Title
82332
    1SAPS     N    1   4.821   4.041  10.722  0.8804  0.3181  0.1685
    1SAPS   HN1    2   4.917   4.028  10.685  0.3184 -2.2505 -0.4615
    1SAPS   HN2    3   4.771   3.951  10.710  2.6274 -0.5178 -0.8542
    1SAPS   HN3    4   4.773   4.114  10.666  0.4618  0.5615  0.8373
    1SAPS   C12    5   4.831   4.088  10.863  0.3183 -0.3734 -0.8490
    1SAPS  H12A    6   4.918   4.148  10.881 -0.3117  1.1650 -2.7286
    1SAPS   C13    7   4.723   4.188  10.902  0.0803 -0.0215 -0.4553
    1SAPS  O13A    8   4.667   4.251  10.808  0.2659 -0.1616 -0.6110
    1SAPS  O13B    9   4.713   4.226  11.022 -0.5499 -0.2908 -0.2592
    1SAPS   C11   10   4.825   3.963  10.960  0.0290  0.7240  0.1006
    1SAPS  H11A   11   4.729   3.908  10.952 -0.0211  0.8956 -0.5219
    1SAPS  H11B   12   4.825   4.004  11.063 -3.6289 -1.4845  1.0941
    1SAPS     P   13   4.993   3.779  11.034  0.0114 -0.4623 -0.3464
    1SAPS   O13   14   5.136   3.810  11.052 -0.1375 -0.5088  0.0917
    1SAPS   O14   15   4.906   3.783  11.153  0.9108  0.1624 -0.5915
    1SAPS   O12   16   4.934   3.876  10.924 -0.0084  0.4204 -0.4106
    1SAPS   O11   17   4.991   3.631  10.980 -0.3560 -0.1418 -0.4208
    1SAPS    C1   18   4.894   3.586  10.886  0.8596 -0.2403 -0.0516
    1SAPS    HA   19   4.892   3.476  10.899 -0.7131 -0.0391  1.5249
    1SAPS    HB   20   4.790   3.620  10.903  0.2384 -1.0979 -2.0384
    1SAPS    C2   21   4.944   3.617  10.737 -0.7889 -0.0970 -0.4963
    1SAPS    HS   22   4.983   3.720  10.738  0.6958 -0.6507 -0.0516
    1SAPS   O21   23   4.840   3.605  10.646  0.7032  0.1656 -0.9220
    1SAPS   C21   24   4.731   3.681  10.656 -0.6855 -0.0822  0.1054
    1SAPS   O22   25   4.722   3.780  10.725  0.3524 -0.2095 -0.5386
    1SAPS   C22   26   4.618   3.633  10.567 -0.8268  0.0307  0.7363
    1SAPS   H2R   27   4.642   3.589  10.468 -0.7336 -1.8867  1.6010
    1SAPS   H2S   28   4.570   3.549  10.622 -0.1013 -0.7842  0.1346
    1SAPS    C3   29   5.069   3.538  10.697  0.7983  0.8166 -0.4353
    1SAPS    HX   30   5.034   3.448  10.642 -0.0544  1.0816 -0.3285
    1SAPS    HY   31   5.131   3.507  10.784  0.5398 -1.2230 -0.9500
    1SAPS   O31   32   5.162   3.618  10.619 -0.1469 -0.4660  0.3664
    1SAPS   C31   33   5.248   3.547  10.551  0.1453  0.0952  0.5667
    1SAPS   O32   34   5.265   3.425  10.556  0.1820 -0.1769  0.0638
    1SAPS   C32   35   5.323   3.643  10.461 -0.0348 -0.5332 -0.5292
    1SAPS   H2X   36   5.364   3.722  10.527  0.1621 -1.2242  0.1725
    1SAPS   H2Y   37   5.254   3.685  10.385  2.5663  1.3495 -1.9703
    1SAPS   C23   38   4.524   3.752  10.554  0.0355 -0.1650 -0.0039
    1SAPS   H3R   39   4.492   3.791  10.653 -1.4009  2.5898 -1.4908
    1SAPS   H3S   40   4.432   3.719  10.502 -0.5595  1.1744  0.1867
    1SAPS   C24   41   4.598   3.868  10.476  0.1266 -0.3721  0.3479
    1SAPS   H4R   42   4.693   3.894  10.528  0.6821 -0.8559 -0.4144
    1SAPS   H4S   43   4.532   3.957  10.488 -1.4804 -1.0310 -3.0548
    1SAPS   C25   44   4.619   3.839  10.329 -0.1674  0.5557 -0.2786
    1SAPS   H5R   45   4.526   3.835  10.272 -0.8465 -1.0120  0.8781
    1SAPS   C26   46   4.728   3.820  10.257  0.4568  0.1694 -0.5080
    1SAPS   H6R   47   4.713   3.778  10.156  2.4614  0.5519 -0.9930
    1SAPS   C27   48   4.869   3.814  10.318 -0.4300 -0.0972 -0.3805
    1SAPS   H7R   49   4.878   3.832  10.428 -0.1733 -0.7527 -0.2949
    1SAPS   H7S   50   4.925   3.902  10.280  1.0865 -0.9863 -0.2534
    1SAPS   C28   51   4.948   3.691  10.286  0.0104 -0.7045 -0.4148
    1SAPS   H8R   52   4.965   3.619  10.367  1.3868 -1.8511 -1.6971
    1SAPS   C29   53   4.993   3.660  10.161 -0.8424  0.0326  0.3887
    1SAPS   H9R   54   5.050   3.569  10.135 -0.2310  1.1895 -2.4373
    1SAPS  C210   55   4.975   3.740  10.038  0.1404  0.3718 -0.6196
    1SAPS  H10R   56   4.914   3.830  10.057 -0.1875  0.3777 -1.6824
    1SAPS  H10S   57   4.921   3.676   9.965 -0.4656 -1.4675  1.3634
    1SAPS  C211   58   5.097   3.795   9.979 -0.3371 -0.2752 -0.0299
    1SAPS  H11R   59   5.146   3.875  10.037 -1.9585  1.5821 -1.1786
    1SAPS  C212   60   5.161   3.761   9.863  0.0000 -0.8682 -0.2103
    1SAPS  H12R   61   5.253   3.815   9.837 -0.7871  1.7290  2.1287
    1SAPS  C213   62   5.116   3.653   9.764  0.6189  0.2981  0.0846
    1SAPS  H13R   63   5.050   3.719   9.704 -0.0087 -0.7583 -0.3928
    1SAPS  H13S   64   5.047   3.578   9.810  0.5913  1.4320  1.9665
    1SAPS  C214   65   5.225   3.573   9.694 -0.2578 -0.5909 -0.7553
    1SAPS  H14R   66   5.287   3.509   9.758 -2.0434 -1.6523 -0.0508
    1SAPS  C215   67   5.248   3.562   9.564 -0.4687  0.1724 -0.0495
    1SAPS  H15R   68   5.331   3.497   9.532  2.3019  3.3360  0.4656
    1SAPS  C216   69   5.166   3.632   9.455 -0.3717  0.3457 -0.2464
    1SAPS  H16R   70   5.101   3.708   9.503  2.1629  0.7969  2.5991
    1SAPS  H16S   71   5.094   3.561   9.409  1.3916 -1.0501 -0.8917
    1SAPS  C217   72   5.245   3.698   9.342 -0.6189 -0.1287  0.1970
    1SAPS  H17R   73   5.322   3.766   9.386  0.6759 -1.9097  0.7454
    1SAPS  H17S   74   5.176   3.761   9.282 -1.0101 -2.6831 -2.1388
    1SAPS  C218   75   5.318   3.605   9.242 -0.0761  0.2426 -0.5161
    1SAPS  H18R   76   5.251   3.525   9.204 -0.5218  0.0500  0.6400
    1SAPS  H18S   77   5.400   3.552   9.296 -0.1005  0.6919 -0.0351
    1SAPS  C219   78   5.360   3.682   9.112  0.0756 -0.0097  0.0815
    1SAPS  H19R   79   5.450   3.744   9.137 -0.3100  0.5380  0.1214
    1SAPS  H19S   80   5.271   3.744   9.088 -0.2643 -0.8161 -0.8145
    1SAPS  C220   81   5.386   3.591   8.989 -0.2470 -0.6158  0.0078
    1SAPS  H20R   82   5.288   3.543   8.967 -0.6098 -1.1055  2.5294
    1SAPS  H20S   83   5.466   3.521   9.024 -1.0317 -0.6261  1.8230
    1SAPS  H20T   84   5.423   3.651   8.903  2.3494  1.0130  2.1666
    1SAPS   C33   85   5.446   3.572  10.403  0.3474 -0.0293 -0.5178
    1SAPS   H3X   86   5.414   3.476  10.357 -1.6614  0.7718 -0.8479
    1SAPS   H3Y   87   5.524   3.548  10.479  0.9148 -1.6369 -1.5725
    1SAPS   C34   88   5.516   3.671  10.298 -0.7886  0.0798  0.7906
    1SAPS   H4X   89   5.625   3.653  10.298 -0.3916  2.3757  0.2649
    1SAPS   H4Y   90   5.511   3.776  10.332  2.0506 -0.3065  2.5451
    1SAPS   C35   91   5.457   3.642  10.156 -0.0796 -0.4545 -0.2110
    1SAPS   H5X   92   5.348   3.626  10.164 -0.0084 -0.9006 -0.1116
    1SAPS   H5Y   93   5.507   3.549  10.120 -1.4995 -1.7439  1.1044
    1SAPS   C36   94   5.490   3.761  10.055  0.4610 -0.2108 -0.1919
    1SAPS   H6X   95   5.583   3.812  10.088  0.8642 -1.8465  1.2956
    1SAPS   H6Y   96   5.409   3.836  10.055 -2.2820 -3.0658 -1.0447
    1SAPS   C37   97   5.519   3.715   9.919  0.1874 -0.5057 -0.0181
    1SAPS   H7X   98   5.423   3.678   9.877  0.6302 -0.9348 -0.6693
    1SAPS   H7Y   99   5.590   3.629   9.925 -0.3535 -1.1720 -2.3773
    1SAPS   C38  100   5.562   3.815   9.819  0.0214 -0.2457 -0.9830
    1SAPS   H8X  101   5.650   3.878   9.844  0.0783 -0.4014 -0.7970
    1SAPS   H8Y  102   5.485   3.894   9.802  1.1713  0.8012 -1.4188
    1SAPS   C39  103   5.574   3.746   9.686  0.0895 -0.5836  1.5741
    1SAPS   H9X  104   5.474   3.721   9.644 -0.4498 -0.2758  2.6505
    1SAPS   H9Y  105   5.637   3.656   9.697  1.3024  0.1934  1.0396
    1SAPS  C310  106   5.625   3.849   9.582  0.1575 -0.0720 -0.1222
    1SAPS  H10X  107   5.722   3.893   9.612  0.4841 -1.0491  0.2891
    1SAPS  H10Y  108   5.557   3.936   9.574  0.9068  0.6682  1.3953
    1SAPS  C311  109   5.638   3.792   9.442 -0.9365  0.2687 -0.0646
    1SAPS  H11X  110   5.557   3.719   9.423  1.0277 -1.7236 -1.0277
    1SAPS  H11Y  111   5.725   3.723   9.446 -0.9385  0.2957  0.4797
    1SAPS  C312  112   5.642   3.887   9.325  0.2796  0.0579  0.0512
    1SAPS  H12X  113   5.717   3.964   9.352 -0.1819  1.5626 -2.7261
    1SAPS  H12Y  114   5.541   3.934   9.319 -0.6874 -1.6928  1.9997
    1SAPS  C313  115   5.704   3.829   9.200 -0.5135 -0.5748  0.0463
    1SAPS  H13X  116   5.669   3.723   9.193 -1.7321 -0.2115  0.4576
    1SAPS  H13Y  117   5.814   3.827   9.208 -0.5694 -0.5302  0.8510
    1SAPS  C314  118   5.662   3.911   9.077  0.3311  0.1566  0.3537
    1SAPS  H14X  119   5.681   4.020   9.089  0.9874 -0.1895  2.6582
    1SAPS  H14Y  120   5.554   3.894   9.057  1.0004 -0.9684 -2.5507
    1SAPS  C315  121   5.747   3.875   8.948 -0.5956 -0.1316 -0.2645
    1SAPS  H15X  122   5.852   3.899   8.977 -0.7505 -1.0205  1.0976
    1SAPS  H15Y  123   5.698   3.939   8.871  0.4179  1.5552  0.4575
    1SAPS  C316  124   5.733   3.732   8.901  0.7021  0.3639  0.2545
    1SAPS  H16X  125   5.628   3.699   8.913  0.7583  0.2142  0.3410
    1SAPS  H16Y  126   5.800   3.666   8.961 -0.1046 -0.2479  0.4870
    1SAPS  C317  127   5.765   3.723   8.751 -0.1796 -0.1608  0.4952
    1SAPS  H17X  128   5.855   3.780   8.719  0.3671 -1.0299  0.4711
    1SAPS  H17Y  129   5.691   3.781   8.692  0.2319 -1.3418 -1.2128
    1SAPS  C318  130   5.753   3.579   8.691 -0.0404  0.3798  0.1321
    1SAPS  H18X  131   5.805   3.570   8.593  1.1454  1.2267  0.6750
    1SAPS  H18Y  132   5.647   3.551   8.675  0.0503  0.5165 -0.7352
    1SAPS  H18Z  133   5.786   3.501   8.763 -1.2481 -0.4877 -0.2463
    2SAPS     N  134   3.254   3.408  10.983  0.1919  0.5350 -0.0172
    2SAPS   HN1  135   3.346   3.434  11.025  0.0013  0.4310  0.4691
    2SAPS   HN2  136   3.211   3.336  11.044 -1.2100 -0.5513 -2.2225
    2SAPS   HN3  137   3.277   3.372  10.888 -1.5941 -1.0494  0.1252
    2SAPS   C12  138   3.177   3.530  10.968 -0.1060 -0.5162 -0.3377
    2SAPS  H12A  139   3.077   3.493  10.955 -0.0838 -0.6116 -0.2310
    2SAPS   C13  140   3.171   3.629  11.079  0.1658 -0.7539 -0.5655
    2SAPS  O13A  141   3.235   3.603  11.187  0.2067 -0.1719 -0.0115
    2SAPS  O13B  142   3.116   3.741  11.063  0.1499  0.1013  0.8239
    2SAPS   C11  143   3.223   3.596  10.838 -0.0593  0.7734 -0.1995
    2SAPS  H11A  144   3.332   3.618  10.836 -0.1770  1.4075  0.3010
    2SAPS  H11B  145   3.168   3.692  10.824 -0.2168  1.0772  2.3255
    2SAPS     P  146   3.160   3.544  10.580 -0.2943 -0.2192 -0.3517
    2SAPS   O13  147   3.070   3.435  10.538 -0.3101 -0.1095 -0.0233
    2SAPS   O14  148   3.124   3.689  10.571 -0.6605 -0.2151  0.2252
    2SAPS   O12  149   3.191   3.510  10.730  0.0611  0.1770  0.0170
    2SAPS   O11  150   3.294   3.528  10.499 -0.5239 -0.5024  0.5243
    2SAPS    C1  151   3.413   3.464  10.543 -0.8142  0.6714 -0.8835
    2SAPS    HA  152   3.475   3.547  10.584  0.2100 -0.7835  0.5697
    2SAPS    HB  153   3.403   3.397  10.630  1.7231 -0.5869 -1.4926
    2SAPS    C2  154   3.480   3.381  10.428  0.4463  0.3984  0.0629
    2SAPS    HS  155   3.589   3.371  10.444 -0.0449  0.2491  3.5997
    2SAPS   O21  156   3.449   3.429  10.294 -0.0529 -0.2285  0.4966
    2SAPS   C21  157   3.467   3.558  10.285 -0.1631  0.8947  0.4014
    2SAPS   O22  158   3.540   3.627  10.350  0.1086  0.6802 -0.4655
    2SAPS   C22  159   3.376   3.603  10.171 -0.7604  0.1450  0.5434
    2SAPS   H2R  160   3.312   3.516  10.145 -2.4999  1.3507  0.6883
    2SAPS   H2S  161   3.307   3.685  10.197  0.3696  0.7929  1.5444
    2SAPS    C3  162   3.413   3.238  10.439  0.1838  0.5442 -0.4604
    2SAPS    HX  163   3.307   3.255  10.414  0.4203  0.6276 -1.4124
    2SAPS    HY  164   3.421   3.201  10.544 -1.1343  0.8769 -0.2418
    2SAPS   O31  165   3.470   3.145  10.346  0.1692  0.4553  0.2067
    2SAPS   C31  166   3.402   3.027  10.323 -0.4256 -0.3330 -0.0558
    2SAPS   O32  167   3.305   2.989  10.392  0.0980 -0.0885 -0.3135
    2SAPS   C32  168   3.466   2.950  10.209  0.5223 -0.3322  0.3688
    2SAPS   H2X  169   3.545   2.893  10.263 -0.8011 -1.3920  1.2215
    2SAPS   H2Y  170   3.513   3.025  10.141  0.5986 -0.3336  0.4194
    2SAPS   C23  171   3.470   3.641  10.052 -0.0790  0.2847 -0.4844
    2SAPS   H3R  172   3.543   3.720  10.078  0.8247 -0.5266 -0.5577
    2SAPS   H3S  173   3.418   3.690   9.966 -0.4254 -1.0571 -1.0519
    2SAPS   C24  174   3.534   3.520   9.993 -0.2803 -0.0818 -0.3606
    2SAPS   H4R  175   3.461   3.442   9.961 -0.2962  0.1419 -0.8783
    2SAPS   H4S  176   3.598   3.479  10.074 -0.5785  0.0287 -0.0697
    2SAPS   C25  177   3.621   3.555   9.878 -0.5351 -0.3309  0.4449
    2SAPS   H5R  178   3.728   3.572   9.894 -0.1374 -2.3756  0.1177
    2SAPS   C26  179   3.581   3.565   9.750  0.1813 -0.0469  0.3891
    2SAPS   H6R  180   3.655   3.582   9.670 -0.1276  0.1440  0.1421
    2SAPS   C27  181   3.436   3.539   9.702 -0.1690 -0.8578  0.3720
    2SAPS   H7R  182   3.366   3.607   9.754  1.5129  2.1971 -1.2123
    2SAPS   H7S  183   3.404   3.436   9.732  1.9993 -1.1144  1.9405
    2SAPS   C28  184   3.411   3.563   9.554  0.1082 -0.2310 -0.2941
    2SAPS   H8R  185   3.348   3.652   9.542  0.9107  0.3878  0.0152
    2SAPS   C29  186   3.454   3.494   9.449  0.1490 -0.5190 -0.0835
    2SAPS   H9R  187   3.437   3.542   9.351  1.7205  2.3046  0.9777
    2SAPS  C210  188   3.554   3.380   9.454 -0.5247 -0.2404 -0.6415
    2SAPS  H10R  189   3.519   3.291   9.399  0.1020  1.3227 -3.6520
    2SAPS  H10S  190   3.563   3.356   9.562 -0.8441  3.5786  0.3305
    2SAPS  C211  191   3.687   3.423   9.404 -0.1459  0.1468  0.8386
    2SAPS  H11R  192   3.747   3.461   9.489 -1.7621  0.3832  1.8870
    2SAPS  C212  193   3.732   3.423   9.280  0.0212 -0.1422 -0.6073
    2SAPS  H12R  194   3.835   3.453   9.252 -0.4613 -0.7782 -3.1871
    2SAPS  C213  195   3.660   3.367   9.162  0.0539 -0.0098  0.5321
    2SAPS  H13R  196   3.634   3.460   9.107 -0.3205  1.2569  2.7714
    2SAPS  H13S  197   3.563   3.323   9.193 -1.0518  1.9268 -0.0499
    2SAPS  C214  198   3.735   3.261   9.081  1.2837  0.3301 -0.0246
    2SAPS  H14R  199   3.798   3.191   9.138 -1.3057 -2.4721 -0.4298
    2SAPS  C215  200   3.710   3.233   8.956 -0.6761  0.0017  0.5195
    2SAPS  H15R  201   3.769   3.159   8.900 -2.0398 -0.5181 -0.2545
    2SAPS  C216  202   3.600   3.301   8.876  0.2826 -0.5566 -0.4544
    2SAPS  H16R  203   3.575   3.398   8.924  0.5265 -0.2783 -0.8818
    2SAPS  H16S  204   3.510   3.237   8.870 -0.4542  0.5442 -1.3818
    2SAPS  C217  205   3.626   3.305   8.726  0.4024 -0.8329  0.6778
    2SAPS  H17R  206   3.638   3.205   8.681 -0.4606 -0.2512 -0.8737
    2SAPS  H17S  207   3.714   3.365   8.695 -0.7300  0.3052 -0.4192
    2SAPS  C218  208   3.507   3.359   8.646  0.6611 -0.1309  0.7837
    2SAPS  H18R  209   3.439   3.400   8.724 -0.9842 -2.0684  0.4015
    2SAPS  H18S  210   3.450   3.274   8.602  0.5757  0.1941  0.2688
    2SAPS  C219  211   3.550   3.458   8.543  0.7010 -0.4256 -0.3730
    2SAPS  H19R  212   3.636   3.418   8.485 -0.5117 -0.7410 -1.9930
    2SAPS  H19S  213   3.573   3.555   8.592  0.8126  0.2751 -1.7557
    2SAPS  C220  214   3.437   3.488   8.434 -0.2885  0.5720  0.8123
    2SAPS  H20R  215   3.347   3.536   8.479 -1.1708  0.0168 -0.3426
    2SAPS  H20S  216   3.403   3.389   8.398 -1.1023  0.2640  2.3704
    2SAPS  H20T  217   3.469   3.540   8.341 -0.3033  0.2907  0.6500
    2SAPS   C33  218   3.376   2.851  10.127 -0.6053 -0.4278 -0.5720
    2SAPS   H3X  219   3.279   2.895  10.095  0.7096  1.8895 -1.5485
    2SAPS   H3Y  220   3.360   2.763  10.191  1.6043 -0.4227  0.0157
    2SAPS   C34  221   3.459   2.823  10.001 -0.2514  1.1098 -0.0912
    2SAPS   H4X  222   3.551   2.768  10.031 -0.7667  1.1700  1.6490
    2SAPS   H4Y  223   3.489   2.912   9.941 -0.3928  0.9390 -0.4171
    2SAPS   C35  224   3.379   2.731   9.905  0.2123 -0.2167  0.3361
    2SAPS   H5X  225   3.288   2.781   9.864  2.0860  0.3860 -3.2816
    2SAPS   H5Y  226   3.330   2.656   9.970 -0.4035  1.2633  1.6250
    2SAPS   C36  227   3.455   2.659   9.799 -0.6140 -0.3978 -0.6015
    2SAPS   H6X  228   3.393   2.585   9.744  1.2827 -3.0549  0.7812
    2SAPS   H6Y  229   3.520   2.590   9.856 -0.8041  1.1291  1.5113
    2SAPS   C37  230   3.545   2.738   9.704 -0.1583 -0.3721  0.3827
    2SAPS   H7X  231   3.611   2.797   9.771 -0.5636 -1.9351  2.1993
    2SAPS   H7Y  232   3.489   2.814   9.645  3.2024  2.2111  0.3933
    2SAPS   C38  233   3.642   2.660   9.616 -0.8129 -0.2727  0.6019
    2SAPS   H8X  234   3.709   2.604   9.684 -0.1084  0.6371  0.6583
    2SAPS   H8Y  235   3.703   2.736   9.563 -0.6501  0.2876  1.5866
    2SAPS   C39  236   3.580   2.560   9.518 -0.5369 -0.1429 -0.0559
    2SAPS   H9X  237   3.534   2.470   9.563 -0.3982  1.4008  3.3271
    2SAPS   H9Y  238   3.666   2.522   9.458  0.0236  0.5897  0.2667
    2SAPS  C310  239   3.486   2.624   9.417 -0.5598 -0.7322 -0.4837
    2SAPS  H10X  240   3.528   2.716   9.372 -3.0005 -0.1710 -1.6839
    2SAPS  H10Y  241   3.406   2.673   9.476  1.0830  1.1513  0.2360
    2SAPS  C311  242   3.443   2.525   9.306 -0.1252 -0.2493 -0.2149
    2SAPS  H11X  243   3.393   2.443   9.362  2.0936  0.2668  2.6494
    2SAPS  H11Y  244   3.522   2.482   9.242  0.1965  0.3647 -0.2302
    2SAPS  C312  245   3.353   2.597   9.196  0.4673  0.0287  0.3414
    2SAPS  H12X  246   3.424   2.666   9.146  1.3278 -2.1284 -1.5250
    2SAPS  H12Y  247   3.266   2.653   9.236 -0.8797  0.0945 -2.5513
    2SAPS  C313  248   3.303   2.492   9.096 -0.2853  0.0114  0.4813
    2SAPS  H13X  249   3.208   2.458   9.142 -1.4058  2.3047 -0.0996
    2SAPS  H13Y  250   3.379   2.412   9.082  2.3096  2.3925  0.6289
    2SAPS  C314  251   3.283   2.554   8.955  0.1784  0.0520 -0.5424
    2SAPS  H14X  252   3.384   2.571   8.911 -0.5750  0.1029 -2.2552
    2SAPS  H14Y  253   3.242   2.657   8.959 -2.5865 -0.9642 -1.7181
    2SAPS  C315  254   3.198   2.477   8.863  0.6248 -0.3753 -0.0756
    2SAPS  H15X  255   3.092   2.488   8.894  0.2215  1.5332 -1.9637
    2SAPS  H15Y  256   3.217   2.368   8.857  1.5224 -0.3535  1.9236
    2SAPS  C316  257   3.204   2.537   8.720 -0.0020 -0.1096 -0.0591
    2SAPS  H16X  258   3.309   2.554   8.688  0.1742  0.6875  0.9122
    2SAPS  H16Y  259   3.151   2.635   8.720 -1.7029 -1.0073 -1.5019
    2SAPS  C317  260   3.130   2.453   8.617 -0.2161  0.5952  1.0527
    2SAPS  H17X  261   3.021   2.471   8.630 -0.4190  0.0209  0.2058
    2SAPS  H17Y  262   3.148   2.344   8.634  2.4577  0.6862 -0.8647
    2SAPS  C318  263   3.176   2.481   8.472  0.3296 -0.3361 -0.6844
    2SAPS  H18X  264   3.256   2.409   8.446  0.2200 -0.7788  0.1659
    2SAPS  H18Y  265   3.202   2.588   8.461 -0.8810 -0.1561 -1.8660
    2SAPS  H18Z  266   3.102   2.462   8.392  0.7693  0.8111 -1.3672
    3SAPS     N  267   4.014   5.498  11.271 -0.5742  0.7119  0.2318
    3SAPS   HN1  268   3.934   5.471  11.211 -0.8195 -0.2380  0.9794
    3SAPS   HN2  269   4.061   5.410  11.300 -1.2888  0.8233  1.7961
    3SAPS   HN3  270   3.962   5.531  11.355 -0.1722  2.9890 -0.3743
    3SAPS   C12  271   4.096   5.601  11.209 -0.1081 -0.4456  0.1074
    3SAPS  H12A  272   4.035   5.682  11.171  1.2817  0.8590  0.5862
    3SAPS   C13  273   4.191   5.668  11.311  0.7157  0.3321  0.2929
    3SAPS  O13A  274   4.185   5.642  11.433  0.2855  0.9172 -0.0498
    3SAPS  O13B  275   4.242   5.777  11.267 -0.2862 -0.1254 -0.4176
    3SAPS   C11  276   4.182   5.532  11.096  0.1162 -0.8783 -0.0018
    3SAPS  H11A  277   4.258   5.469  11.147 -0.3520 -0.5077  1.1858
    3SAPS  H11B  278   4.240   5.611  11.044 -2.0063  0.0227 -1.0630
    3SAPS     P  279   4.140   5.434  10.865  0.2318 -0.3724  0.1908
    3SAPS   O13  280   4.288   5.429  10.863  0.4579 -0.0329 -0.1206
    3SAPS   O14  281   4.065   5.317  10.812 -0.2656  0.7096  0.1145
    3SAPS   O12  282   4.097   5.461  11.013 -0.5793  0.3393  0.2464
    3SAPS   O11  283   4.085   5.571  10.798 -0.8646  0.1081  0.4514
    3SAPS    C1  284   3.944   5.596  10.786  0.9418  0.4971 -0.4998
    3SAPS    HA  285   3.883   5.541  10.860  0.4810  1.0174 -0.4844
    3SAPS    HB  286   3.936   5.707  10.785 -0.6636  0.4119  0.5333
    3SAPS    C2  287   3.890   5.553  10.644 -0.3039 -0.4940  1.0622
    3SAPS    HS  288   3.934   5.452  10.630  0.1460 -0.0736 -0.6830
    3SAPS   O21  289   3.939   5.646  10.543  0.0677  0.4678 -0.2197
    3SAPS   C21  290   4.045   5.602  10.473 -0.6458 -0.2045 -0.4943
    3SAPS   O22  291   4.089   5.491  10.481 -0.2204  0.0383 -0.2640
    3SAPS   C22  292   4.082   5.697  10.354  0.4379 -0.5648 -0.0366
    3SAPS   H2R  293   3.999   5.685  10.282  0.6786 -3.3505  0.0717
    3SAPS   H2S  294   4.065   5.801  10.389 -2.2238 -0.2090 -2.2300
    3SAPS    C3  295   3.739   5.557  10.646  0.5390 -0.1102  0.0525
    3SAPS    HX  296   3.713   5.664  10.661  0.5443 -0.0132 -0.6336
    3SAPS    HY  297   3.702   5.490  10.726 -2.1868  0.9138 -0.2866
    3SAPS   O31  298   3.676   5.511  10.521  0.1961 -0.7070  0.4584
    3SAPS   C31  299   3.677   5.382  10.495  0.0118 -0.5396 -0.4966
    3SAPS   O32  300   3.748   5.297  10.546 -0.1721  0.2396  0.2530
    3SAPS   C32  301   3.587   5.358  10.376 -0.2283 -0.0841  0.1766
    3SAPS   H2X  302   3.488   5.384  10.418  0.3038 -1.3688  2.3101
    3SAPS   H2Y  303   3.583   5.249  10.358 -1.0039  0.1636 -1.2353
    3SAPS   C23  304   4.222   5.673  10.285  0.4213 -0.4074 -0.5112
    3SAPS   H3R  305   4.265   5.583  10.333  0.7299 -0.1193 -0.2487
    3SAPS   H3S  306   4.289   5.755  10.316  0.2134 -0.1290 -0.7961
    3SAPS   C24  307   4.210   5.670  10.131 -0.2114  0.3400  0.3895
    3SAPS   H4R  308   4.113   5.618  10.112  0.1525  0.2453 -1.3457
    3SAPS   H4S  309   4.295   5.609  10.094 -0.2311  0.7620 -0.3655
    3SAPS   C25  310   4.205   5.807  10.072 -0.4985 -0.0367 -0.1104
    3SAPS   H5R  311   4.187   5.888  10.144 -0.9436 -1.4627  1.3919
    3SAPS   C26  312   4.223   5.831   9.940 -0.5116  0.2394  0.3850
    3SAPS   H6R  313   4.217   5.931   9.896 -0.1346  0.3982  0.6923
    3SAPS   C27  314   4.236   5.718   9.839  0.3359 -0.3424  0.0668
    3SAPS   H7R  315   4.159   5.732   9.760  0.3803 -1.8558 -0.2466
    3SAPS   H7S  316   4.187   5.626   9.877  0.2512 -0.0651  0.6378
    3SAPS   C28  317   4.372   5.691   9.783  0.1285  0.0924 -0.2234
    3SAPS   H8R  318   4.425   5.608   9.833  0.0371  0.7019  0.8979
    3SAPS   C29  319   4.427   5.753   9.676 -0.6387  0.6793  0.4276
    3SAPS   H9R  320   4.519   5.712   9.631 -1.2377 -1.1848  0.8624
    3SAPS  C210  321   4.361   5.871   9.605 -0.8344 -0.1359 -0.1060
    3SAPS  H10R  322   4.259   5.899   9.639 -0.6613  0.8523 -0.3974
    3SAPS  H10S  323   4.354   5.836   9.499  1.2197 -0.1605 -0.2603
    3SAPS  C211  324   4.443   6.001   9.627 -0.1819  0.7008  0.6950
    3SAPS  H11R  325   4.458   6.044   9.728 -0.3110  1.3117  0.4558
    3SAPS  C212  326   4.484   6.089   9.531 -0.6030  0.0318 -0.6402
    3SAPS  H12R  327   4.533   6.182   9.563  0.1806 -0.6267  0.0876
    3SAPS  C213  328   4.469   6.075   9.384 -0.2922  0.3564  0.3095
    3SAPS  H13R  329   4.451   5.968   9.359 -0.9269  0.2120  1.3154
    3SAPS  H13S  330   4.562   6.104   9.331 -0.0122 -0.5092  0.3249
    3SAPS  C214  331   4.358   6.162   9.329 -0.7051  0.7007  0.3601
    3SAPS  H14R  332   4.301   6.214   9.407  0.0560 -0.5732  1.7997
    3SAPS  C215  333   4.350   6.214   9.203  0.1299  0.3625 -0.2971
    3SAPS  H15R  334   4.266   6.280   9.178 -0.6856 -0.3665  0.4515
    3SAPS  C216  335   4.445   6.183   9.091  0.2421  0.1900  0.0558
    3SAPS  H16R  336   4.543   6.144   9.125  0.8036  1.4318 -0.1384
    3SAPS  H16S  337   4.477   6.283   9.055  0.9139 -0.7235 -1.9258
    3SAPS  C217  338   4.395   6.096   8.980  0.0929 -0.3930  0.1408
    3SAPS  H17R  339   4.468   6.118   8.900  1.9708  0.7667  2.1076
    3SAPS  H17S  340   4.291   6.114   8.945  0.6043  0.5318 -0.9240
    3SAPS  C218  341   4.406   5.947   9.011 -0.3262 -0.2242  0.6576
    3SAPS  H18R  342   4.318   5.925   9.075 -0.0419  0.6834  1.3637
    3SAPS  H18S  343   4.495   5.928   9.074  0.1931 -0.4129 -0.1296
    3SAPS  C219  344   4.388   5.851   8.891  0.1410 -0.1269 -1.2527
    3SAPS  H19R  345   4.395   5.748   8.932 -2.0708  0.1608 -0.0843
    3SAPS  H19S  346   4.465   5.861   8.812  1.6247 -0.1389  0.1406
    3SAPS  C220  347   4.246   5.857   8.831 -0.3803  0.2183 -0.0065
    3SAPS  H20R  348   4.224   5.772   8.763 -0.9559  0.1864  0.2148
    3SAPS  H20S  349   4.229   5.951   8.774  0.4205  0.5434  0.2893
    3SAPS  H20T  350   4.179   5.864   8.919 -0.7934 -0.6379 -0.2463
    3SAPS   C33  351   3.620   5.449  10.259 -0.9133  0.4489 -0.1773
    3SAPS   H3X  352   3.724   5.420  10.231 -1.4685 -2.2566  0.4218
    3SAPS   H3Y  353   3.630   5.550  10.305  1.4474 -0.8168  2.2997
    3SAPS   C34  354   3.539   5.437  10.131 -0.2828  0.4051 -1.0450
    3SAPS   H4X  355   3.572   5.520  10.064 -2.1931  1.0088 -1.2897
    3SAPS   H4Y  356   3.433   5.469  10.141  0.0087  0.8680  0.6722
    3SAPS   C35  357   3.559   5.310  10.060  0.1587  0.5065 -0.4544
    3SAPS   H5X  358   3.532   5.232  10.134 -0.4989  0.2643 -0.9361
    3SAPS   H5Y  359   3.663   5.298  10.021 -0.7761  0.1079 -2.9221
    3SAPS   C36  360   3.492   5.305   9.926  0.4863  0.3429  0.0435
    3SAPS   H6X  361   3.536   5.381   9.859  1.1270 -0.0859 -0.0244
    3SAPS   H6Y  362   3.383   5.326   9.932  0.3439 -0.7610  1.6366
    3SAPS   C37  363   3.490   5.172   9.858 -0.6279  1.1255  0.2081
    3SAPS   H7X  364   3.436   5.100   9.923  2.7522 -1.7628 -0.0955
    3SAPS   H7Y  365   3.596   5.153   9.834 -1.5670 -0.4170 -2.8272
    3SAPS   C38  366   3.423   5.178   9.716  0.5722 -0.2998 -0.1366
    3SAPS   H8X  367   3.484   5.252   9.660  0.4467  0.1427  0.3117
    3SAPS   H8Y  368   3.315   5.200   9.729  0.1615 -0.9418 -2.2745
    3SAPS   C39  369   3.435   5.044   9.637  0.0043  0.1429  0.5473
    3SAPS   H9X  370   3.413   4.961   9.708 -1.2677  0.1876  0.2160
    3SAPS   H9Y  371   3.536   5.020   9.597  0.9544  0.7749  2.5141
    3SAPS  C310  372   3.336   5.032   9.525  0.1782  0.1678  0.2014
    3SAPS  H10X  373   3.242   5.074   9.565  0.5973  0.6800  0.6496
    3SAPS  H10Y  374   3.318   4.925   9.504  1.6684 -0.0108 -0.2981
    3SAPS  C311  375   3.385   5.108   9.399  0.1967 -0.1669 -0.9090
    3SAPS  H11X  376   3.488   5.068   9.390 -0.6637 -3.0388  1.1071
    3SAPS  H11Y  377   3.393   5.217   9.420 -0.7156  0.2543 -2.6953
    3SAPS  C312  378   3.304   5.088   9.271 -0.5468  0.0458  0.4120
    3SAPS  H12X  379   3.200   5.125   9.278 -0.6758  0.1812 -1.7723
    3SAPS  H12Y  380   3.309   4.986   9.227 -2.6852 -0.2101  0.7351
    3SAPS  C313  381   3.351   5.189   9.165 -0.5132 -0.2338  0.0569
    3SAPS  H13X  382   3.460   5.200   9.183 -0.9130  0.7409  1.9880
    3SAPS  H13Y  383   3.303   5.287   9.182  0.1589  0.0716  0.2043
    3SAPS  C314  384   3.318   5.146   9.019  0.0317 -0.2220 -0.1132
    3SAPS  H14X  385   3.357   5.234   8.964 -0.1823  0.1914  0.3926
    3SAPS  H14Y  386   3.208   5.154   9.006 -0.1149  0.4740  1.3266
    3SAPS  C315  387   3.389   5.028   8.956  0.4658 -0.0019  0.4167
    3SAPS  H15X  388   3.366   4.934   9.012 -1.5077 -0.0853 -0.5202
    3SAPS  H15Y  389   3.497   5.046   8.975  0.3036 -0.5484  2.0072
    3SAPS  C316  390   3.365   5.021   8.808  0.4510 -0.2654  0.8675
    3SAPS  H16X  391   3.465   4.994   8.770 -0.2463 -2.0583  0.2468
    3SAPS  H16Y  392   3.339   5.126   8.781  1.9660 -0.2408 -0.5885
    3SAPS  C317  393   3.258   4.911   8.757 -0.2574  0.0966 -0.1159
    3SAPS  H17X  394   3.169   4.934   8.821  0.3309  0.6227  0.5222
    3SAPS  H17Y  395   3.276   4.805   8.782 -1.1708  0.5774  2.8426
    3SAPS  C318  396   3.218   4.913   8.612 -0.5947 -0.7089 -0.0821
    3SAPS  H18X  397   3.302   4.924   8.540 -0.8594  0.4533 -0.2271
    3SAPS  H18Y  398   3.147   4.995   8.587 -0.1869  0.0152  1.1226
    3SAPS  H18Z  399   3.178   4.814   8.581  1.0109 -1.4119  0.0582
    4SAPS     N  400   6.320   6.569  10.891  0.3033  0.5602 -0.1296
    4SAPS   HN1  401   6.244   6.499  10.888 -1.9250  2.9522 -1.4494
    4SAPS   HN2  402   6.343   6.603  10.795 -0.0075  2.0390  0.2978
    4SAPS   HN3  403   6.407   6.523  10.925  0.8533  2.1063  0.6165
    4SAPS   C12  404   6.290   6.669  10.993 -0.3331  0.2762 -0.2298
    4SAPS  H12A  405   6.191   6.711  10.982  0.4476  3.2346  3.1265
    4SAPS   C13  406   6.297   6.620  11.141  0.0438 -0.4749  0.0837
    4SAPS  O13A  407   6.296   6.495  11.165  0.0386 -0.4694  0.4579
    4SAPS  O13B  408   6.260   6.701  11.229 -0.0770  0.2814 -0.3579
    4SAPS   C11  409   6.394   6.780  10.975  0.2029  0.1201 -0.2255
    4SAPS  H11A  410   6.491   6.740  11.011  1.2834  0.3459 -2.7382
    4SAPS  H11B  411   6.362   6.855  11.050  0.0921  1.5532 -1.6772
    4SAPS     P  412   6.426   6.983  10.817  0.4160  0.0636  0.1247
    4SAPS   O13  413   6.304   7.046  10.877  0.4083  0.1018  0.1763
    4SAPS   O14  414   6.555   7.042  10.861  0.4831  0.2752 -0.2374
    4SAPS   O12  415   6.414   6.829  10.840 -0.4370  0.0510 -1.0767
    4SAPS   O11  416   6.417   6.994  10.659 -0.2758  0.1250  0.6152
    4SAPS    C1  417   6.406   7.119  10.600  0.2588 -0.0278  0.6385
    4SAPS    HA  418   6.360   7.198  10.662 -1.6377 -1.7481  1.4955
    4SAPS    HB  419   6.506   7.154  10.567  0.8434 -0.9467  1.3893
    4SAPS    C2  420   6.326   7.103  10.466 -0.1128  0.2594  0.0175
    4SAPS    HS  421   6.222   7.076  10.491  0.7205 -1.7774  1.4473
    4SAPS   O21  422   6.394   7.007  10.381  0.3673 -0.0414  0.1800
    4SAPS   C21  423   6.317   6.916  10.313  0.1043  0.0796  0.1130
    4SAPS   O22  424   6.198   6.903  10.329 -0.0712  0.1927 -0.1975
    4SAPS   C22  425   6.411   6.842  10.214 -0.1760 -0.8857 -0.5329
    4SAPS   H2R  426   6.511   6.852  10.262  0.7607  2.2831 -2.9720
    4SAPS   H2S  427   6.373   6.737  10.211 -0.8047 -0.7523  1.5665
    4SAPS    C3  428   6.315   7.238  10.391 -0.0628  0.0855 -0.6936
    4SAPS    HX  429   6.416   7.282  10.377 -0.1873 -0.1019 -2.2849
    4SAPS    HY  430   6.263   7.309  10.458  0.5679 -0.0431 -0.0720
    4SAPS   O31  431   6.253   7.230  10.256  0.0949  0.3059 -0.5178
    4SAPS   C31  432   6.119   7.240  10.259 -0.2968  0.5065  0.2090
    4SAPS   O32  433   6.046   7.253  10.357 -0.1003  0.3571  0.7948
    4SAPS   C32  434   6.072   7.233  10.117 -0.5953 -0.1367  0.8710
    4SAPS   H2X  435   6.111   7.139  10.073  1.3262  2.0230 -2.2974
    4SAPS   H2Y  436   6.112   7.321  10.060  0.4617 -0.5528  0.9567
    4SAPS   C23  437   6.408   6.915  10.078 -0.2478  0.0338  0.0218
    4SAPS   H3R  438   6.496   6.869  10.028 -0.1654  0.6100 -0.3752
    4SAPS   H3S  439   6.425   7.024  10.090 -1.3627  0.0992  1.1008
    4SAPS   C24  440   6.289   6.878   9.981 -0.2707 -0.5503 -0.3406
    4SAPS   H4R  441   6.197   6.888  10.043  1.0492  1.1395  1.4186
    4SAPS   H4S  442   6.305   6.773   9.950 -0.7870 -0.8752  0.4690
    4SAPS   C25  443   6.277   6.968   9.868  0.4118  0.4040 -0.0008
    4SAPS   H5R  444   6.230   7.064   9.895  0.4827 -0.2325  2.5324
    4SAPS   C26  445   6.325   6.944   9.746  0.2856  1.0235  0.1839
    4SAPS   H6R  446   6.328   7.034   9.683 -1.7596  1.0957  0.1561
    4SAPS   C27  447   6.391   6.823   9.691  0.6816 -0.4917 -0.2578
    4SAPS   H7R  448   6.411   6.747   9.768 -2.1699 -0.3589  0.6883
    4SAPS   H7S  449   6.490   6.841   9.645  0.9777  1.0994  0.9610
    4SAPS   C28  450   6.294   6.764   9.588  0.2423 -0.7205  0.1737
    4SAPS   H8R  451   6.239   6.679   9.631  0.8913 -1.0399  0.3797
    4SAPS   C29  452   6.281   6.810   9.468  1.0956 -0.0048  0.1350
    4SAPS   H9R  453   6.212   6.761   9.397 -2.9328  1.1782  3.0298
    4SAPS  C210  454   6.347   6.933   9.406 -0.3266  0.2825  0.2936
    4SAPS  H10R  455   6.434   6.891   9.351 -0.6650 -1.7677  1.2685
    4SAPS  H10S  456   6.391   6.995   9.487 -0.8454 -0.5770  1.2460
    4SAPS  C211  457   6.258   7.018   9.318 -0.7710 -0.6375  0.2955
    4SAPS  H11R  458   6.203   7.101   9.366 -2.0911 -1.6390  0.5461
    4SAPS  C212  459   6.256   7.013   9.182 -0.4339 -0.6219 -0.0566
    4SAPS  H12R  460   6.186   7.082   9.133  1.0491  0.4166 -0.7834
    4SAPS  C213  461   6.335   6.918   9.094 -0.1575 -0.6876 -0.0180
    4SAPS  H13R  462   6.398   6.842   9.145 -0.0458 -1.0200 -0.6394
    4SAPS  H13S  463   6.421   6.973   9.050 -0.5531 -1.7975 -2.2739
    4SAPS  C214  464   6.254   6.848   8.985 -0.8286  0.7939  0.1870
    4SAPS  H14R  465   6.265   6.891   8.884 -0.1704  0.0833 -0.0455
    4SAPS  C215  466   6.201   6.726   8.998  0.4573 -0.3385 -0.3627
    4SAPS  H15R  467   6.155   6.681   8.909 -0.2836 -0.8988  0.2983
    4SAPS  C216  468   6.195   6.630   9.119  0.3082 -0.4113  0.2822
    4SAPS  H16R  469   6.088   6.602   9.133  0.4732 -1.3108 -0.2054
    4SAPS  H16S  470   6.229   6.679   9.213  1.5641 -1.0613  0.1834
    4SAPS  C217  471   6.271   6.498   9.087 -0.0149 -0.3239  0.5255
    4SAPS  H17R  472   6.381   6.508   9.099  0.3896  0.4785 -3.2471
    4SAPS  H17S  473   6.257   6.472   8.979 -0.4755  3.3928 -0.3766
    4SAPS  C218  474   6.229   6.384   9.177 -0.4127  0.3425 -0.3488
    4SAPS  H18R  475   6.281   6.288   9.155 -0.4801  0.0856  0.6197
    4SAPS  H18S  476   6.129   6.347   9.143 -0.3415 -2.3725  2.1970
    4SAPS  C219  477   6.240   6.408   9.331 -0.7115 -0.2358 -0.6341
    4SAPS  H19R  478   6.162   6.483   9.359 -0.4844 -0.2670  0.0839
    4SAPS  H19S  479   6.335   6.454   9.365 -0.6246 -1.1236  0.3624
    4SAPS  C220  480   6.231   6.285   9.416 -1.2194 -0.4931 -0.4530
    4SAPS  H20R  481   6.142   6.223   9.391 -0.3937 -1.7106 -0.4354
    4SAPS  H20S  482   6.231   6.304   9.526  2.4071  2.2367 -0.8551
    4SAPS  H20T  483   6.313   6.216   9.388 -1.0211 -0.2271 -0.5271
    4SAPS   C33  484   5.916   7.230  10.110 -0.4746 -0.0847  0.3968
    4SAPS   H3X  485   5.877   7.317  10.166 -0.5165  0.4246 -0.4098
    4SAPS   H3Y  486   5.864   7.141  10.152  1.4624 -1.2793  0.2907
    4SAPS   C34  487   5.867   7.251   9.960  0.1454  0.2574  0.0825
    4SAPS   H4X  488   5.884   7.357   9.931  1.7656 -0.0466 -0.1609
    4SAPS   H4Y  489   5.758   7.233   9.960  0.2143 -0.2048 -0.8768
    4SAPS   C35  490   5.929   7.158   9.855 -0.1344 -0.3514 -0.3019
    4SAPS   H5X  491   5.897   7.052   9.862 -4.0348  0.7995  0.5856
    4SAPS   H5Y  492   6.039   7.170   9.858 -0.4062  2.6728 -0.4439
    4SAPS   C36  493   5.890   7.203   9.710 -0.3916  0.1715 -0.1026
    4SAPS   H6X  494   5.925   7.307   9.694 -0.9711  0.1806 -1.4336
    4SAPS   H6Y  495   5.780   7.212   9.695 -0.2036  1.0456 -1.0361
    4SAPS   C37  496   5.952   7.120   9.602 -0.4906 -0.1304 -0.0937
    4SAPS   H7X  497   5.921   7.016   9.623 -0.6269  0.2339  1.5437
    4SAPS   H7Y  498   6.063   7.127   9.613 -0.1305  1.3381 -3.7843
    4SAPS   C38  499   5.937   7.150   9.455 -0.0715 -0.0317 -0.4585
    4SAPS   H8X  500   5.977   7.079   9.379  0.2910 -0.7556  0.3960
    4SAPS   H8Y  501   5.979   7.251   9.434 -0.1239 -0.5963 -3.4540
    4SAPS   C39  502   5.789   7.179   9.420  0.1423  0.7655  0.3337
    4SAPS   H9X  503   5.762   7.280   9.459  1.7402  1.3400 -0.0405
    4SAPS   H9Y  504   5.736   7.093   9.465  1.9902  0.2606  1.5694
    4SAPS  C310  505   5.752   7.196   9.269  0.0299  0.0264 -0.8702
    4SAPS  H10X  506   5.806   7.289   9.239  1.8892 -0.3459  1.1850
    4SAPS  H10Y  507   5.644   7.209   9.250 -0.3229 -3.1178 -1.2733
    4SAPS  C311  508   5.787   7.070   9.180 -1.0777  0.1071  0.3651
    4SAPS  H11X  509   5.735   6.981   9.222  0.5785 -1.4814 -0.9001
    4SAPS  H11Y  510   5.896   7.055   9.194 -1.0631 -0.2533 -0.1266
    4SAPS  C312  511   5.763   7.098   9.032  0.0106  0.2481  0.5248
    4SAPS  H12X  512   5.799   7.201   9.012 -2.3484  0.7735 -1.1302
    4SAPS  H12Y  513   5.659   7.080   8.999 -0.1517  0.7863  0.7548
    4SAPS  C313  514   5.841   7.005   8.939 -0.6753  0.0763  0.0921
    4SAPS  H13X  515   5.821   6.900   8.970  1.4835  0.3142  2.4284
    4SAPS  H13Y  516   5.945   7.038   8.960  0.2122 -1.7788 -1.2057
    4SAPS  C314  517   5.796   7.028   8.792  0.5003  0.0599 -0.4868
    4SAPS  H14X  518   5.814   7.137   8.777  1.2946  0.2597  1.6528
    4SAPS  H14Y  519   5.688   7.008   8.782  0.5331  0.2706 -1.2809
    4SAPS  C315  520   5.880   6.960   8.680  0.1482 -0.7189  0.3258
    4SAPS  H15X  521   5.866   6.850   8.680  1.0654 -0.8842  3.4166
    4SAPS  H15Y  522   5.986   6.973   8.708  0.2685  1.6032 -1.0227
    4SAPS  C316  523   5.855   7.023   8.537  0.0210 -0.1311  0.1425
    4SAPS  H16X  524   5.750   7.057   8.528 -0.3879 -1.1639  0.8747
    4SAPS  H16Y  525   5.880   6.946   8.461 -0.9582  1.2226 -1.5954
    4SAPS  C317  526   5.947   7.143   8.505  1.0295  0.5545 -0.4491
    4SAPS  H17X  527   5.973   7.210   8.590  0.7990  0.4102 -0.2667
    4SAPS  H17Y  528   5.895   7.202   8.426 -0.5550  0.4081  0.4446
    4SAPS  C318  529   6.071   7.093   8.434 -0.5013 -0.0257  0.0301
    4SAPS  H18X  530   6.114   6.996   8.471 -0.0317 -1.2850 -3.6702
    4SAPS  H18Y  531   6.149   7.172   8.429  1.5462 -2.0812 -2.1106
    4SAPS  H18Z  532   6.045   7.066   8.330  0.0673 -1.2062  0.1750
    5SAPS     N  533   3.015   5.418  11.023  0.2275  0.3444 -0.2622
    5SAPS   HN1  534   3.079   5.336  11.027  1.8764  1.6361  0.1236
    5SAPS   HN2  535   2.926   5.390  11.069  1.1806 -0.0196  1.3970
    5SAPS   HN3  536   3.000   5.445  10.923  1.2299  0.8301 -0.2856
    5SAPS   C12  537   3.101   5.519  11.087  0.0553  0.4008  0.0512
    5SAPS  H12A  538   3.055   5.553  11.179  0.8206  1.0412  0.1951
    5SAPS   C13  539   3.234   5.468  11.131  0.7736 -0.1168 -0.7661
    5SAPS  O13A  540   3.257   5.347  11.133 -0.2686  0.2785  0.4374
    5SAPS  O13B  541   3.321   5.555  11.159  0.5841  0.3651 -0.3752
    5SAPS   C11  542   3.113   5.641  11.002  0.4882 -0.4437 -0.2156
    5SAPS  H11A  543   3.166   5.607  10.910  0.2547 -0.9483 -0.1651
    5SAPS  H11B  544   3.172   5.717  11.058 -1.7959  0.6668  0.7565
    5SAPS     P  545   2.954   5.818  10.880 -0.1036  0.1241 -0.0710
    5SAPS   O13  546   2.819   5.802  10.812 -0.2547  0.2033 -0.0851
    5SAPS   O14  547   2.976   5.941  10.954 -0.0889 -0.4660  0.1937
    5SAPS   O12  548   2.982   5.703  10.985  0.3084  0.4711  0.5798
    5SAPS   O11  549   3.072   5.785  10.776  0.0918 -0.2197 -0.2963
    5SAPS    C1  550   3.192   5.869  10.782  0.2911  0.1902  0.7214
    5SAPS    HA  551   3.174   5.972  10.817 -1.6831  0.3176 -0.5901
    5SAPS    HB  552   3.261   5.822  10.855  0.1131  2.2194  2.2288
    5SAPS    C2  553   3.261   5.864  10.640  0.1025 -0.8585  0.2729
    5SAPS    HS  554   3.352   5.928  10.644 -1.0606  0.7901  0.5496
    5SAPS   O21  555   3.175   5.913  10.533 -0.0853  0.6459 -0.3955
    5SAPS   C21  556   3.129   6.035  10.541 -0.6989  0.6548  0.0021
    5SAPS   O22  557   3.174   6.120  10.614 -0.3761 -0.3081  0.4684
    5SAPS   C22  558   3.014   6.049  10.435  0.2346 -0.1654 -0.5865
    5SAPS   H2R  559   3.027   6.153  10.400 -1.2585  0.1218 -0.3151
    5SAPS   H2S  560   3.055   5.989  10.351  0.0267 -2.2755  0.7647
    5SAPS    C3  561   3.330   5.731  10.601  1.0499 -0.3247  0.5790
    5SAPS    HX  562   3.265   5.644  10.625 -0.6710 -0.1938 -3.1904
    5SAPS    HY  563   3.425   5.719  10.658  1.8363 -0.4157 -0.7278
    5SAPS   O31  564   3.364   5.724  10.460  0.0930 -0.6379 -0.2291
    5SAPS   C31  565   3.270   5.675  10.372 -0.7604  0.0716  0.1626
    5SAPS   O32  566   3.175   5.600  10.403  0.3270  0.4887 -0.0780
    5SAPS   C32  567   3.303   5.727  10.235  0.2231  0.3799 -0.2731
    5SAPS   H2X  568   3.398   5.676  10.208 -0.0015  0.2304 -0.7919
    5SAPS   H2Y  569   3.306   5.837  10.249  3.7176  0.2062  0.8368
    5SAPS   C23  570   2.883   6.003  10.494  0.3347 -0.3028  0.3648
    5SAPS   H3R  571   2.835   6.068  10.569  0.9221  2.4218 -1.5377
    5SAPS   H3S  572   2.902   5.903  10.538  0.5971  0.0875  1.1452
    5SAPS   C24  573   2.765   5.968  10.391 -0.6951 -0.3703 -0.0567
    5SAPS   H4R  574   2.687   5.906  10.440  1.7929 -1.9506  2.0800
    5SAPS   H4S  575   2.800   5.894  10.317 -1.0678  0.2186 -0.8239
    5SAPS   C25  576   2.698   6.098  10.336  0.2526  0.7826 -0.5795
    5SAPS   H5R  577   2.670   6.165  10.418  0.6646  0.2531  0.0001
    5SAPS   C26  578   2.683   6.121  10.202 -0.9410  0.4840  0.6572
    5SAPS   H6R  579   2.641   6.214  10.161 -0.3746  0.3491 -0.2266
    5SAPS   C27  580   2.723   6.020  10.095  0.0604 -0.1663 -0.1564
    5SAPS   H7R  581   2.645   5.941  10.092 -0.1174  0.0039 -0.0129
    5SAPS   H7S  582   2.809   5.953  10.115  0.0703 -0.4219 -1.0157
    5SAPS   C28  583   2.736   6.088   9.960  0.3268  0.4277  0.1431
    5SAPS   H8R  584   2.668   6.173   9.940  0.9723  1.1719  1.0711
    5SAPS   C29  585   2.828   6.048   9.870  0.6137  0.8447 -0.4469
    5SAPS   H9R  586   2.816   6.094   9.771  0.4196 -0.5622 -1.0849
    5SAPS  C210  587   2.926   5.928   9.887  0.4756  0.4204 -0.6093
    5SAPS  H10R  588   2.881   5.856   9.959 -1.1352  1.9866 -0.0370
    5SAPS  H10S  589   3.022   5.960   9.933 -0.1669 -0.4578  1.4047
    5SAPS  C211  590   2.944   5.853   9.751 -0.7322 -0.6153 -0.4244
    5SAPS  H11R  591   2.868   5.774   9.739 -2.3571  1.0119 -1.2325
    5SAPS  C212  592   3.024   5.883   9.646  0.8321 -0.3331  0.0598
    5SAPS  H12R  593   3.021   5.815   9.560 -2.2755  1.0674 -1.0196
    5SAPS  C213  594   3.121   5.998   9.646 -0.0196 -0.1635 -0.3168
    5SAPS  H13R  595   3.147   6.025   9.751 -1.3296  0.5214 -0.1653
    5SAPS  H13S  596   3.082   6.096   9.611  1.5405  1.2531  1.7984
    5SAPS  C214  597   3.254   5.965   9.571 -0.1544 -0.8325  0.8774
    5SAPS  H14R  598   3.290   5.861   9.572  0.5509 -0.6278 -0.8038
    5SAPS  C215  599   3.310   6.043   9.477  0.7071  0.2152 -0.7298
    5SAPS  H15R  600   3.404   6.008   9.431  0.3321 -0.2988 -1.1162
    5SAPS  C216  601   3.281   6.185   9.436 -0.5142  0.1877 -0.0856
    5SAPS  H16R  602   3.360   6.236   9.495 -1.1590 -1.0045  1.8311
    5SAPS  H16S  603   3.186   6.239   9.459  1.2956  2.7438  1.7040
    5SAPS  C217  604   3.291   6.192   9.281 -0.0940 -0.6841  0.3113
    5SAPS  H17R  605   3.205   6.128   9.256  0.8304 -2.0150  0.4909
    5SAPS  H17S  606   3.378   6.141   9.234  0.4231  0.5798 -0.1488
    5SAPS  C218  607   3.260   6.334   9.231  0.0967  0.1580 -0.9442
    5SAPS  H18R  608   3.188   6.387   9.296 -0.5603  0.0437 -1.5721
    5SAPS  H18S  609   3.351   6.394   9.251  0.6114 -1.4390  1.8384
    5SAPS  C219  610   3.226   6.332   9.079 -0.1374 -0.5298  0.3248
    5SAPS  H19R  611   3.319   6.295   9.032 -2.0685 -2.4384 -2.1143
    5SAPS  H19S  612   3.205   6.433   9.037  2.2765 -0.5707 -1.1103
    5SAPS  C220  613   3.113   6.236   9.043 -0.7962 -0.4433 -0.5581
    5SAPS  H20R  614   3.071   6.257   8.943 -0.8692 -0.8197 -0.6084
    5SAPS  H20S  615   3.033   6.259   9.117  0.4660  0.6392  0.5202
    5SAPS  H20T  616   3.150   6.132   9.057 -1.8922 -0.9488 -1.4139
    5SAPS   C33  617   3.202   5.680  10.127  0.4555 -0.1126 -0.0024
    5SAPS   H3X  618   3.109   5.736  10.149 -0.2420 -0.9200 -0.8607
    5SAPS   H3Y  619   3.176   5.573  10.142  2.7244 -0.4613  1.5792
    5SAPS   C34  620   3.242   5.714   9.980 -0.2205 -0.0424 -0.7790
    5SAPS   H4X  621   3.266   5.822   9.974  0.1827 -0.0584  0.4559
    5SAPS   H4Y  622   3.151   5.704   9.917 -0.2144  0.5222 -0.8764
    5SAPS   C35  623   3.346   5.633   9.912 -0.8232 -0.7047  0.1106
    5SAPS   H5X  624   3.305   5.530   9.901  0.9846 -1.2120 -2.4771
    5SAPS   H5Y  625   3.444   5.637   9.965 -0.0863 -1.7233 -1.1260
    5SAPS   C36  626   3.370   5.684   9.769  0.0240  0.4567 -0.3637
    5SAPS   H6X  627   3.433   5.774   9.786 -2.2981  2.3856 -1.7251
    5SAPS   H6Y  628   3.271   5.719   9.732  0.2593 -1.2391 -2.7098
    5SAPS   C37  629   3.448   5.581   9.682 -0.1140  0.2905  1.0371
    5SAPS   H7X  630   3.393   5.485   9.694 -0.5834  0.5401  0.9169
    5SAPS   H7Y  631   3.551   5.563   9.720  0.4584 -2.1136 -1.5553
    5SAPS   C38  632   3.452   5.601   9.526 -0.3954  0.2996 -0.4100
    5SAPS   H8X  633   3.473   5.708   9.511  0.7345 -0.1795 -2.3562
    5SAPS   H8Y  634   3.349   5.581   9.489 -1.9030  1.7976  2.7446
    5SAPS   C39  635   3.552   5.511   9.455 -0.0491 -0.3061  0.0530
    5SAPS   H9X  636   3.527   5.404   9.471  0.6096 -0.7842 -2.0381
    5SAPS   H9Y  637   3.652   5.521   9.503  0.8965  1.0760 -2.1359
    5SAPS  C310  638   3.559   5.548   9.303 -0.4270  0.3505  0.4317
    5SAPS  H10X  639   3.573   5.658   9.296 -2.6511  0.6361 -0.1325
    5SAPS  H10Y  640   3.458   5.523   9.262 -0.3438  3.0280 -1.5165
    5SAPS  C311  641   3.668   5.478   9.220  0.5850 -0.0554 -0.7970
    5SAPS  H11X  642   3.653   5.368   9.229 -1.6674  0.4052  1.5627
    5SAPS  H11Y  643   3.760   5.507   9.276 -2.0967  2.0464  2.7388
    5SAPS  C312  644   3.672   5.513   9.076 -0.3547  0.2107 -0.1372
    5SAPS  H12X  645   3.766   5.487   9.022  0.2445 -1.0862  1.4742
    5SAPS  H12Y  646   3.657   5.622   9.058  0.0339 -0.0027 -1.8529
    5SAPS  C313  647   3.567   5.445   8.986 -0.8186 -0.4466  0.2916
    5SAPS  H13X  648   3.464   5.450   9.027 -0.8607 -2.5550  0.5001
    5SAPS  H13Y  649   3.588   5.336   8.976 -2.6348 -0.6575 -1.5820
    5SAPS  C314  650   3.554   5.505   8.842 -0.2173  0.2527 -0.2861
    5SAPS  H14X  651   3.656   5.504   8.797 -0.0920  3.2574 -0.1631
    5SAPS  H14Y  652   3.527   5.611   8.857  1.0803  0.7126 -1.1306
    5SAPS  C315  653   3.450   5.424   8.755  0.1756 -0.2471  0.1335
    5SAPS  H15X  654   3.483   5.319   8.777  1.9767  0.7418  2.4805
    5SAPS  H15Y  655   3.464   5.434   8.646  1.1060 -0.5281  0.2213
    5SAPS  C316  656   3.306   5.452   8.793  0.1699 -0.1700 -0.9606
    5SAPS  H16X  657   3.288   5.562   8.786  0.7956 -0.1592 -2.7098
    5SAPS  H16Y  658   3.298   5.417   8.898 -1.0652  0.9152 -0.6820
    5SAPS  C317  659   3.204   5.387   8.695 -0.1430  0.3180  0.3182
    5SAPS  H17X  660   3.240   5.287   8.664 -2.2334 -0.3587  0.0254
    5SAPS  H17Y  661   3.206   5.452   8.604 -2.0076  2.7124  1.9112
    5SAPS  C318  662   3.059   5.393   8.739  0.3875 -0.6289 -0.0496
    5SAPS  H18X  663   3.013   5.489   8.772 -3.6907 -2.6167  0.2371
    5SAPS  H18Y  664   3.029   5.320   8.817 -1.2799 -0.3931 -0.4694
    5SAPS  H18Z  665   2.994   5.365   8.654 -0.4937 -1.1692  0.7975
    6SAPS     N  666   3.032   4.732  10.986  0.4040 -0.4065 -0.1939
    6SAPS   HN1  667   3.129   4.733  10.949  0.3089  0.3547 -0.4193
    6SAPS   HN2  668   3.023   4.703  11.086 -1.4972  2.8936  0.6770
    6SAPS   HN3  669   2.967   4.662  10.947  0.0057 -0.0217 -0.2224
    6SAPS   C12  670   2.978   4.868  10.962 -0.0905 -0.7519 -0.7855
    6SAPS  H12A  671   2.903   4.889  11.037  0.7309 -0.7468  0.0471
    6SAPS   C13  672   3.094   4.977  10.979  0.3723  0.5468 -0.0713
    6SAPS  O13A  673   3.204   4.937  11.022  0.0420  0.5544  1.1620
    6SAPS  O13B  674   3.062   5.101  10.990 -0.2216 -0.5619 -0.9298
    6SAPS   C11  675   2.924   4.871  10.821 -0.2886 -0.8645 -0.1694
    6SAPS  H11A  676   2.998   4.832  10.747 -0.7723 -0.5712 -0.8098
    6SAPS  H11B  677   2.897   4.975  10.794 -2.5602 -1.2888  0.3648
    6SAPS     P  678   2.683   4.817  10.723 -0.1369 -0.4561  0.5973
    6SAPS   O13  679   2.585   4.713  10.734 -0.1995 -0.3079  0.0578
    6SAPS   O14  680   2.646   4.952  10.761  0.2704 -0.0283  0.3609
    6SAPS   O12  681   2.812   4.780  10.816 -0.2745 -0.3187  0.4697
    6SAPS   O11  682   2.745   4.812  10.575 -0.1684  0.0726 -0.0447
    6SAPS    C1  683   2.842   4.716  10.536 -0.1534 -0.1881 -0.2869
    6SAPS    HA  684   2.938   4.769  10.519 -0.0919  0.3879  1.7026
    6SAPS    HB  685   2.864   4.646  10.620 -0.1882 -0.2071 -0.2925
    6SAPS    C2  686   2.790   4.639  10.418  0.4794 -0.0390  0.0468
    6SAPS    HS  687   2.868   4.579  10.367  0.0028 -2.8575  2.4756
    6SAPS   O21  688   2.734   4.726  10.320  0.3223  0.0960 -0.4241
    6SAPS   C21  689   2.819   4.785  10.251 -0.0070  0.0596  0.3610
    6SAPS   O22  690   2.940   4.762  10.251  0.5941  1.0354  0.4622
    6SAPS   C22  691   2.753   4.886  10.160  0.0870 -0.4493 -0.1665
    6SAPS   H2R  692   2.700   4.954  10.231  1.8524 -0.4919  1.2155
    6SAPS   H2S  693   2.832   4.949  10.115 -0.5390  1.5822  1.4707
    6SAPS    C3  694   2.684   4.535  10.470  0.2724 -0.5440 -0.1762
    6SAPS    HX  695   2.609   4.593  10.528 -0.8629 -1.7646 -0.4216
    6SAPS    HY  696   2.723   4.464  10.547  0.4240 -2.4818 -2.0029
    6SAPS   O31  697   2.620   4.457  10.360 -0.0518  0.0830  0.0065
    6SAPS   C31  698   2.535   4.370  10.409 -0.2412  0.4623  0.9857
    6SAPS   O32  699   2.521   4.337  10.527  0.9579 -0.3043 -0.1185
    6SAPS   C32  700   2.477   4.297  10.288 -0.5823 -0.0916 -0.1859
    6SAPS   H2X  701   2.516   4.348  10.197  0.9813  1.1610  1.1566
    6SAPS   H2Y  702   2.366   4.304  10.288 -0.6926 -0.4566  4.6653
    6SAPS   C23  703   2.658   4.830  10.052  0.2292 -0.8610 -0.6122
    6SAPS   H3R  704   2.626   4.923  10.000  0.3558 -0.4670  0.0096
    6SAPS   H3S  705   2.559   4.796  10.088  0.0967  0.0946 -0.0630
    6SAPS   C24  706   2.730   4.746   9.947 -0.5661  0.5828 -0.0448
    6SAPS   H4R  707   2.653   4.703   9.879 -1.8618  0.8024  1.2491
    6SAPS   H4S  708   2.768   4.655   9.999  0.6665  0.2917 -1.4555
    6SAPS   C25  709   2.837   4.816   9.873  0.2798 -0.1455 -0.4357
    6SAPS   H5R  710   2.932   4.798   9.925 -0.8662 -0.1924  1.7086
    6SAPS   C26  711   2.820   4.899   9.770  0.2832  0.2528 -0.0265
    6SAPS   H6R  712   2.911   4.939   9.723  0.2789  0.5426  0.2064
    6SAPS   C27  713   2.688   4.948   9.696 -0.0580 -0.6991  0.2212
    6SAPS   H7R  714   2.614   4.994   9.765 -0.1107 -2.1209  1.1235
    6SAPS   H7S  715   2.644   4.870   9.631  0.4810 -1.5107  0.8268
    6SAPS   C28  716   2.710   5.072   9.609  0.4918 -0.1177  0.3674
    6SAPS   H8R  717   2.657   5.163   9.641 -2.5019 -1.8961  0.5981
    6SAPS   C29  718   2.801   5.090   9.509 -0.1584  1.0142  0.6350
    6SAPS   H9R  719   2.789   5.176   9.442  0.6296  0.9764  0.4365
    6SAPS  C210  720   2.896   4.993   9.443 -0.5698  0.0623 -0.7225
    6SAPS  H10R  721   2.933   4.923   9.520  2.4558  0.9662 -1.2768
    6SAPS  H10S  722   2.987   5.049   9.414 -0.9110  1.8336  1.4944
    6SAPS  C211  723   2.844   4.911   9.328  0.0480  0.2901  0.5275
    6SAPS  H11R  724   2.802   4.812   9.351  1.8618 -0.4670  0.6608
    6SAPS  C212  725   2.855   4.950   9.198 -0.3086 -0.3065 -0.7988
    6SAPS  H12R  726   2.807   4.889   9.119 -0.5679 -0.6160 -0.4087
    6SAPS  C213  727   2.916   5.079   9.145  0.2409 -0.1836  0.9935
    6SAPS  H13R  728   3.025   5.073   9.167  1.1848  3.2243 -2.1140
    6SAPS  H13S  729   2.874   5.170   9.194  0.3917  0.7644 -0.5776
    6SAPS  C214  730   2.905   5.105   8.996  0.2653  0.4504 -0.2957
    6SAPS  H14R  731   2.985   5.054   8.941  1.7524  1.5086  0.8588
    6SAPS  C215  732   2.812   5.177   8.934  0.3785 -0.0080 -0.0598
    6SAPS  H15R  733   2.813   5.193   8.825 -0.2499 -0.5075 -0.1462
    6SAPS  C216  734   2.692   5.244   8.995 -0.4198 -0.6627 -0.8048
    6SAPS  H16R  735   2.722   5.291   9.091  0.3354 -0.0438 -1.3350
    6SAPS  H16S  736   2.621   5.168   9.035  2.1019 -1.7391  1.8607
    6SAPS  C217  737   2.596   5.338   8.918 -0.0957  0.2641 -0.5684
    6SAPS  H17R  738   2.512   5.372   8.981  0.1550  0.7113 -0.4748
    6SAPS  H17S  739   2.570   5.272   8.832 -1.2819  1.1151 -0.8759
    6SAPS  C218  740   2.669   5.458   8.864  0.1053 -0.6043  0.1188
    6SAPS  H18R  741   2.767   5.427   8.824 -0.0235 -0.3979 -0.3620
    6SAPS  H18S  742   2.693   5.528   8.947 -1.3231 -0.0771  0.1119
    6SAPS  C219  743   2.588   5.523   8.751  0.5468 -0.3916 -0.5870
    6SAPS  H19R  744   2.609   5.631   8.760  0.1349 -0.4457  1.4445
    6SAPS  H19S  745   2.480   5.503   8.769  0.4305  0.1776 -0.6596
    6SAPS  C220  746   2.642   5.471   8.616  0.4322  0.3209 -0.1801
    6SAPS  H20R  747   2.750   5.496   8.622 -0.0162  2.2087  0.2477
    6SAPS  H20S  748   2.599   5.516   8.524 -0.0914  0.4611  0.1327
    6SAPS  H20T  749   2.647   5.360   8.617  0.5530  0.2881  3.9328
    6SAPS   C33  750   2.516   4.147  10.293 -0.6993  0.3066 -0.0513
    6SAPS   H3X  751   2.480   4.094  10.383 -0.3444  1.6947  0.9254
    6SAPS   H3Y  752   2.625   4.130  10.279 -0.6761  1.0551 -0.8559
    6SAPS   C34  753   2.443   4.081  10.171 -0.2655 -0.9088 -0.5491
    6SAPS   H4X  754   2.341   4.123  10.158  0.5612  0.4243 -3.1384
    6SAPS   H4Y  755   2.427   3.973  10.191  0.3578 -1.0500 -0.7986
    6SAPS   C35  756   2.503   4.109  10.028 -0.4627  0.2868 -0.7884
    6SAPS   H5X  757   2.514   4.218  10.011  2.3291  0.6461  2.6076
    6SAPS   H5Y  758   2.427   4.077   9.954  1.0436  2.0683 -3.1685
    6SAPS   C36  759   2.634   4.026  10.019  0.1734 -0.4525  0.4544
    6SAPS   H6X  760   2.610   3.923  10.052  0.9351 -0.6597  0.3627
    6SAPS   H6Y  761   2.712   4.058  10.092  0.9748 -1.4427  0.0447
    6SAPS   C37  762   2.693   4.027   9.879  0.4372 -1.0962  0.1734
    6SAPS   H7X  763   2.792   3.976   9.880  1.0723  0.0580 -1.4084
    6SAPS   H7Y  764   2.712   4.136   9.872  1.4394 -1.2214  0.8830
    6SAPS   C38  765   2.605   3.970   9.763  0.3174 -0.0138 -0.1614
    6SAPS   H8X  766   2.505   4.019   9.751  0.3728  0.0252 -0.4820
    6SAPS   H8Y  767   2.581   3.863   9.780 -0.1787  0.0504 -0.4490
    6SAPS   C39  768   2.676   3.995   9.633  0.1804 -0.1094  1.0807
    6SAPS   H9X  769   2.780   3.956   9.632 -0.1203 -0.8839 -0.1078
    6SAPS   H9Y  770   2.684   4.106   9.623 -0.3252 -0.1762 -0.1181
    6SAPS  C310  771   2.602   3.918   9.518  0.6104 -0.0406  0.2016
    6SAPS  H10X  772   2.500   3.959   9.508  0.3442 -0.4629  1.0839
    6SAPS  H10Y  773   2.590   3.811   9.546  0.2634  0.4386  1.9133
    6SAPS  C311  774   2.669   3.940   9.381  0.4290 -0.8350 -0.1150
    6SAPS  H11X  775   2.766   3.886   9.372  0.6886 -0.3126 -0.4424
    6SAPS  H11Y  776   2.684   4.047   9.358  0.9404 -0.5162  1.5975
    6SAPS  C312  777   2.573   3.888   9.269  0.2713 -0.2851  0.7472
    6SAPS  H12X  778   2.474   3.933   9.291  1.3561  2.2488  0.5460
    6SAPS  H12Y  779   2.568   3.777   9.270 -0.6434 -0.3539 -2.7006
    6SAPS  C313  780   2.625   3.931   9.126 -0.8679  0.1508 -0.1674
    6SAPS  H13X  781   2.715   3.868   9.109 -0.4626  0.7776 -0.3458
    6SAPS  H13Y  782   2.671   4.032   9.121 -2.0906  0.8379  1.9691
    6SAPS  C314  783   2.524   3.902   9.017  0.1770  0.3329  0.0054
    6SAPS  H14X  784   2.428   3.949   9.050  0.1450  1.3685 -1.4899
    6SAPS  H14Y  785   2.504   3.793   9.010  0.6853  0.3170 -1.5262
    6SAPS  C315  786   2.575   3.947   8.880 -1.1424  0.5155  0.4613
    6SAPS  H15X  787   2.611   4.052   8.878  1.3667 -0.3323 -0.6474
    6SAPS  H15Y  788   2.488   3.944   8.811  1.1503 -0.9193 -2.4564
    6SAPS  C316  789   2.691   3.861   8.826 -0.2006 -0.0384  0.1948
    6SAPS  H16X  790   2.784   3.867   8.887 -0.3898  4.5734  0.1739
    6SAPS  H16Y  791   2.722   3.910   8.731 -1.1581 -0.4071 -0.3192
    6SAPS  C317  792   2.654   3.716   8.805 -0.6300 -0.3304 -0.1705
    6SAPS  H17X  793   2.616   3.666   8.897 -0.8472  0.2114  0.0380
    6SAPS  H17Y  794   2.743   3.662   8.765  2.3979  2.3547  2.6000
    6SAPS  C318  795   2.557   3.699   8.692 -0.2815 -0.1057  0.5199
    6SAPS  H18X  796   2.548   3.590   8.669 -1.4845  0.2999 -0.9919
    6SAPS  H18Y  797   2.585   3.730   8.589 -1.3249 -1.4610 -0.1904
    6SAPS  H18Z  798   2.456   3.740   8.713 -1.5889 -3.2375  0.7332
    7SAPS     N  799   5.036   6.589  10.715 -0.9352 -0.3291 -0.4258
    7SAPS   HN1  800   5.134   6.621  10.726 -1.4177  1.7201 -1.7618
    7SAPS   HN2  801   5.017   6.562  10.616  0.1661  2.3649 -1.4225
    7SAPS   HN3  802   4.965   6.665  10.725  0.0979  0.7661 -1.2085
    7SAPS   C12  803   5.023   6.475  10.814 -0.2391  0.1078  0.0576
    7SAPS  H12A  804   5.084   6.393  10.777 -0.8103 -1.3192  2.1548
    7SAPS   C13  805   5.083   6.512  10.951  0.6396 -0.7930 -0.0085
    7SAPS  O13A  806   5.128   6.629  10.980  0.3835  0.4906  0.1114
    7SAPS  O13B  807   5.097   6.412  11.029  0.3496  0.2731  0.0402
    7SAPS   C11  808   4.874   6.434  10.834  0.3704  0.1832 -0.1633
    7SAPS  H11A  809   4.825   6.523  10.879 -0.0987  0.2165 -0.7342
    7SAPS  H11B  810   4.851   6.357  10.911 -0.4710  0.7973  0.2008
    7SAPS     P  811   4.753   6.253  10.684  0.2820  0.4910  0.3342
    7SAPS   O13  812   4.769   6.167  10.807  1.0018  0.0946 -0.8660
    7SAPS   O14  813   4.615   6.271  10.636 -0.6091 -0.5487 -0.8400
    7SAPS   O12  814   4.820   6.399  10.706  0.2394 -0.0740 -0.1748
    7SAPS   O11  815   4.832   6.181  10.568  0.2626  0.2603  0.4397
    7SAPS    C1  816   4.902   6.255  10.466  0.0311  0.3105  0.3800
    7SAPS    HA  817   4.975   6.325  10.511  2.6066 -1.0456 -1.5336
    7SAPS    HB  818   4.968   6.183  10.414 -1.8537 -1.9263  0.9821
    7SAPS    C2  819   4.798   6.314  10.364  0.2723 -0.3604  0.7068
    7SAPS    HS  820   4.741   6.386  10.426  1.9077  1.7057 -0.1174
    7SAPS   O21  821   4.718   6.201  10.313  0.3714 -0.6971  0.4865
    7SAPS   C21  822   4.594   6.242  10.284 -0.2544  0.3002 -0.1041
    7SAPS   O22  823   4.550   6.351  10.290 -0.4229  0.5309  1.5520
    7SAPS   C22  824   4.507   6.128  10.268  0.4503 -0.5115 -0.4392
    7SAPS   H2R  825   4.471   6.094  10.368  1.2251 -1.3331 -0.4302
    7SAPS   H2S  826   4.413   6.178  10.237  0.1729  0.4413  1.8445
    7SAPS    C3  827   4.866   6.377  10.239 -0.4421  0.3029  0.1869
    7SAPS    HX  828   4.923   6.296  10.190 -0.4085 -0.4909  1.5196
    7SAPS    HY  829   4.947   6.442  10.279 -0.8857  0.5224  0.7449
    7SAPS   O31  830   4.780   6.445  10.145 -0.7760 -0.5261 -0.2977
    7SAPS   C31  831   4.730   6.556  10.195  0.3853 -0.0054  0.4740
    7SAPS   O32  832   4.752   6.604  10.305  0.1631  0.4048 -0.7269
    7SAPS   C32  833   4.630   6.607  10.092 -0.8015 -0.4318  0.1435
    7SAPS   H2X  834   4.530   6.629  10.135 -1.2986 -1.5109 -0.4424
    7SAPS   H2Y  835   4.600   6.522  10.027  2.4712 -1.6419  0.1362
    7SAPS   C23  836   4.542   6.028  10.155 -0.1164 -0.4034  0.2748
    7SAPS   H3R  837   4.517   5.924  10.184 -0.4546 -0.7665 -1.2743
    7SAPS   H3S  838   4.652   6.029  10.140 -0.3804  0.0544 -1.8943
    7SAPS   C24  839   4.479   6.055  10.016 -0.9067  0.2311  0.5763
    7SAPS   H4R  840   4.369   6.058  10.024 -0.8662  1.6388  0.7683
    7SAPS   H4S  841   4.504   5.958   9.968 -0.5875  0.1854  0.8279
    7SAPS   C25  842   4.547   6.166   9.941  0.4485 -0.5662 -0.4727
    7SAPS   H5R  843   4.650   6.146   9.909 -0.2627 -1.9385 -2.0131
    7SAPS   C26  844   4.494   6.280   9.908 -0.8709  0.0944 -0.2847
    7SAPS   H6R  845   4.561   6.357   9.866 -1.1709 -0.6468 -2.2060
    7SAPS   C27  846   4.354   6.316   9.938  0.7262 -0.0968  0.7358
    7SAPS   H7R  847   4.349   6.424   9.964 -2.6217 -0.5148  2.1102
    7SAPS   H7S  848   4.331   6.280  10.041 -3.0950 -1.4138 -0.4749
    7SAPS   C28  849   4.241   6.256   9.851  0.6948 -0.2984  0.6547
    7SAPS   H8R  850   4.247   6.146   9.846 -0.0231 -0.3124  0.0575
    7SAPS   C29  851   4.152   6.313   9.771 -0.3021  0.2827 -0.0187
    7SAPS   H9R  852   4.071   6.250   9.731 -0.5028  0.4201  0.1708
    7SAPS  C210  853   4.169   6.454   9.731 -0.0076 -0.4058  0.2032
    7SAPS  H10R  854   4.177   6.519   9.821  3.4354  0.9227 -0.9478
    7SAPS  H10S  855   4.075   6.488   9.683  0.1920  0.0167  0.1027
    7SAPS  C211  856   4.292   6.486   9.645 -0.0351  0.1816  0.1500
    7SAPS  H11R  857   4.391   6.479   9.693  1.2204  0.9468 -2.1854
    7SAPS  C212  858   4.290   6.544   9.523  0.1732  0.5113  0.6656
    7SAPS  H12R  859   4.387   6.567   9.476  0.3080 -1.0593  0.1332
    7SAPS  C213  860   4.174   6.589   9.436 -0.9014  0.2741  0.0855
    7SAPS  H13R  861   4.208   6.659   9.356 -0.5594  2.1440  1.8106
    7SAPS  H13S  862   4.109   6.656   9.496 -2.9295 -1.2031 -0.3968
    7SAPS  C214  863   4.086   6.491   9.362  0.1775  0.3239  0.3717
    7SAPS  H14R  864   4.066   6.403   9.426  0.0588  1.4555  1.9171
    7SAPS  C215  865   4.035   6.501   9.240 -0.5837  0.2585  0.7196
    7SAPS  H15R  866   3.971   6.421   9.200  1.8837 -0.1645 -2.6620
    7SAPS  C216  867   4.060   6.615   9.141 -0.0684 -0.5833 -0.4188
    7SAPS  H16R  868   4.065   6.706   9.204  0.6014 -0.6016 -0.4473
    7SAPS  H16S  869   3.972   6.613   9.073 -1.5324 -0.3541  1.4204
    7SAPS  C217  870   4.200   6.629   9.065  0.0408 -0.0171  0.5385
    7SAPS  H17R  871   4.272   6.613   9.147  1.3271  1.5020 -0.2666
    7SAPS  H17S  872   4.207   6.729   9.017 -1.4450 -0.6965 -1.1700
    7SAPS  C218  873   4.229   6.531   8.952  0.7409  0.1457  0.0571
    7SAPS  H18R  874   4.229   6.432   9.002 -2.2861  0.1005  0.0425
    7SAPS  H18S  875   4.333   6.561   8.925 -0.0301  1.1789 -1.8434
    7SAPS  C219  876   4.140   6.540   8.824 -0.3357 -0.1573  0.8719
    7SAPS  H19R  877   4.042   6.494   8.844 -0.9174  1.4318  1.7689
    7SAPS  H19S  878   4.194   6.470   8.757 -3.5886 -2.9137  1.0676
    7SAPS  C220  879   4.137   6.685   8.761  0.0377  0.0971  0.1194
    7SAPS  H20R  880   4.086   6.690   8.662 -0.7772 -1.2251  0.4669
    7SAPS  H20S  881   4.240   6.728   8.749 -0.8947  1.8869 -1.9943
    7SAPS  H20T  882   4.090   6.761   8.826  0.8066 -0.4046  1.2768
    7SAPS   C33  883   4.681   6.723   9.997  0.3684  1.1046  0.2609
    7SAPS   H3X  884   4.778   6.771  10.022 -0.5820  3.1792  0.0507
    7SAPS   H3Y  885   4.606   6.805   9.995 -4.0811 -2.7783 -2.6334
    7SAPS   C34  886   4.686   6.679   9.852 -0.3870 -0.0327  0.0837
    7SAPS   H4X  887   4.581   6.651   9.831  0.5351 -0.6766 -4.0934
    7SAPS   H4Y  888   4.758   6.594   9.856  0.8208  0.9849  0.7975
    7SAPS   C35  889   4.741   6.780   9.754  0.0088  0.1019 -0.0907
    7SAPS   H5X  890   4.836   6.815   9.802  0.4685 -1.6088  0.2886
    7SAPS   H5Y  891   4.669   6.863   9.743 -2.1540 -1.7762 -0.5258
    7SAPS   C36  892   4.775   6.714   9.620 -0.1731 -0.7563  0.2200
    7SAPS   H6X  893   4.850   6.632   9.633  1.1164  0.3548 -0.0944
    7SAPS   H6Y  894   4.832   6.794   9.568 -0.6589 -0.8660 -0.4753
    7SAPS   C37  895   4.654   6.661   9.535  0.2176 -0.0529  0.0340
    7SAPS   H7X  896   4.594   6.747   9.499  0.4708  0.6287  1.2231
    7SAPS   H7Y  897   4.600   6.579   9.588 -0.3663 -0.7591 -1.6341
    7SAPS   C38  898   4.713   6.609   9.396  0.4160 -0.0658 -0.5090
    7SAPS   H8X  899   4.630   6.577   9.329 -0.7989  3.0065 -0.5502
    7SAPS   H8Y  900   4.786   6.528   9.416  0.5287  0.2311  0.3146
    7SAPS   C39  901   4.801   6.716   9.328 -0.1894 -0.3136  0.3876
    7SAPS   H9X  902   4.897   6.727   9.382 -0.1854  2.1202 -0.0458
    7SAPS   H9Y  903   4.734   6.805   9.325 -0.6603 -0.6184  1.4518
    7SAPS  C310  904   4.826   6.696   9.174 -0.3702 -0.1746  0.8191
    7SAPS  H10X  905   4.739   6.670   9.111  0.1524  0.1380 -0.0367
    7SAPS  H10Y  906   4.898   6.613   9.155  1.2481  1.8793 -2.4737
    7SAPS  C311  907   4.872   6.829   9.111  0.5435 -0.1534  0.1874
    7SAPS  H11X  908   4.975   6.841   9.151  1.0977 -2.1813 -0.5654
    7SAPS  H11Y  909   4.822   6.918   9.153  1.9416  0.9970 -0.5424
    7SAPS  C312  910   4.850   6.823   8.961  0.1361 -0.5109 -0.4532
    7SAPS  H12X  911   4.741   6.808   8.942 -0.0458  0.6921 -0.4235
    7SAPS  H12Y  912   4.899   6.730   8.928  2.4808  1.4674 -2.7505
    7SAPS  C313  913   4.906   6.942   8.887 -0.0601 -0.3382  0.4608
    7SAPS  H13X  914   5.015   6.923   8.880  0.0630  0.5259 -0.0661
    7SAPS  H13Y  915   4.900   7.037   8.945  2.4440  0.4520 -0.5033
    7SAPS  C314  916   4.849   6.971   8.749 -0.4231 -0.7831  0.1380
    7SAPS  H14X  917   4.740   6.987   8.763 -0.4815 -1.2394  0.2099
    7SAPS  H14Y  918   4.854   6.882   8.684 -0.2539 -1.2111  0.7266
    7SAPS  C315  919   4.913   7.091   8.673 -0.1296  0.5150  0.3179
    7SAPS  H15X  920   5.009   7.042   8.646 -0.1681 -1.0816  2.9979
    7SAPS  H15Y  921   4.933   7.175   8.743 -0.0438 -0.7977  1.8655
    7SAPS  C316  922   4.837   7.133   8.554 -0.1809 -0.0665 -0.3356
    7SAPS  H16X  923   4.742   7.183   8.584  0.1840  0.0597  0.6209
    7SAPS  H16Y  924   4.815   7.039   8.499  1.0120  0.8542 -2.4474
    7SAPS  C317  925   4.918   7.234   8.465 -0.5242  0.0160 -0.1861
    7SAPS  H17X  926   5.009   7.190   8.418  0.4307 -0.8697  2.4258
    7SAPS  H17Y  927   4.954   7.315   8.532 -0.8374  0.2737 -0.3327
    7SAPS  C318  928   4.826   7.302   8.352  0.4691  0.4471 -1.4933
    7SAPS  H18X  929   4.737   7.334   8.411  0.4853  1.8426 -2.1981
    7SAPS  H18Y  930   4.788   7.227   8.280 -1.4275  0.7088 -0.7909
    7SAPS  H18Z  931   4.878   7.393   8.313  0.8055  0.3000 -1.3929
    8SAPS     N  932   1.711   6.664  11.162  0.5468 -0.4481  0.4019
    8SAPS   HN1  933   1.683   6.700  11.255 -1.5057 -0.4662 -0.1668
    8SAPS   HN2  934   1.619   6.639  11.120  0.6599 -0.6482  0.2728
    8SAPS   HN3  935   1.763   6.574  11.169 -0.9258 -1.5339 -1.7673
    8SAPS   C12  936   1.784   6.756  11.086  0.5830 -0.2195  0.1086
    8SAPS  H12A  937   1.798   6.724  10.983  3.1443  0.0352  0.3256
    8SAPS   C13  938   1.731   6.901  11.088 -0.1976  0.1694 -0.2609
    8SAPS  O13A  939   1.635   6.937  11.159  0.1221  0.1576 -0.9915
    8SAPS  O13B  940   1.772   6.977  10.993  0.4738  0.0863  0.1406
    8SAPS   C11  941   1.930   6.756  11.150 -0.0074  1.1200 -0.2197
    8SAPS  H11A  942   1.936   6.781  11.258 -1.5027  0.2151  0.0903
    8SAPS  H11B  943   1.985   6.830  11.087  0.1303  0.5199 -0.8132
    8SAPS     P  944   2.131   6.574  11.155 -0.0121  0.5030 -0.2863
    8SAPS   O13  945   2.206   6.675  11.239 -0.3675  0.2139  0.2617
    8SAPS   O14  946   2.122   6.435  11.208 -0.4292 -0.1533  0.0722
    8SAPS   O12  947   1.983   6.631  11.123  0.1525  0.2824 -0.1367
    8SAPS   O11  948   2.192   6.556  11.011  0.2930 -0.0828  0.3130
    8SAPS    C1  949   2.116   6.505  10.898 -0.4677  0.6906  0.0633
    8SAPS    HA  950   2.175   6.430  10.839 -1.9288  1.3561 -2.2878
    8SAPS    HB  951   2.027   6.451  10.937  0.9322 -0.7801  1.3406
    8SAPS    C2  952   2.089   6.619  10.799 -0.9406 -0.3677 -0.1213
    8SAPS    HS  953   2.029   6.696  10.852 -1.8289  0.5906 -2.4209
    8SAPS   O21  954   2.022   6.559  10.685  0.4113 -0.2949  0.7815
    8SAPS   C21  955   1.917   6.633  10.641 -0.5228 -0.2783 -0.6594
    8SAPS   O22  956   1.882   6.744  10.685  0.0365 -0.1050  0.3135
    8SAPS   C22  957   1.842   6.557  10.525  0.9605 -0.0273  0.5859
    8SAPS   H2R  958   1.845   6.446  10.539 -1.6935 -0.5196 -2.3234
    8SAPS   H2S  959   1.735   6.588  10.531  1.4013  1.7840 -0.8441
    8SAPS    C3  960   2.221   6.689  10.756  0.5143 -0.1287  0.0229
    8SAPS    HX  961   2.286   6.607  10.720  0.4157 -0.2350  0.0853
    8SAPS    HY  962   2.274   6.726  10.847 -0.5091 -3.8252  2.2207
    8SAPS   O31  963   2.203   6.793  10.659  0.4820 -0.2477 -0.3363
    8SAPS   C31  964   2.159   6.913  10.701  0.6240 -0.1106  0.8616
    8SAPS   O32  965   2.122   6.935  10.816 -0.0796 -0.3994  0.4239
    8SAPS   C32  966   2.128   6.991  10.569 -0.2127 -0.5746 -0.3122
    8SAPS   H2X  967   2.020   6.973  10.550 -0.4487 -0.1999  0.6418
    8SAPS   H2Y  968   2.201   6.958  10.491 -0.5713  3.9085 -2.6810
    8SAPS   C23  969   1.897   6.601  10.380 -0.5646 -0.5006 -0.9425
    8SAPS   H3R  970   2.007   6.610  10.389 -0.8536  0.5731  1.9289
    8SAPS   H3S  971   1.848   6.696  10.350 -1.1451 -0.1238  1.0817
    8SAPS   C24  972   1.872   6.491  10.275  0.1545  0.0259  0.1714
    8SAPS   H4R  973   1.942   6.409  10.300  1.0860  0.4007 -1.1782
    8SAPS   H4S  974   1.913   6.533  10.181  0.7044 -0.2467  0.2857
    8SAPS   C25  975   1.730   6.433  10.261  0.1408  0.3281  0.4141
    8SAPS   H5R  976   1.703   6.369  10.346 -2.6480  1.7295  0.6475
    8SAPS   C26  977   1.638   6.448  10.164  0.8260 -0.0261 -0.3492
    8SAPS   H6R  978   1.538   6.406  10.181  0.5198  1.7859  2.4967
    8SAPS   C27  979   1.656   6.529  10.037 -0.8227  0.1191  0.7523
    8SAPS   H7R  980   1.757   6.513   9.995 -0.7148  0.4540  0.8794
    8SAPS   H7S  981   1.656   6.638  10.061 -0.7851  0.3957 -0.4516
    8SAPS   C28  982   1.558   6.489   9.925  0.4841 -0.7485 -0.7303
    8SAPS   H8R  983   1.525   6.384   9.929 -1.5257 -0.1044  0.7126
    8SAPS   C29  984   1.521   6.569   9.823 -0.0443  0.2948  0.5496
    8SAPS   H9R  985   1.439   6.538   9.757 -0.9683  0.6834  1.5030
    8SAPS  C210  986   1.566   6.704   9.782  1.0929 -0.1264  0.2998
    8SAPS  H10R  987   1.594   6.709   9.675 -1.5751 -0.9467 -0.4970
    8SAPS  H10S  988   1.666   6.724   9.826 -0.0094 -1.4899  3.6053
    8SAPS  C211  989   1.465   6.807   9.825 -0.1236 -0.6674  0.5042
    8SAPS  H11R  990   1.429   6.797   9.928  0.3582 -0.0059  0.7325
    8SAPS  C212  991   1.427   6.912   9.758  0.0235 -0.2818 -0.4791
    8SAPS  H12R  992   1.356   6.988   9.796  0.2114  0.0108 -0.7086
    8SAPS  C213  993   1.479   6.945   9.615  0.5402  0.6644 -0.3008
    8SAPS  H13R  994   1.590   6.937   9.616  0.4006 -1.9426 -1.5857
    8SAPS  H13S  995   1.443   7.046   9.589  0.2973  0.6866  0.1251
    8SAPS  C214  996   1.424   6.847   9.510  0.2964  0.4763 -0.0379
    8SAPS  H14R  997   1.351   6.770   9.539  1.5698 -0.2858  1.2188
    8SAPS  C215  998   1.475   6.833   9.385  0.2893 -0.1012 -0.6098
    8SAPS  H15R  999   1.424   6.769   9.311 -0.9963 -2.0175  1.8505
    8SAPS  C216 1000   1.578   6.926   9.331  0.1233  0.4319  0.8396
    8SAPS  H16R 1001   1.681   6.890   9.354 -0.0318 -2.2020 -2.2019
    8SAPS  H16S 1002   1.565   7.028   9.372 -0.0529  0.5919  0.3921
    8SAPS  C217 1003   1.564   6.938   9.175  0.5005  0.7653  0.6939
    8SAPS  H17R 1004   1.629   7.022   9.141 -0.3322  0.8947 -0.6248
    8SAPS  H17S 1005   1.456   6.962   9.165 -0.1022 -0.9940  2.6256
    8SAPS  C218 1006   1.599   6.808   9.101  0.0645 -0.3969  0.2607
    8SAPS  H18R 1007   1.512   6.739   9.106 -0.1501  0.0251  2.9192
    8SAPS  H18S 1008   1.681   6.757   9.155 -0.0788 -1.6988 -0.7263
    8SAPS  C219 1009   1.660   6.845   8.963 -0.6072 -0.4159 -0.3156
    8SAPS  H19R 1010   1.728   6.764   8.927  1.1834  0.2451  1.4872
    8SAPS  H19S 1011   1.731   6.931   8.970 -0.7202 -0.2699 -0.9559
    8SAPS  C220 1012   1.552   6.885   8.858  0.2658 -0.6665 -0.2409
    8SAPS  H20R 1013   1.491   6.971   8.894 -0.2250 -0.3180 -1.8888
    8SAPS  H20S 1014   1.472   6.810   8.839 -0.7012 -0.1222  1.4978
    8SAPS  H20T 1015   1.601   6.917   8.764  4.0754 -0.8275  1.6100
    8SAPS   C33 1016   2.143   7.146  10.597 -0.1951 -0.9363  0.0158
    8SAPS   H3X 1017   2.239   7.169  10.648 -0.8017  1.7561  0.0130
    8SAPS   H3Y 1018   2.059   7.183  10.659  0.8368 -1.0242  1.5006
    8SAPS   C34 1019   2.131   7.227  10.462 -0.0601  0.2044 -0.4779
    8SAPS   H4X 1020   2.051   7.185  10.397  0.9647 -4.0383  0.7888
    8SAPS   H4Y 1021   2.227   7.206  10.411  1.3674 -0.3890  2.3271
    8SAPS   C35 1022   2.123   7.375  10.496 -0.1103  0.3285 -0.4941
    8SAPS   H5X 1023   2.198   7.397  10.575 -0.4114  0.1544 -0.1588
    8SAPS   H5Y 1024   2.029   7.404  10.547 -0.3055  1.7269 -1.6107
    8SAPS   C36 1025   2.129   7.469  10.376  0.6484  0.2990  0.4549
    8SAPS   H6X 1026   2.027   7.462  10.332  0.6430  2.1544  0.1491
    8SAPS   H6Y 1027   2.205   7.429  10.306  0.9494  0.2935  0.7848
    8SAPS   C37 1028   2.155   7.616  10.407  0.2937 -0.1085 -0.0099
    8SAPS   H7X 1029   2.253   7.618  10.458 -0.7976  0.8136  2.1438
    8SAPS   H7Y 1030   2.085   7.658  10.482 -1.1269 -0.2500 -1.2276
    8SAPS   C38 1031   2.154   7.719  10.288 -0.4260  0.9127  0.7585
    8SAPS   H8X 1032   2.052   7.729  10.245  0.3445  1.7457 -0.9105
    8SAPS   H8Y 1033   2.219   7.662  10.218 -1.3956  0.3895  0.2785
    8SAPS   C39 1034   2.199   7.857  10.317  0.2269  0.0151 -0.5728
    8SAPS   H9X 1035   2.170   7.878  10.423  0.5738  0.6341 -0.5997
    8SAPS   H9Y 1036   2.138   7.934  10.266 -1.4623  0.2439  1.6814
    8SAPS  C310 1037   2.342   7.906  10.292 -0.5227 -0.9471 -0.0736
    8SAPS  H10X 1038   2.390   7.866  10.384  0.2634  0.0176 -0.0467
    8SAPS  H10Y 1039   2.357   8.016  10.286  1.6436 -1.1856  0.5284
    8SAPS  C311 1040   2.415   7.844  10.170 -0.1254 -0.3283 -0.2377
    8SAPS  H11X 1041   2.413   7.737  10.198  1.5281 -0.1929  0.4549
    8SAPS  H11Y 1042   2.522   7.874  10.176  0.3411 -1.6870 -1.6090
    8SAPS  C312 1043   2.362   7.866  10.038  0.8790 -0.0952 -0.4340
    8SAPS  H12X 1044   2.350   7.972  10.009  0.7478  0.3193  1.0968
    8SAPS  H12Y 1045   2.260   7.823  10.043  1.1202 -0.4994  1.4964
    8SAPS  C313 1046   2.448   7.809   9.930 -0.0509  0.5528 -0.6354
    8SAPS  H13X 1047   2.472   7.703   9.956  1.7388  1.3343  1.0663
    8SAPS  H13Y 1048   2.533   7.878   9.912 -0.2869  0.6798 -1.2848
    8SAPS  C314 1049   2.375   7.821   9.798 -0.5426  0.2018 -0.2939
    8SAPS  H14X 1050   2.334   7.924   9.795 -1.1196  0.0448  1.6652
    8SAPS  H14Y 1051   2.293   7.747   9.792  1.0663 -1.4805 -2.7296
    8SAPS  C315 1052   2.467   7.801   9.666  0.7850  0.3128 -0.7378
    8SAPS  H15X 1053   2.542   7.882   9.664  1.9886 -0.7749 -0.0505
    8SAPS  H15Y 1054   2.393   7.821   9.585  0.3095  0.6638 -0.2233
    8SAPS  C316 1055   2.536   7.671   9.637 -0.1638  0.3448 -0.4535
    8SAPS  H16X 1056   2.461   7.591   9.621  0.9798 -0.5893 -1.2581
    8SAPS  H16Y 1057   2.596   7.650   9.728  0.9081  0.0511 -1.2078
    8SAPS  C317 1058   2.623   7.668   9.510  0.2406 -0.1228  0.1132
    8SAPS  H17X 1059   2.560   7.698   9.424  0.9189  1.2770  0.0970
    8SAPS  H17Y 1060   2.645   7.563   9.480  0.9681 -0.0838  0.4959
    8SAPS  C318 1061   2.755   7.738   9.507  0.3775 -0.0137  0.3970
    8SAPS  H18X 1062   2.797   7.713   9.407 -0.8405  1.9497 -0.6146
    8SAPS  H18Y 1063   2.818   7.708   9.594 -0.3441 -0.9009  0.6159
    8SAPS  H18Z 1064   2.729   7.845   9.517 -2.7951 -0.8027  1.2461
    9SAPS     N 1065   5.235   3.064   6.240  0.3984  0.4068 -0.2527
    9SAPS   HN1 1066   5.249   3.073   6.138 -0.0400 -1.3310 -0.4832
    9SAPS   HN2 1067   5.193   2.971   6.262  1.9464 -0.4429 -0.8602
    9SAPS   HN3 1068   5.161   3.135   6.259 -1.0769 -0.8970 -0.9924
    9SAPS   C12 1069   5.365   3.098   6.304 -0.3853  0.2647  0.5823
    9SAPS  H12A 1070   5.425   3.015   6.338 -1.7351 -0.9029  0.1576
    9SAPS   C13 1071   5.445   3.186   6.205 -0.3142 -0.9291 -0.0925
    9SAPS  O13A 1072   5.401   3.212   6.090  0.6359  0.0851  0.5048
    9SAPS  O13B 1073   5.562   3.229   6.237 -0.6448 -0.2912 -0.5085
    9SAPS   C11 1074   5.338   3.194   6.427  0.7494 -0.1189  0.9411
    9SAPS  H11A 1075   5.433   3.206   6.481  0.9673 -0.7639  0.7090
    9SAPS  H11B 1076   5.275   3.130   6.493  0.3709  0.7041  1.3855
    9SAPS     P 1077   5.131   3.354   6.411 -0.0626 -0.2009  0.1199
    9SAPS   O13 1078   5.124   3.499   6.391  0.3743 -0.0035 -0.2805
    9SAPS   O14 1079   5.059   3.257   6.319  0.2057  0.2299  0.0646
    9SAPS   O12 1080   5.287   3.326   6.403  0.0094 -0.0893 -0.4074
    9SAPS   O11 1081   5.104   3.311   6.563  0.3496 -0.5650  0.3877
    9SAPS    C1 1082   5.134   3.412   6.660 -0.1372 -0.2056  0.1521
    9SAPS    HA 1083   5.243   3.430   6.653  0.2370 -2.6835 -1.0509
    9SAPS    HB 1084   5.069   3.500   6.679 -0.9625 -1.3181  2.7114
    9SAPS    C2 1085   5.112   3.356   6.803  0.0183  0.6060  0.2885
    9SAPS    HS 1086   5.058   3.429   6.866  0.8634  0.8524  0.7217
    9SAPS   O21 1087   5.234   3.327   6.871 -0.2227  0.5082 -0.3544
    9SAPS   C21 1088   5.293   3.427   6.925  0.4402 -0.5558 -0.4391
    9SAPS   O22 1089   5.250   3.543   6.919  0.0089 -0.2269 -0.1249
    9SAPS   C22 1090   5.418   3.393   7.005  0.0191 -0.4190 -0.1035
    9SAPS   H2R 1091   5.496   3.373   6.929 -0.5506 -0.8161 -0.5913
    9SAPS   H2S 1092   5.436   3.491   7.053 -0.1238  0.3844 -1.6441
    9SAPS    C3 1093   5.024   3.230   6.795 -0.1066  0.2335  0.5233
    9SAPS    HX 1094   5.093   3.145   6.777 -1.2651 -0.8823  1.2431
    9SAPS    HY 1095   4.943   3.232   6.720 -1.5331  1.3039  2.0423
    9SAPS   O31 1096   4.971   3.202   6.930 -0.7999  0.0994  0.2377
    9SAPS   C31 1097   4.877   3.267   6.972 -0.1124 -0.2175  0.1191
    9SAPS   O32 1098   4.824   3.365   6.925  0.4557 -0.2142 -0.8635
    9SAPS   C32 1099   4.838   3.220   7.118 -0.5276  0.3978 -0.3803
    9SAPS   H2X 1100   4.932   3.231   7.177 -1.3025 -0.4706  1.0441
    9SAPS   H2Y 1101   4.807   3.114   7.112  0.0094  0.1932  0.4020
    9SAPS   C23 1102   5.400   3.279   7.104 -0.4884  0.3198  0.3794
    9SAPS   H3R 1103   5.487   3.263   7.171 -0.1387  0.3353 -0.0623
    9SAPS   H3S 1104   5.409   3.184   7.047 -2.1627  0.2142  0.2582
    9SAPS   C24 1105   5.275   3.276   7.192  1.2213 -0.2870 -0.8648
    9SAPS   H4R 1106   5.295   3.190   7.260 -2.4001  1.0470  2.0899
    9SAPS   H4S 1107   5.187   3.239   7.135 -0.7738  1.8553  0.7125
    9SAPS   C25 1108   5.231   3.405   7.256 -0.0492  0.4777  0.4953
    9SAPS   H5R 1109   5.166   3.467   7.193  0.2178 -0.0576 -0.3159
    9SAPS   C26 1110   5.250   3.450   7.380 -0.3865  0.2247  0.0884
    9SAPS   H6R 1111   5.208   3.550   7.400 -1.9461 -0.6726  1.4432
    9SAPS   C27 1112   5.327   3.395   7.494 -0.2993  0.1818 -0.0610
    9SAPS   H7R 1113   5.421   3.451   7.514 -2.3869  4.2400 -0.8916
    9SAPS   H7S 1114   5.367   3.298   7.458 -0.8619  0.2896 -1.0010
    9SAPS   C28 1115   5.243   3.375   7.619  0.1119 -0.2871  0.0629
    9SAPS   H8R 1116   5.179   3.287   7.632 -0.5571 -0.0246 -1.2841
    9SAPS   C29 1117   5.229   3.463   7.712 -0.2485 -0.4426 -0.5856
    9SAPS   H9R 1118   5.167   3.432   7.797 -1.2725 -0.0096 -1.1710
    9SAPS  C210 1119   5.288   3.595   7.712  0.0254  0.5039  0.5111
    9SAPS  H10R 1120   5.221   3.646   7.783 -0.2224  2.7006 -1.2617
    9SAPS  H10S 1121   5.260   3.648   7.619 -1.8795 -1.6581 -0.1828
    9SAPS  C211 1122   5.431   3.620   7.752  0.3515  0.0597 -0.0459
    9SAPS  H11R 1123   5.505   3.571   7.687  0.4332 -1.4512  1.1579
    9SAPS  C212 1124   5.480   3.687   7.859  0.0420 -0.0294 -0.0108
    9SAPS  H12R 1125   5.588   3.692   7.877 -0.2994  2.3880  1.7020
    9SAPS  C213 1126   5.396   3.751   7.958 -0.0777 -0.9600 -0.3283
    9SAPS  H13R 1127   5.299   3.787   7.917  0.0792  0.8534  0.8496
    9SAPS  H13S 1128   5.433   3.849   7.994 -2.5044 -0.3397  0.5920
    9SAPS  C214 1129   5.367   3.662   8.077  0.6653  0.6984  0.2856
    9SAPS  H14R 1130   5.337   3.562   8.041  0.6255  1.8136 -2.9856
    9SAPS  C215 1131   5.368   3.700   8.202 -0.4675 -0.2547  0.0902
    9SAPS  H15R 1132   5.360   3.631   8.288 -0.5744 -0.4172 -0.0514
    9SAPS  C216 1133   5.403   3.845   8.257 -0.2574  0.3472 -0.5257
    9SAPS  H16R 1134   5.504   3.872   8.218  0.2758  1.4415  1.5131
    9SAPS  H16S 1135   5.418   3.841   8.368 -1.8459 -1.8000 -0.3629
    9SAPS  C217 1136   5.295   3.938   8.237  0.0374  0.0478 -0.2835
    9SAPS  H17R 1137   5.291   3.960   8.128  0.5102  0.3439 -0.2386
    9SAPS  H17S 1138   5.318   4.031   8.293  1.2668  0.0357 -0.7457
    9SAPS  C218 1139   5.166   3.890   8.302 -0.2434  0.2219  0.0930
    9SAPS  H18R 1140   5.190   3.847   8.401 -1.7752 -0.0287  0.3771
    9SAPS  H18S 1141   5.121   3.803   8.247  1.2483 -0.6243  0.1874
    9SAPS  C219 1142   5.068   4.009   8.308 -0.3580 -0.2078  0.0791
    9SAPS  H19R 1143   5.116   4.075   8.384 -0.5539 -0.2123  0.2073
    9SAPS  H19S 1144   4.967   3.978   8.341  0.2947 -1.9412  0.5118
    9SAPS  C220 1145   5.046   4.091   8.177  0.4511  0.7963 -0.0020
    9SAPS  H20R 1146   5.136   4.151   8.152  1.1623  0.0098  0.6423
    9SAPS  H20S 1147   4.947   4.142   8.176  0.3584  0.6198  0.0343
    9SAPS  H20T 1148   5.044   4.023   8.089 -0.3647 -1.4833  1.7210
    9SAPS   C33 1149   4.719   3.297   7.184 -0.2138  0.5128 -0.2982
    9SAPS   H3X 1150   4.626   3.254   7.141  0.2906 -1.9533  0.9442
    9SAPS   H3Y 1151   4.718   3.400   7.142 -0.2343  1.0040  0.8836
    9SAPS   C34 1152   4.713   3.283   7.341 -0.2963 -0.8071 -0.2650
    9SAPS   H4X 1153   4.612   3.319   7.371  0.3063  0.4218  0.3223
    9SAPS   H4Y 1154   4.785   3.352   7.390  0.1109  0.2062 -2.2386
    9SAPS   C35 1155   4.745   3.141   7.390  0.3721  0.1457  0.5397
    9SAPS   H5X 1156   4.849   3.121   7.424  1.4126  0.5422 -2.2587
    9SAPS   H5Y 1157   4.718   3.066   7.312  1.4430  1.8672 -1.5371
    9SAPS   C36 1158   4.648   3.120   7.503  0.1497  0.5574  0.0493
    9SAPS   H6X 1159   4.645   3.011   7.527  1.3929  0.4604 -0.2247
    9SAPS   H6Y 1160   4.543   3.142   7.472 -0.7212 -2.7078  0.4965
    9SAPS   C37 1161   4.686   3.194   7.630  0.6091 -0.7543  0.1581
    9SAPS   H7X 1162   4.660   3.300   7.606 -5.1866 -1.9659  0.2326
    9SAPS   H7Y 1163   4.793   3.183   7.657 -0.0866 -0.6757  3.0759
    9SAPS   C38 1164   4.592   3.154   7.745  0.0552 -0.5277  0.5775
    9SAPS   H8X 1165   4.591   3.043   7.747  2.6436 -0.6126 -0.7319
    9SAPS   H8Y 1166   4.490   3.173   7.704  0.4305  1.0956  0.3617
    9SAPS   C39 1167   4.614   3.220   7.878  0.2960  0.3001 -0.5061
    9SAPS   H9X 1168   4.629   3.328   7.859 -0.3498  0.3070 -1.0275
    9SAPS   H9Y 1169   4.703   3.176   7.927 -0.4713 -1.2660 -0.4673
    9SAPS  C310 1170   4.497   3.191   7.974  0.2070 -0.2264 -0.5790
    9SAPS  H10X 1171   4.498   3.084   8.004  2.7888  0.2386  1.1490
    9SAPS  H10Y 1172   4.400   3.208   7.923  1.2109  1.6172 -1.9157
    9SAPS  C311 1173   4.493   3.262   8.111 -0.7552  0.0742  0.7255
    9SAPS  H11X 1174   4.395   3.253   8.162 -0.0655 -1.0979  1.8622
    9SAPS  H11Y 1175   4.507   3.371   8.094 -1.3110 -0.0993 -1.0489
    9SAPS  C312 1176   4.600   3.211   8.199 -1.0300 -0.5382 -0.5864
    9SAPS  H12X 1177   4.691   3.219   8.135 -1.6389 -1.2078 -1.5434
    9SAPS  H12Y 1178   4.590   3.102   8.219 -0.2073 -0.5239 -0.0732
    9SAPS  C313 1179   4.631   3.300   8.324  0.9003  0.3084 -0.4803
    9SAPS  H13X 1180   4.562   3.274   8.406  1.5883 -1.5080 -0.4453
    9SAPS  H13Y 1181   4.617   3.408   8.301  0.3413  0.3835  0.2160
    9SAPS  C314 1182   4.773   3.254   8.370  0.4391 -0.4437 -0.1127
    9SAPS  H14X 1183   4.843   3.316   8.310 -0.3618  1.4876  0.8918
    9SAPS  H14Y 1184   4.790   3.148   8.341  1.2378 -0.7011  1.2391
    9SAPS  C315 1185   4.807   3.261   8.522  0.4784 -0.2268 -0.0325
    9SAPS  H15X 1186   4.737   3.185   8.564  0.8105 -0.1004  0.7657
    9SAPS  H15Y 1187   4.791   3.360   8.571 -0.5191 -0.1836 -0.4269
    9SAPS  C316 1188   4.949   3.217   8.566  0.6912 -0.3711  0.8549
    9SAPS  H16X 1189   5.030   3.253   8.499  0.3151 -1.3084 -0.1312
    9SAPS  H16Y 1190   4.951   3.108   8.545  0.1469  0.0521 -1.6330
    9SAPS  C317 1191   4.985   3.249   8.712 -0.5287  0.0707  0.9771
    9SAPS  H17X 1192   4.973   3.358   8.732  0.8634  0.8979 -2.3497
    9SAPS  H17Y 1193   5.091   3.228   8.736 -0.2739 -0.6711 -0.7306
    9SAPS  C318 1194   4.902   3.169   8.812  0.3949 -0.5073 -0.4033
    9SAPS  H18X 1195   4.800   3.208   8.834  0.1038 -1.6570  0.3379
    9SAPS  H18Y 1196   4.953   3.163   8.911  0.6695  0.0974 -0.5040
    9SAPS  H18Z 1197   4.893   3.065   8.775 -1.8289  0.2931 -2.2490
   10SAPS     N 1198   5.521   2.559   6.152  0.1533  0.3245  0.3205
   10SAPS   HN1 1199   5.541   2.464   6.190  0.5095  0.4412  0.4283
   10SAPS   HN2 1200   5.500   2.550   6.050  1.5250  0.6744 -0.0106
   10SAPS   HN3 1201   5.611   2.611   6.155  0.2883  0.0548  0.9262
   10SAPS   C12 1202   5.401   2.615   6.231  0.8111 -0.7176 -0.3031
   10SAPS  H12A 1203   5.449   2.667   6.312 -1.1150  0.1212  0.3017
   10SAPS   C13 1204   5.318   2.732   6.160 -0.0444  0.8546 -0.0470
   10SAPS  O13A 1205   5.342   2.755   6.043  0.2944 -0.3621  0.2659
   10SAPS  O13B 1206   5.222   2.782   6.222  0.1248 -0.6639 -0.3439
   10SAPS   C11 1207   5.311   2.496   6.265 -0.1774  0.5428 -0.0007
   10SAPS  H11A 1208   5.264   2.469   6.168  0.3550  1.5626 -0.5484
   10SAPS  H11B 1209   5.232   2.538   6.330  0.9495 -0.2447  1.9228
   10SAPS     P 1210   5.330   2.241   6.359 -0.0761  0.2454 -0.2614
   10SAPS   O13 1211   5.182   2.243   6.353 -0.3061 -0.3948 -0.7537
   10SAPS   O14 1212   5.399   2.145   6.271  0.4317  0.5145  0.4832
   10SAPS   O12 1213   5.385   2.383   6.321  0.0130  0.3927 -0.5505
   10SAPS   O11 1214   5.375   2.219   6.506  0.6356 -0.1864  0.3398
   10SAPS    C1 1215   5.299   2.262   6.632  0.5019 -0.9810  0.3446
   10SAPS    HA 1216   5.191   2.233   6.632  0.2742 -0.1423  0.6220
   10SAPS    HB 1217   5.336   2.212   6.724 -0.2521  1.3578  1.9598
   10SAPS    C2 1218   5.317   2.416   6.663 -0.7917 -0.3266  0.6790
   10SAPS    HS 1219   5.295   2.475   6.571  0.2239  1.1063  1.3358
   10SAPS   O21 1220   5.449   2.441   6.716 -0.7794  0.4520  0.0749
   10SAPS   C21 1221   5.492   2.565   6.716  0.8301  0.0500  1.0003
   10SAPS   O22 1222   5.435   2.657   6.660 -1.0857  0.9865  0.0552
   10SAPS   C22 1223   5.595   2.592   6.822 -0.3717  1.5247 -0.9593
   10SAPS   H2R 1224   5.683   2.635   6.769  1.6872 -0.5959  0.6030
   10SAPS   H2S 1225   5.564   2.671   6.893  0.5149 -0.7716  2.1104
   10SAPS    C3 1226   5.209   2.462   6.770  0.1924  0.5311  0.6772
   10SAPS    HX 1227   5.108   2.430   6.738 -0.0722 -0.3464  2.3164
   10SAPS    HY 1228   5.220   2.572   6.776  0.9632  0.5081 -0.1131
   10SAPS   O31 1229   5.240   2.393   6.894 -0.0343  0.0522 -0.5070
   10SAPS   C31 1230   5.278   2.480   6.996  0.4407 -0.3584 -0.0380
   10SAPS   O32 1231   5.301   2.601   6.978  0.4046  0.3494 -0.2611
   10SAPS   C32 1232   5.292   2.415   7.131 -0.0185  0.3484 -0.1184
   10SAPS   H2X 1233   5.401   2.392   7.141 -0.3461 -1.4323 -0.5186
   10SAPS   H2Y 1234   5.251   2.312   7.122 -1.3705  0.7519  1.2862
   10SAPS   C23 1235   5.615   2.464   6.913 -0.3482 -0.5246 -0.0836
   10SAPS   H3R 1236   5.525   2.422   6.964 -1.1638  0.0014 -1.0651
   10SAPS   H3S 1237   5.675   2.508   6.996  1.4736 -0.9837 -1.1307
   10SAPS   C24 1238   5.714   2.355   6.857 -0.1235  0.3104  0.2998
   10SAPS   H4R 1239   5.761   2.315   6.949  1.0004  0.3257 -0.2641
   10SAPS   H4S 1240   5.796   2.396   6.795 -1.2946  1.4276 -0.5580
   10SAPS   C25 1241   5.646   2.237   6.789  0.5099 -0.1653  0.3917
   10SAPS   H5R 1242   5.599   2.248   6.691  1.5955 -1.9441 -0.3471
   10SAPS   C26 1243   5.606   2.127   6.853  0.2222  0.1237  0.6137
   10SAPS   H6R 1244   5.547   2.056   6.793  1.3732  0.2719 -0.7436
   10SAPS   C27 1245   5.628   2.093   6.995  0.2268 -0.7366  0.4902
   10SAPS   H7R 1246   5.642   2.189   7.049 -1.0560  0.6615 -1.5861
   10SAPS   H7S 1247   5.726   2.042   7.008  1.4003  1.6519  1.2837
   10SAPS   C28 1248   5.525   2.008   7.065  0.1278 -0.3343 -0.1208
   10SAPS   H8R 1249   5.473   1.936   7.001 -0.9943 -2.9158  3.5346
   10SAPS   C29 1250   5.476   2.022   7.188 -0.7633  0.6818 -0.2529
   10SAPS   H9R 1251   5.396   1.957   7.225  1.1529 -3.2939 -2.7098
   10SAPS  C210 1252   5.520   2.127   7.281 -0.4635 -0.2971 -0.7692
   10SAPS  H10R 1253   5.437   2.184   7.328 -0.8509 -0.1859 -1.5873
   10SAPS  H10S 1254   5.585   2.204   7.235 -0.6023  2.2184  2.9634
   10SAPS  C211 1255   5.598   2.063   7.399  0.7008 -0.3675  0.0799
   10SAPS  H11R 1256   5.666   1.982   7.368  1.5804 -0.6064  2.5184
   10SAPS  C212 1257   5.599   2.098   7.525  0.1036 -0.7400 -0.3178
   10SAPS  H12R 1258   5.671   2.051   7.593  2.5186 -0.6309 -2.7156
   10SAPS  C213 1259   5.521   2.216   7.582 -0.6426  0.4034  0.0592
   10SAPS  H13R 1260   5.417   2.225   7.544 -2.1266 -2.0591  3.2939
   10SAPS  H13S 1261   5.584   2.306   7.567 -0.8952  0.4200 -0.9304
   10SAPS  C214 1262   5.494   2.198   7.730  0.3271 -0.7899 -0.2532
   10SAPS  H14R 1263   5.388   2.181   7.751  0.5742 -0.6656  1.1633
   10SAPS  C215 1264   5.586   2.199   7.830 -0.3090  0.5230 -0.4167
   10SAPS  H15R 1265   5.545   2.157   7.924 -3.3389  0.6263 -1.6273
   10SAPS  C216 1266   5.729   2.234   7.807 -0.3496 -0.4196 -0.6297
   10SAPS  H16R 1267   5.750   2.248   7.699 -0.6159  0.4759 -0.5721
   10SAPS  H16S 1268   5.798   2.150   7.829  0.9203  0.3596 -1.5510
   10SAPS  C217 1269   5.762   2.358   7.889  0.5300  0.2191 -0.3069
   10SAPS  H17R 1270   5.715   2.453   7.854 -0.2037  0.1906  0.5904
   10SAPS  H17S 1271   5.872   2.375   7.881  0.3833  0.6967 -1.3476
   10SAPS  C218 1272   5.743   2.358   8.040  0.0329  0.8003  0.4359
   10SAPS  H18R 1273   5.784   2.262   8.078  1.5842  2.3328  2.8218
   10SAPS  H18S 1274   5.635   2.355   8.063  0.5219  0.2222  2.7985
   10SAPS  C219 1275   5.799   2.489   8.110  0.8914  0.0246 -0.2583
   10SAPS  H19R 1276   5.764   2.469   8.213  0.1026 -0.8241 -0.6841
   10SAPS  H19S 1277   5.740   2.571   8.063 -1.6837 -2.8881 -2.3096
   10SAPS  C220 1278   5.944   2.528   8.093  0.0476  0.3518 -0.0866
   10SAPS  H20R 1279   5.984   2.521   7.990 -0.4741  0.6864 -0.3118
   10SAPS  H20S 1280   6.013   2.473   8.160  1.2126  1.0474 -0.6828
   10SAPS  H20T 1281   5.942   2.635   8.123 -0.0260  0.3249  0.0062
   10SAPS   C33 1282   5.234   2.500   7.249 -0.3072 -0.0553 -0.3782
   10SAPS   H3X 1283   5.133   2.460   7.271  0.3531 -2.0787 -0.9233
   10SAPS   H3Y 1284   5.235   2.609   7.224 -0.7754  0.0339 -0.0098
   10SAPS   C34 1285   5.318   2.494   7.383  0.5587 -0.3836  0.4626
   10SAPS   H4X 1286   5.407   2.558   7.364 -0.9302  2.4067  2.4457
   10SAPS   H4Y 1287   5.344   2.387   7.398  0.9563 -0.3246  0.2250
   10SAPS   C35 1288   5.256   2.549   7.510 -0.8750 -0.0279  0.1885
   10SAPS   H5X 1289   5.153   2.513   7.530 -0.6450 -0.4425  0.6177
   10SAPS   H5Y 1290   5.242   2.658   7.488  0.1550  0.4648  1.8951
   10SAPS   C36 1291   5.346   2.521   7.633 -0.1613  0.5957 -0.1077
   10SAPS   H6X 1292   5.451   2.545   7.605 -0.0857 -0.6180 -0.8873
   10SAPS   H6Y 1293   5.349   2.411   7.648  0.2593  0.5806 -0.2836
   10SAPS   C37 1294   5.301   2.587   7.763 -0.1102  0.6778  0.1186
   10SAPS   H7X 1295   5.196   2.621   7.754 -0.8822 -1.8747 -1.1600
   10SAPS   H7Y 1296   5.361   2.676   7.791 -2.7440  2.8946 -1.1115
   10SAPS   C38 1297   5.319   2.491   7.883  0.6726 -0.8830 -0.8572
   10SAPS   H8X 1298   5.420   2.447   7.891  0.8098 -0.4381 -0.1795
   10SAPS   H8Y 1299   5.259   2.401   7.855 -1.3091  0.1844 -0.1609
   10SAPS   C39 1300   5.283   2.563   8.014  0.1998  0.1635 -0.3312
   10SAPS   H9X 1301   5.288   2.476   8.083  2.5616  1.0046  0.5940
   10SAPS   H9Y 1302   5.182   2.609   8.020 -0.7822 -1.7905 -1.3833
   10SAPS  C310 1303   5.390   2.660   8.058 -0.4520  0.1545 -0.1305
   10SAPS  H10X 1304   5.400   2.753   7.999 -2.0334  0.6805  0.3850
   10SAPS  H10Y 1305   5.492   2.617   8.052  0.1373  1.5025  0.0244
   10SAPS  C311 1306   5.368   2.708   8.202 -0.1200  0.9748  0.3084
   10SAPS  H11X 1307   5.410   2.626   8.263 -1.3233 -0.7638 -1.1576
   10SAPS  H11Y 1308   5.263   2.733   8.230 -0.1189  1.5525 -0.1967
   10SAPS  C312 1309   5.461   2.833   8.238 -0.2619  0.4214 -0.2802
   10SAPS  H12X 1310   5.457   2.856   8.347  3.1803  0.3729 -0.1073
   10SAPS  H12Y 1311   5.411   2.921   8.192  0.8150 -0.2209 -2.7690
   10SAPS  C313 1312   5.600   2.825   8.190 -0.8498 -0.0905  0.5975
   10SAPS  H13X 1313   5.598   2.831   8.079 -2.0006 -0.2701  0.6005
   10SAPS  H13Y 1314   5.641   2.724   8.214 -0.0209  0.2683  0.7218
   10SAPS  C314 1315   5.694   2.931   8.246 -0.4655 -0.1865 -0.8231
   10SAPS  H14X 1316   5.634   3.021   8.272 -0.0399  0.3274 -1.6332
   10SAPS  H14Y 1317   5.766   2.963   8.168 -0.2880  1.1452 -0.1215
   10SAPS  C315 1318   5.765   2.884   8.367  0.5113  0.1025  0.2730
   10SAPS  H15X 1319   5.830   2.798   8.339  1.7677  1.5519 -1.4047
   10SAPS  H15Y 1320   5.705   2.839   8.449  0.1855 -0.4630 -0.2754
   10SAPS  C316 1321   5.848   2.991   8.439  0.4308 -0.2010  0.0250
   10SAPS  H16X 1322   5.783   3.073   8.477  0.4323 -0.9139  1.6208
   10SAPS  H16Y 1323   5.926   3.040   8.377  1.2043 -1.5750 -0.1128
   10SAPS  C317 1324   5.923   2.935   8.557 -0.5082 -0.4345 -0.1055
   10SAPS  H17X 1325   6.009   2.878   8.516  0.6141 -0.3742  2.0890
   10SAPS  H17Y 1326   5.852   2.868   8.611 -1.2532  0.0378 -0.4797
   10SAPS  C318 1327   5.978   3.031   8.658 -0.1094 -0.4104  0.5934
   10SAPS  H18X 1328   6.038   3.117   8.620 -0.2212 -0.3389  0.5808
   10SAPS  H18Y 1329   6.035   2.978   8.737  0.6743 -0.8914 -0.2754
   10SAPS  H18Z 1330   5.888   3.068   8.710  0.4337 -1.3631  2.2312
   11SAPS     N 1331   6.690   5.093   5.439  0.1788  0.1289 -0.6268
   11SAPS   HN1 1332   6.691   5.066   5.339  1.5739 -0.5066 -0.4584
   11SAPS   HN2 1333   6.596   5.064   5.471  0.2285  0.0375 -0.5651
   11SAPS   HN3 1334   6.696   5.195   5.460 -1.2821  0.2810 -0.8905
   11SAPS   C12 1335   6.801   5.014   5.492  0.0151 -0.4703  0.4772
   11SAPS  H12A 1336   6.771   4.911   5.484 -1.3969 -0.0409  0.0226
   11SAPS   C13 1337   6.935   5.024   5.413 -0.1345  0.1491 -0.0805
   11SAPS  O13A 1338   6.934   5.038   5.289 -0.0892  0.1546 -0.8402
   11SAPS  O13B 1339   7.035   4.972   5.470 -0.4286 -0.0169 -0.4183
   11SAPS   C11 1340   6.830   5.069   5.636  0.3338 -0.0113  0.0150
   11SAPS  H11A 1341   6.858   5.177   5.637 -0.1129  0.1005  0.1870
   11SAPS  H11B 1342   6.922   5.023   5.678  0.8256  1.1385  0.2417
   11SAPS     P 1343   6.675   5.100   5.855  0.3692  0.0978  0.6144
   11SAPS   O13 1344   6.688   5.249   5.833  0.0405 -0.9566  0.3682
   11SAPS   O14 1345   6.538   5.047   5.877  0.2859  0.1731 -0.1257
   11SAPS   O12 1346   6.731   5.024   5.724  0.4507  0.3158 -0.3956
   11SAPS   O11 1347   6.767   5.048   5.971 -0.1163 -0.0776  0.0855
   11SAPS    C1 1348   6.756   4.904   5.997 -0.6657 -0.6147  0.3195
   11SAPS    HA 1349   6.657   4.857   5.977  0.4155 -2.6938 -0.3332
   11SAPS    HB 1350   6.827   4.851   5.929  0.8859  0.7701  0.8303
   11SAPS    C2 1351   6.807   4.872   6.136 -0.7286  0.6874  0.0649
   11SAPS    HS 1352   6.831   4.763   6.143  1.4933  1.2073  1.1668
   11SAPS   O21 1353   6.716   4.914   6.236  0.0221  0.5771  1.1534
   11SAPS   C21 1354   6.608   4.840   6.251 -1.0968  0.1684 -0.1852
   11SAPS   O22 1355   6.587   4.732   6.194  0.5819  0.1719 -0.1369
   11SAPS   C22 1356   6.523   4.920   6.345  0.3405 -0.1132  0.5339
   11SAPS   H2R 1357   6.485   5.014   6.298 -2.9357 -0.4037  2.4286
   11SAPS   H2S 1358   6.440   4.856   6.381 -1.2955  2.3191  1.2859
   11SAPS    C3 1359   6.947   4.938   6.156  0.8246  1.0261  0.0928
   11SAPS    HX 1360   6.949   5.042   6.118 -1.4465  0.1115 -2.7698
   11SAPS    HY 1361   7.008   4.875   6.087 -1.6104 -0.2203 -0.9989
   11SAPS   O31 1362   6.993   4.936   6.292 -0.0443 -0.2348  0.0072
   11SAPS   C31 1363   7.082   4.836   6.316  0.4072  0.1401 -0.3491
   11SAPS   O32 1364   7.106   4.742   6.244 -0.4081 -0.2806 -0.3498
   11SAPS   C32 1365   7.118   4.846   6.464 -0.6177 -0.8414 -0.3712
   11SAPS   H2X 1366   7.197   4.772   6.488  1.3170  1.5886  1.0826
   11SAPS   H2Y 1367   7.042   4.817   6.540 -0.3838  0.1453  0.2511
   11SAPS   C23 1368   6.602   4.959   6.467 -0.6060  0.3170 -1.1251
   11SAPS   H3R 1369   6.534   5.021   6.530  1.3638 -0.7530  2.1977
   11SAPS   H3S 1370   6.676   5.036   6.436 -1.6445  1.4447 -0.8447
   11SAPS   C24 1371   6.665   4.850   6.564 -0.3956 -0.2206 -0.5000
   11SAPS   H4R 1372   6.739   4.796   6.502  1.2553  0.1164  1.1310
   11SAPS   H4S 1373   6.593   4.779   6.612 -0.2796 -0.0594 -0.0925
   11SAPS   C25 1374   6.746   4.927   6.664 -0.6888  0.5429 -0.0345
   11SAPS   H5R 1375   6.804   5.014   6.630 -3.5384  1.3870 -2.9600
   11SAPS   C26 1376   6.772   4.892   6.792  0.4595  0.1995 -0.3673
   11SAPS   H6R 1377   6.831   4.953   6.861  1.5234 -2.5651  1.2474
   11SAPS   C27 1378   6.729   4.764   6.862  0.2614  0.2068  0.0585
   11SAPS   H7R 1379   6.689   4.691   6.788  0.3815 -0.1787  0.3741
   11SAPS   H7S 1380   6.655   4.775   6.944  1.0466 -1.3754  1.0068
   11SAPS   C28 1381   6.852   4.701   6.911  0.0291  0.1603 -0.6519
   11SAPS   H8R 1382   6.904   4.646   6.831  1.3986  1.2639 -0.5559
   11SAPS   C29 1383   6.906   4.717   7.032 -0.3160 -0.2860  0.9448
   11SAPS   H9R 1384   6.996   4.657   7.045 -0.8325 -1.5947 -1.1426
   11SAPS  C210 1385   6.863   4.796   7.155  0.5539  0.3502  0.7194
   11SAPS  H10R 1386   6.775   4.859   7.134  1.9706  1.6683 -1.4695
   11SAPS  H10S 1387   6.947   4.859   7.190  0.3921  1.5298 -0.9351
   11SAPS  C211 1388   6.843   4.698   7.270  0.7839  0.1982  0.3150
   11SAPS  H11R 1389   6.850   4.593   7.239 -4.2404 -0.2833  0.2813
   11SAPS  C212 1390   6.796   4.729   7.396 -0.4391  0.5215  0.7358
   11SAPS  H12R 1391   6.765   4.658   7.473  0.5055 -0.7414 -0.0270
   11SAPS  C213 1392   6.773   4.869   7.437  0.0755  0.4132 -0.5415
   11SAPS  H13R 1393   6.788   4.948   7.360  1.6304 -0.1524 -0.8486
   11SAPS  H13S 1394   6.855   4.897   7.507  0.9548 -1.1862 -0.9068
   11SAPS  C214 1395   6.633   4.901   7.498  0.2219 -0.1521 -0.1222
   11SAPS  H14R 1396   6.548   4.912   7.430  0.7644 -1.9034 -1.0965
   11SAPS  C215 1397   6.604   4.913   7.628  0.0167 -0.6345  0.3785
   11SAPS  H15R 1398   6.503   4.945   7.657 -0.4154 -1.6625  0.0323
   11SAPS  C216 1399   6.704   4.893   7.744 -0.8700  0.0198 -0.1630
   11SAPS  H16R 1400   6.794   4.835   7.713 -1.6579 -1.5012  0.3146
   11SAPS  H16S 1401   6.660   4.825   7.820  0.5706 -0.4545  0.2545
   11SAPS  C217 1402   6.766   5.024   7.800  1.0965 -0.3027 -0.4894
   11SAPS  H17R 1403   6.689   5.093   7.840  1.0753  0.1590 -1.3218
   11SAPS  H17S 1404   6.806   5.065   7.704  0.1243  4.1749  0.8948
   11SAPS  C218 1405   6.866   5.016   7.913  0.4012  0.1611 -0.3139
   11SAPS  H18R 1406   6.921   5.112   7.917  1.3073 -0.3143 -1.0664
   11SAPS  H18S 1407   6.938   4.942   7.872 -0.2182 -1.1562  0.9352
   11SAPS  C219 1408   6.813   4.987   8.056 -0.4898 -0.2835 -0.2402
   11SAPS  H19R 1409   6.770   4.885   8.058 -3.5976  1.0184  2.3233
   11SAPS  H19S 1410   6.740   5.067   8.080 -2.3109 -1.6528 -1.1685
   11SAPS  C220 1411   6.917   5.005   8.171 -0.0184 -0.6093 -0.2776
   11SAPS  H20R 1412   6.872   4.985   8.271  1.5556 -1.2966  0.3131
   11SAPS  H20S 1413   6.970   5.102   8.162  2.1803 -1.4389  2.6941
   11SAPS  H20T 1414   6.997   4.928   8.160  0.3179 -0.1840 -0.8249
   11SAPS   C33 1415   7.165   4.989   6.507  0.6083  0.3745  0.2226
   11SAPS   H3X 1416   7.075   5.053   6.518  1.6442  1.6848  1.2825
   11SAPS   H3Y 1417   7.226   5.030   6.424 -1.1530 -1.2043 -1.8954
   11SAPS   C34 1418   7.250   4.995   6.632  0.8241 -0.3583 -0.4630
   11SAPS   H4X 1419   7.302   5.093   6.639  1.5308 -0.8500  1.5441
   11SAPS   H4Y 1420   7.338   4.927   6.620 -0.2120 -1.7808 -0.0826
   11SAPS   C35 1421   7.156   4.979   6.750 -0.2062 -0.3661  0.4498
   11SAPS   H5X 1422   7.115   4.877   6.738 -0.9534 -0.0930  0.6418
   11SAPS   H5Y 1423   7.069   5.047   6.742 -1.3704 -1.9132 -0.3326
   11SAPS   C36 1424   7.225   4.987   6.882 -0.3773  0.0481 -0.0422
   11SAPS   H6X 1425   7.292   5.075   6.882  2.9090 -2.2943  3.0804
   11SAPS   H6Y 1426   7.287   4.897   6.907 -2.4842 -0.7898  2.4306
   11SAPS   C37 1427   7.132   5.009   7.001  0.2721  0.3314  0.7400
   11SAPS   H7X 1428   7.072   4.919   7.028  1.6678 -0.7318  0.3873
   11SAPS   H7Y 1429   7.047   5.062   6.953 -0.5421 -1.8396 -0.3223
   11SAPS   C38 1430   7.203   5.070   7.123 -0.1062 -0.0808  0.1246
   11SAPS   H8X 1431   7.245   5.168   7.092  1.4628 -1.0968 -1.0565
   11SAPS   H8Y 1432   7.283   5.008   7.169 -0.1929  0.6891  1.3350
   11SAPS   C39 1433   7.104   5.104   7.235  0.2868 -0.3411  0.2108
   11SAPS   H9X 1434   7.054   5.010   7.268 -0.8814  0.1687 -0.0861
   11SAPS   H9Y 1435   7.030   5.171   7.186  0.1924 -1.5590 -1.3511
   11SAPS  C310 1436   7.170   5.177   7.355 -0.2100  0.1517 -0.6851
   11SAPS  H10X 1437   7.197   5.281   7.327 -1.6568  1.2018  1.6726
   11SAPS  H10Y 1438   7.265   5.132   7.391  1.5792  1.0173 -4.1532
   11SAPS  C311 1439   7.067   5.193   7.468  0.0267  0.2441 -0.5090
   11SAPS  H11X 1440   7.038   5.099   7.520 -1.3220  0.2244 -1.2675
   11SAPS  H11Y 1441   6.973   5.226   7.419 -0.2170 -0.9673 -0.8777
   11SAPS  C312 1442   7.109   5.292   7.567 -0.8734  0.6029 -0.4295
   11SAPS  H12X 1443   7.014   5.309   7.622  0.0206  1.7484  0.8029
   11SAPS  H12Y 1444   7.137   5.385   7.512 -0.6599 -0.0441 -1.4267
   11SAPS  C313 1445   7.215   5.249   7.666  0.7713 -0.0154 -0.1095
   11SAPS  H13X 1446   7.258   5.348   7.691  1.7182  0.1640 -2.3386
   11SAPS  H13Y 1447   7.299   5.191   7.622  1.9576  1.1850  0.5214
   11SAPS  C314 1448   7.167   5.187   7.799  0.2934  0.1350 -0.0509
   11SAPS  H14X 1449   7.160   5.076   7.788  0.4514  0.1848 -0.6289
   11SAPS  H14Y 1450   7.063   5.219   7.821  0.1849 -0.9378  1.0610
   11SAPS  C315 1451   7.272   5.211   7.919 -0.7430 -0.7353  0.2407
   11SAPS  H15X 1452   7.282   5.321   7.934 -1.5451 -0.3268 -2.0216
   11SAPS  H15Y 1453   7.372   5.175   7.888  0.0729  2.2707 -0.8112
   11SAPS  C316 1454   7.259   5.143   8.054 -0.1368 -0.2378  0.3916
   11SAPS  H16X 1455   7.245   5.033   8.042  0.7128 -0.2688 -0.3396
   11SAPS  H16Y 1456   7.171   5.174   8.115 -1.1101 -2.3130  0.0868
   11SAPS  C317 1457   7.381   5.155   8.141 -0.2147  0.1657 -0.0666
   11SAPS  H17X 1458   7.400   5.264   8.145 -2.7941  0.6622 -0.6209
   11SAPS  H17Y 1459   7.474   5.106   8.105 -1.3662 -3.2403  1.3796
   11SAPS  C318 1460   7.361   5.106   8.286 -1.0663 -0.0601 -0.3342
   11SAPS  H18X 1461   7.450   5.138   8.345 -0.9936 -0.7124 -0.0954
   11SAPS  H18Y 1462   7.343   4.997   8.298  0.3124 -0.2934 -0.2843
   11SAPS  H18Z 1463   7.272   5.159   8.326 -3.6033 -3.4817 -1.2125
   12SAPS     N 1464   6.487   5.761   6.018  0.4436 -0.6537 -0.5764
   12SAPS   HN1 1465   6.431   5.756   6.106  0.2739 -0.1430 -0.6533
   12SAPS   HN2 1466   6.514   5.668   5.982 -2.5268 -1.2039 -1.5522
   12SAPS   HN3 1467   6.574   5.812   6.040 -0.6750  0.4397  1.4674
   12SAPS   C12 1468   6.409   5.842   5.919  0.0471 -0.1846  0.2875
   12SAPS  H12A 1469   6.437   5.823   5.817 -1.6061 -0.2691 -0.1610
   12SAPS   C13 1470   6.253   5.824   5.917  0.5243  0.2212  0.5676
   12SAPS  O13A 1471   6.206   5.735   5.988  0.3264  0.5592 -0.3007
   12SAPS  O13B 1472   6.186   5.888   5.833 -0.2450  0.4112  0.2767
   12SAPS   C11 1473   6.444   5.995   5.945 -0.0043 -0.1921  0.0299
   12SAPS  H11A 1474   6.428   6.017   6.053  2.7798  2.9991 -0.1253
   12SAPS  H11B 1475   6.372   6.047   5.878 -0.6839 -1.8121 -0.5203
   12SAPS     P 1476   6.694   6.051   6.006 -0.1801  0.1605  0.1915
   12SAPS   O13 1477   6.705   5.921   6.084  0.5260 -0.1141  0.2514
   12SAPS   O14 1478   6.815   6.105   5.936 -0.5271  0.2632 -0.1228
   12SAPS   O12 1479   6.579   6.028   5.907  0.3235  0.2723 -0.1801
   12SAPS   O11 1480   6.642   6.147   6.107  0.6729  0.5958  0.1419
   12SAPS    C1 1481   6.630   6.293   6.097  0.4368 -0.1158  0.2360
   12SAPS    HA 1482   6.616   6.339   5.997 -0.8876  0.8714  0.8574
   12SAPS    HB 1483   6.541   6.324   6.156  0.3446  0.3233 -0.1389
   12SAPS    C2 1484   6.760   6.358   6.162 -0.4004 -0.0524 -0.4082
   12SAPS    HS 1485   6.840   6.312   6.100 -0.6689 -2.2956  0.8779
   12SAPS   O21 1486   6.766   6.313   6.303  0.2817  0.0537 -0.1547
   12SAPS   C21 1487   6.887   6.286   6.339  0.4440  0.5147 -0.6822
   12SAPS   O22 1488   6.985   6.285   6.267 -0.4107  0.0204 -0.2315
   12SAPS   C22 1489   6.905   6.264   6.489  0.2441  0.5590 -0.8500
   12SAPS   H2R 1490   6.847   6.338   6.550  1.5498  1.7832 -1.0626
   12SAPS   H2S 1491   6.859   6.165   6.509  2.1929 -0.3502 -0.8501
   12SAPS    C3 1492   6.765   6.512   6.157  0.5728 -0.3545 -0.3379
   12SAPS    HX 1493   6.662   6.554   6.160  1.3469  1.5953 -0.2099
   12SAPS    HY 1494   6.793   6.531   6.051 -0.1875 -0.8341 -0.6291
   12SAPS   O31 1495   6.857   6.578   6.245 -0.6186 -0.0671 -0.6781
   12SAPS   C31 1496   6.814   6.610   6.365  0.3976  0.6377 -0.5037
   12SAPS   O32 1497   6.701   6.592   6.410  0.1881 -0.0271 -0.4781
   12SAPS   C32 1498   6.931   6.667   6.442 -0.8048  0.4839 -0.2366
   12SAPS   H2X 1499   6.968   6.754   6.384 -1.1512  3.1514  3.3856
   12SAPS   H2Y 1500   7.002   6.582   6.445 -3.0850 -1.4528  1.0480
   12SAPS   C23 1501   7.054   6.254   6.533 -0.4100 -0.3417  0.2246
   12SAPS   H3R 1502   7.093   6.356   6.509  2.2304 -1.3528  0.0465
   12SAPS   H3S 1503   7.122   6.184   6.479  0.9348 -2.5060  4.5406
   12SAPS   C24 1504   7.068   6.233   6.691  0.0870  0.4115 -0.1696
   12SAPS   H4R 1505   7.011   6.319   6.730 -1.1362 -0.6250  0.3490
   12SAPS   H4S 1506   7.174   6.236   6.723 -0.0139  1.2457  0.0879
   12SAPS   C25 1507   7.014   6.095   6.730  0.4645  0.4206 -0.6084
   12SAPS   H5R 1508   7.069   6.011   6.685  0.4938  1.0967 -1.8749
   12SAPS   C26 1509   6.923   6.066   6.827  0.5718 -0.6304 -0.0667
   12SAPS   H6R 1510   6.894   5.961   6.842 -1.0259 -0.2574 -0.5013
   12SAPS   C27 1511   6.862   6.173   6.907  0.4338  0.0341 -0.8047
   12SAPS   H7R 1512   6.823   6.250   6.837  1.5344  0.4738 -0.9350
   12SAPS   H7S 1513   6.942   6.228   6.961  2.1291 -1.6627 -1.5382
   12SAPS   C28 1514   6.755   6.133   7.013 -0.2070  0.7994 -0.1878
   12SAPS   H8R 1515   6.652   6.147   6.979 -0.3235 -0.7760 -0.5161
   12SAPS   C29 1516   6.783   6.072   7.135 -0.4101 -0.5408  0.0422
   12SAPS   H9R 1517   6.700   6.068   7.208 -0.1658  0.5495  0.3972
   12SAPS  C210 1518   6.916   6.037   7.191  0.0526 -0.2343  0.3008
   12SAPS  H10R 1519   6.983   6.027   7.104 -1.7299  0.4318 -1.1804
   12SAPS  H10S 1520   6.914   5.942   7.248 -2.3778  0.9779  2.4100
   12SAPS  C211 1521   6.974   6.148   7.280  0.3000  0.0278 -0.8423
   12SAPS  H11R 1522   7.027   6.221   7.218  1.0240 -2.2167 -2.9226
   12SAPS  C212 1523   6.961   6.164   7.415  0.0896  0.8500  0.7532
   12SAPS  H12R 1524   7.012   6.245   7.469  0.0225  1.1814  0.3229
   12SAPS  C213 1525   6.881   6.063   7.500 -0.4304  0.3658  0.3040
   12SAPS  H13R 1526   6.815   5.998   7.439  1.6665 -0.5098 -1.0829
   12SAPS  H13S 1527   6.813   6.122   7.565  0.1570  0.1516  1.1224
   12SAPS  C214 1528   6.973   5.973   7.577  0.0903 -0.4278 -0.9897
   12SAPS  H14R 1529   7.062   5.935   7.525  1.7350  1.4248  0.3938
   12SAPS  C215 1530   6.941   5.928   7.705 -0.3895 -0.4961 -0.9564
   12SAPS  H15R 1531   7.002   5.865   7.772 -1.7985  0.1429  0.9880
   12SAPS  C216 1532   6.812   5.965   7.775 -0.6547  0.2992 -0.1645
   12SAPS  H16R 1533   6.762   5.869   7.800 -0.5476  0.3642  0.2976
   12SAPS  H16S 1534   6.744   6.024   7.708 -1.0837  1.8135  1.5710
   12SAPS  C217 1535   6.823   6.044   7.907 -0.0983 -0.1586  0.0970
   12SAPS  H17R 1536   6.874   6.139   7.882  0.6402 -0.1999  1.4039
   12SAPS  H17S 1537   6.888   5.988   7.978 -2.0481  1.4572  3.2832
   12SAPS  C218 1538   6.683   6.087   7.970 -0.3492  0.0680 -0.0267
   12SAPS  H18R 1539   6.627   5.993   7.990  0.2563 -0.1166  0.8096
   12SAPS  H18S 1540   6.629   6.138   7.887 -0.5826 -2.5071 -1.5046
   12SAPS  C219 1541   6.695   6.181   8.090 -0.5155  0.5150 -0.3213
   12SAPS  H19R 1542   6.728   6.279   8.048 -2.1015  1.4132  0.4664
   12SAPS  H19S 1543   6.768   6.145   8.165  0.0358 -0.1202 -1.1601
   12SAPS  C220 1544   6.555   6.193   8.151 -0.0512 -0.2871  0.0416
   12SAPS  H20R 1545   6.565   6.246   8.248 -1.0208  1.6785 -0.9040
   12SAPS  H20S 1546   6.505   6.094   8.147 -2.1645  0.7964 -2.2248
   12SAPS  H20T 1547   6.482   6.258   8.098 -0.7257  0.2150  1.5417
   12SAPS   C33 1548   6.908   6.708   6.588 -0.6592 -0.2721 -0.0547
   12SAPS   H3X 1549   6.817   6.771   6.603  1.3455  2.9313 -0.8601
   12SAPS   H3Y 1550   6.994   6.774   6.613 -1.1975 -0.0622  1.2560
   12SAPS   C34 1551   6.913   6.592   6.688  0.1577 -0.3627  0.0142
   12SAPS   H4X 1552   7.006   6.535   6.667  2.2790  2.9309  0.1955
   12SAPS   H4Y 1553   6.835   6.515   6.669 -1.4737  0.8893  1.4306
   12SAPS   C35 1554   6.901   6.649   6.831  0.9843 -0.3887  0.2696
   12SAPS   H5X 1555   6.809   6.711   6.829  0.4374 -1.2168 -0.6486
   12SAPS   H5Y 1556   6.990   6.713   6.853  0.2399  1.6487 -2.4362
   12SAPS   C36 1557   6.881   6.534   6.930  0.3213 -0.2902 -0.4763
   12SAPS   H6X 1558   6.963   6.465   6.898 -0.9312 -2.3414  0.6061
   12SAPS   H6Y 1559   6.783   6.487   6.907 -0.0258 -0.2710  0.9321
   12SAPS   C37 1560   6.902   6.551   7.082  0.5101  0.5986 -0.4754
   12SAPS   H7X 1561   6.830   6.481   7.129  0.9749  0.3173 -0.1821
   12SAPS   H7Y 1562   6.862   6.652   7.108 -0.5378  0.3539 -1.1258
   12SAPS   C38 1563   7.048   6.531   7.132  0.1307 -0.6396  0.2134
   12SAPS   H8X 1564   7.110   6.597   7.067 -2.2593  2.4873  1.0310
   12SAPS   H8Y 1565   7.084   6.427   7.110 -0.8339 -1.3035  1.7194
   12SAPS   C39 1566   7.064   6.556   7.285  0.3542 -0.0063  0.4426
   12SAPS   H9X 1567   7.005   6.483   7.344 -0.4364  1.2749  1.2670
   12SAPS   H9Y 1568   7.029   6.659   7.309 -2.4894 -0.8121 -0.1097
   12SAPS  C310 1569   7.209   6.537   7.343  0.4386 -0.5943  0.2465
   12SAPS  H10X 1570   7.280   6.582   7.270  0.5099 -1.7146 -0.3755
   12SAPS  H10Y 1571   7.237   6.430   7.337  2.8764  0.0837 -1.1182
   12SAPS  C311 1572   7.229   6.591   7.486  0.6751  0.8865 -0.0261
   12SAPS  H11X 1573   7.194   6.697   7.484  1.9325  1.3017 -0.5304
   12SAPS  H11Y 1574   7.336   6.588   7.514  0.7337 -1.3662 -0.4253
   12SAPS  C312 1575   7.153   6.530   7.604  0.4053 -0.1765  0.4202
   12SAPS  H12X 1576   7.052   6.523   7.558  0.9573 -2.0593 -0.5748
   12SAPS  H12Y 1577   7.153   6.594   7.694  0.5687  2.6248 -1.5049
   12SAPS  C313 1578   7.198   6.392   7.642 -0.4736  0.2906  0.3226
   12SAPS  H13X 1579   7.298   6.401   7.690 -0.1851 -1.9986  0.2044
   12SAPS  H13Y 1580   7.205   6.332   7.548 -1.9154  0.4250  0.1226
   12SAPS  C314 1581   7.106   6.320   7.742 -0.0684 -0.8033 -0.3429
   12SAPS  H14X 1582   7.003   6.308   7.703 -1.3266  1.0953  2.2086
   12SAPS  H14Y 1583   7.099   6.382   7.834  1.9022 -0.7880 -0.1694
   12SAPS  C315 1584   7.161   6.186   7.781 -0.0064 -0.1817  0.2185
   12SAPS  H15X 1585   7.194   6.143   7.683 -3.6888  0.0921 -1.1989
   12SAPS  H15Y 1586   7.091   6.123   7.840  0.4462 -0.6722  0.2380
   12SAPS  C316 1587   7.292   6.196   7.863  0.1776  0.7301 -0.3642
   12SAPS  H16X 1588   7.272   6.268   7.945 -0.0886 -0.3890  0.5552
   12SAPS  H16Y 1589   7.369   6.229   7.790 -1.5871  0.6573 -2.3310
   12SAPS  C317 1590   7.323   6.059   7.923 -0.5404  0.5815 -0.9835
   12SAPS  H17X 1591   7.344   6.002   7.831 -1.5885  1.6640 -1.9099
   12SAPS  H17Y 1592   7.230   6.029   7.976  0.1144 -0.6802 -0.5425
   12SAPS  C318 1593   7.440   6.049   8.022 -0.3646 -0.3947  0.6374
   12SAPS  H18X 1594   7.446   6.129   8.099  0.3835  0.1510  0.0239
   12SAPS  H18Y 1595   7.529   6.057   7.956 -0.8857 -1.8381 -0.2612
   12SAPS  H18Z 1596   7.444   5.954   8.079 -0.8309 -0.8170 -0.0292
   13SAPS     N 1597   0.734   3.397   6.252  0.3945  0.3329 -0.5559
   13SAPS   HN1 1598   0.805   3.333   6.291 -0.6528  1.1013  2.7843
   13SAPS   HN2 1599   0.735   3.477   6.319  1.4678  0.4995 -0.7685
   13SAPS   HN3 1600   0.646   3.343   6.239  1.2763 -1.5350  1.0302
   13SAPS   C12 1601   0.772   3.428   6.108  0.2515  1.3759 -0.1847
   13SAPS  H12A 1602   0.871   3.471   6.105  0.7841  0.3011  1.4806
   13SAPS   C13 1603   0.773   3.292   6.023 -0.1077  0.4998  0.3452
   13SAPS  O13A 1604   0.753   3.179   6.075  0.0500 -0.2047  0.5645
   13SAPS  O13B 1605   0.816   3.301   5.900  0.6504  0.4060 -0.4465
   13SAPS   C11 1606   0.668   3.529   6.054 -0.0813 -1.0753 -0.5292
   13SAPS  H11A 1607   0.564   3.494   6.074 -1.0331  2.4877  1.1264
   13SAPS  H11B 1608   0.674   3.534   5.943  2.5850  2.2122 -0.2864
   13SAPS     P 1609   0.629   3.789   6.060 -0.0561 -0.1220 -0.3675
   13SAPS   O13 1610   0.742   3.870   6.006 -0.0487 -0.3144 -0.0989
   13SAPS   O14 1611   0.515   3.755   5.978 -0.7406 -0.3343 -0.1373
   13SAPS   O12 1612   0.678   3.653   6.129  0.3064 -0.2542  0.2791
   13SAPS   O11 1613   0.576   3.866   6.190 -0.0956  0.4462  0.1860
   13SAPS    C1 1614   0.594   3.836   6.327  0.1227  0.2933 -0.0713
   13SAPS    HA 1615   0.687   3.780   6.351 -1.0600 -0.3292  3.3348
   13SAPS    HB 1616   0.608   3.931   6.383  1.2431 -0.3229  0.7305
   13SAPS    C2 1617   0.474   3.768   6.389  0.3250 -0.3392 -0.0988
   13SAPS    HS 1618   0.388   3.796   6.325 -1.2417 -1.3949  1.5083
   13SAPS   O21 1619   0.471   3.808   6.530 -0.2614  0.4474 -0.7525
   13SAPS   C21 1620   0.352   3.810   6.582  0.2202 -0.0442 -0.0076
   13SAPS   O22 1621   0.245   3.793   6.525 -0.2768  0.0728  0.2904
   13SAPS   C22 1622   0.362   3.844   6.732 -0.6007 -0.2125 -0.8358
   13SAPS   H2R 1623   0.463   3.809   6.765 -0.8901 -1.2080 -0.9991
   13SAPS   H2S 1624   0.362   3.954   6.747  0.8963 -0.4325  0.9934
   13SAPS    C3 1625   0.486   3.612   6.387 -0.5893  0.8295  0.9106
   13SAPS    HX 1626   0.503   3.589   6.279  0.0579  0.3365  1.1096
   13SAPS    HY 1627   0.403   3.554   6.432 -1.2748  0.6124 -0.6058
   13SAPS   O31 1628   0.612   3.571   6.452 -0.2644 -0.2732 -0.0667
   13SAPS   C31 1629   0.612   3.551   6.580  0.0479  0.2612  0.2358
   13SAPS   O32 1630   0.510   3.551   6.650  0.1979 -0.3375  0.8153
   13SAPS   C32 1631   0.753   3.527   6.637 -0.6491  0.1666  1.3458
   13SAPS   H2X 1632   0.823   3.614   6.634  0.5038 -0.7814 -2.0117
   13SAPS   H2Y 1633   0.802   3.454   6.569 -1.7308  0.2971  0.4029
   13SAPS   C23 1634   0.256   3.776   6.822  0.2196 -0.0757 -0.1712
   13SAPS   H3R 1635   0.265   3.666   6.818  1.2007  0.0574 -1.8315
   13SAPS   H3S 1636   0.157   3.823   6.805 -0.3652  0.4142  3.9004
   13SAPS   C24 1637   0.281   3.812   6.970  0.4685 -0.3369  0.2515
   13SAPS   H4R 1638   0.291   3.923   6.967  0.3090 -0.3696 -1.8071
   13SAPS   H4S 1639   0.382   3.780   7.004  0.3739 -2.5220 -1.4179
   13SAPS   C25 1640   0.171   3.784   7.069  0.4466 -0.3970 -0.0309
   13SAPS   H5R 1641   0.077   3.747   7.025  0.8876 -0.0438 -1.3095
   13SAPS   C26 1642   0.179   3.800   7.206  0.4669  0.3588 -0.2557
   13SAPS   H6R 1643   0.084   3.785   7.260  0.7815 -1.3741 -0.1605
   13SAPS   C27 1644   0.303   3.841   7.283 -0.4199 -0.0885 -0.2253
   13SAPS   H7R 1645   0.295   3.939   7.335 -3.1794 -1.0686  1.3150
   13SAPS   H7S 1646   0.392   3.850   7.217 -1.8990 -0.3348 -2.3250
   13SAPS   C28 1647   0.327   3.737   7.393  0.1261 -0.5192  0.3671
   13SAPS   H8R 1648   0.303   3.636   7.356 -0.0162 -0.0783 -0.7503
   13SAPS   C29 1649   0.376   3.763   7.518 -0.3753 -0.6338 -0.9442
   13SAPS   H9R 1650   0.386   3.684   7.593  0.9760  1.3022  0.9874
   13SAPS  C210 1651   0.413   3.893   7.580 -0.0359  0.1194  0.7938
   13SAPS  H10R 1652   0.336   3.915   7.657  0.2676  0.7233  0.9263
   13SAPS  H10S 1653   0.410   3.975   7.505 -1.0168 -0.3157  0.3400
   13SAPS  C211 1654   0.551   3.896   7.640 -0.0320 -0.1030  0.5357
   13SAPS  H11R 1655   0.635   3.860   7.578 -0.8693 -1.5813  0.2298
   13SAPS  C212 1656   0.584   3.943   7.758 -0.2405  0.3924  0.2139
   13SAPS  H12R 1657   0.684   3.943   7.804 -0.8756 -0.4371  1.6464
   13SAPS  C213 1658   0.480   3.975   7.865 -0.1243 -0.6410 -0.3475
   13SAPS  H13R 1659   0.448   3.877   7.905  2.4588 -1.2162  0.3926
   13SAPS  H13S 1660   0.380   4.011   7.829  0.3475  1.5230  0.4205
   13SAPS  C214 1661   0.533   4.064   7.973  0.4220  0.8564 -0.3332
   13SAPS  H14R 1662   0.606   4.021   8.044 -2.0364 -0.8470  1.2112
   13SAPS  C215 1663   0.496   4.187   8.000 -0.5731  0.3096 -0.1902
   13SAPS  H15R 1664   0.536   4.239   8.089 -1.2868  2.8604 -1.3155
   13SAPS  C216 1665   0.397   4.272   7.921 -0.2395  0.1111 -0.4152
   13SAPS  H16R 1666   0.319   4.224   7.859  0.4854 -0.3979 -0.9463
   13SAPS  H16S 1667   0.462   4.338   7.858  1.1548  3.6446  4.4505
   13SAPS  C217 1668   0.331   4.384   8.013 -0.1098 -0.2778 -0.1337
   13SAPS  H17R 1669   0.398   4.465   8.048  1.2652 -1.6269  0.4360
   13SAPS  H17S 1670   0.270   4.344   8.098 -4.2917  2.4093 -1.7128
   13SAPS  C218 1671   0.228   4.452   7.926  0.2984  0.3584  0.4419
   13SAPS  H18R 1672   0.162   4.375   7.882 -0.0215  0.4097  0.8300
   13SAPS  H18S 1673   0.284   4.500   7.843  0.1160 -0.9190 -0.4316
   13SAPS  C219 1674   0.154   4.574   7.987 -0.5008  0.4634  0.0626
   13SAPS  H19R 1675   0.222   4.646   8.038 -0.0369  0.9625 -1.2382
   13SAPS  H19S 1676   0.083   4.530   8.059 -0.6342  0.8378  0.1617
   13SAPS  C220 1677   0.087   4.651   7.872  0.2889  0.4524 -0.4231
   13SAPS  H20R 1678   0.169   4.706   7.820  0.8160  0.0051 -0.0729
   13SAPS  H20S 1679   0.030   4.731   7.923 -1.3304  1.8110 -4.2099
   13SAPS  H20T 1680   0.028   4.578   7.812  1.0147 -1.8128  1.5057
   13SAPS   C33 1681   0.747   3.475   6.784 -0.4064  0.1681  0.0418
   13SAPS   H3X 1682   0.843   3.427   6.812 -1.4631 -1.8308  0.2799
   13SAPS   H3Y 1683   0.676   3.391   6.793 -0.2765  0.0606  0.0676
   13SAPS   C34 1684   0.726   3.583   6.888  0.0869  0.0563 -0.3260
   13SAPS   H4X 1685   0.661   3.662   6.844  0.8192 -1.0934 -3.6142
   13SAPS   H4Y 1686   0.821   3.639   6.905 -1.4935  2.0521  2.1795
   13SAPS   C35 1687   0.665   3.521   7.016  0.3473  0.0542 -0.7721
   13SAPS   H5X 1688   0.740   3.441   7.033  0.3046  0.5046  1.6954
   13SAPS   H5Y 1689   0.569   3.469   6.995  0.5033 -0.6645  0.2747
   13SAPS   C36 1690   0.666   3.636   7.121 -0.2183 -1.0769  0.4564
   13SAPS   H6X 1691   0.595   3.710   7.079  1.4380  0.7381  0.7760
   13SAPS   H6Y 1692   0.771   3.674   7.118 -0.0018 -1.7312 -0.4027
   13SAPS   C37 1693   0.609   3.606   7.260 -0.0275  0.1736 -0.9772
   13SAPS   H7X 1694   0.500   3.587   7.259 -0.3655  2.0664 -0.6601
   13SAPS   H7Y 1695   0.629   3.687   7.334 -0.6938  0.5313 -1.1915
   13SAPS   C38 1696   0.682   3.484   7.317  0.4281  0.5240 -0.4955
   13SAPS   H8X 1697   0.778   3.460   7.267  1.6763  1.0457  1.5944
   13SAPS   H8Y 1698   0.615   3.397   7.300 -0.1113  0.4889  1.6317
   13SAPS   C39 1699   0.717   3.503   7.460  0.0901 -0.1716  1.1568
   13SAPS   H9X 1700   0.630   3.549   7.511  1.0160  0.5792  2.0781
   13SAPS   H9Y 1701   0.796   3.580   7.468  0.7311 -0.7674  0.6849
   13SAPS  C310 1702   0.764   3.377   7.535 -0.3006 -0.8599 -0.0363
   13SAPS  H10X 1703   0.826   3.316   7.466  2.1347  0.2261  1.0993
   13SAPS  H10Y 1704   0.670   3.326   7.566 -0.7414 -0.3171 -0.4806
   13SAPS  C311 1705   0.831   3.402   7.673 -0.0623  0.3746 -0.6700
   13SAPS  H11X 1706   0.924   3.461   7.665 -2.1988  4.1575  1.2545
   13SAPS  H11Y 1707   0.857   3.300   7.710  1.2719  0.1376 -2.2024
   13SAPS  C312 1708   0.736   3.468   7.774  0.2999  0.3777 -0.2827
   13SAPS  H12X 1709   0.657   3.395   7.804 -0.3010  0.9795 -0.4081
   13SAPS  H12Y 1710   0.695   3.560   7.728  0.1594  0.8758  0.8140
   13SAPS  C313 1711   0.793   3.506   7.914 -0.5052  0.3889  0.0428
   13SAPS  H13X 1712   0.882   3.569   7.893  1.9553 -1.8854  3.1034
   13SAPS  H13Y 1713   0.832   3.419   7.971  1.3005 -0.5827 -2.5944
   13SAPS  C314 1714   0.703   3.602   8.004 -0.8325  0.0271  0.2592
   13SAPS  H14X 1715   0.620   3.534   8.033  1.4042 -1.6746  2.9511
   13SAPS  H14Y 1716   0.672   3.691   7.944  0.3409 -1.2591 -2.3782
   13SAPS  C315 1717   0.785   3.652   8.121  0.3486 -0.1069 -0.8137
   13SAPS  H15X 1718   0.886   3.681   8.086  0.2554 -1.1694 -1.9838
   13SAPS  H15Y 1719   0.788   3.560   8.184  0.3290 -0.0982 -0.7992
   13SAPS  C316 1720   0.715   3.767   8.199 -0.7795  0.3416  0.2743
   13SAPS  H16X 1721   0.610   3.732   8.211 -1.0253  1.3275  1.0414
   13SAPS  H16Y 1722   0.716   3.864   8.146 -0.4069 -0.5859 -1.4568
   13SAPS  C317 1723   0.759   3.775   8.351 -0.0740 -0.1844 -0.8473
   13SAPS  H17X 1724   0.867   3.802   8.354  0.1062 -0.9004 -0.7307
   13SAPS  H17Y 1725   0.745   3.678   8.403  0.2373  0.5050  0.5328
   13SAPS  C318 1726   0.678   3.877   8.432 -0.3276  0.2981  0.1820
   13SAPS  H18X 1727   0.695   3.976   8.385  2.4407 -0.6841 -1.0049
   13SAPS  H18Y 1728   0.711   3.876   8.539 -1.0543 -0.4752  0.4094
   13SAPS  H18Z 1729   0.574   3.838   8.435  0.0349 -0.6852  0.3565
   14SAPS     N 1730   6.805   5.491   5.924  0.6566  0.0339 -0.1375
   14SAPS   HN1 1731   6.901   5.450   5.933 -0.2841 -2.1987  0.0905
   14SAPS   HN2 1732   6.770   5.530   6.013  1.2285 -1.0072  0.5599
   14SAPS   HN3 1733   6.739   5.411   5.914  0.8791 -0.4184  1.8538
   14SAPS   C12 1734   6.797   5.587   5.818 -0.1833 -0.9475 -0.4380
   14SAPS  H12A 1735   6.831   5.555   5.720  0.5473  0.9654 -0.8332
   14SAPS   C13 1736   6.650   5.621   5.792 -0.1575  0.3259 -0.2405
   14SAPS  O13A 1737   6.559   5.553   5.849 -0.0403  0.6150  0.4697
   14SAPS  O13B 1738   6.622   5.705   5.700 -0.4596  0.1848 -0.2855
   14SAPS   C11 1739   6.869   5.726   5.849  0.3749  0.7105  0.4619
   14SAPS  H11A 1740   6.863   5.756   5.956  1.4820  0.2597  0.6577
   14SAPS  H11B 1741   6.831   5.803   5.779 -1.9265 -0.9289 -0.1666
   14SAPS     P 1742   7.119   5.670   5.935  0.3829 -0.3470 -0.8422
   14SAPS   O13 1743   7.113   5.523   5.947 -0.2300 -0.3109  0.5039
   14SAPS   O14 1744   7.248   5.741   5.906  0.7341 -0.3289  0.0757
   14SAPS   O12 1745   7.009   5.715   5.824 -0.2787 -0.0843 -0.2547
   14SAPS   O11 1746   7.057   5.739   6.069 -0.7824 -0.5805  0.0919
   14SAPS    C1 1747   7.048   5.878   6.098 -0.2477 -0.2382 -0.1116
   14SAPS    HA 1748   7.137   5.928   6.054 -0.1501  0.0206  0.3857
   14SAPS    HB 1749   6.950   5.921   6.066  0.4381  0.5124 -1.2432
   14SAPS    C2 1750   7.043   5.894   6.250 -0.0700 -0.4726 -0.6600
   14SAPS    HS 1751   7.007   5.998   6.261  1.3399  0.3515 -3.2655
   14SAPS   O21 1752   7.173   5.879   6.318 -0.0385 -0.2262 -0.5340
   14SAPS   C21 1753   7.266   5.954   6.276  0.1971  0.5161  0.7916
   14SAPS   O22 1754   7.258   6.055   6.210  0.2450  0.6321  0.5336
   14SAPS   C22 1755   7.387   5.927   6.359 -0.7332  0.2837 -0.4628
   14SAPS   H2R 1756   7.392   5.821   6.392  1.1368  0.3144 -0.6358
   14SAPS   H2S 1757   7.479   5.951   6.302  0.6807  1.8592  2.3662
   14SAPS    C3 1758   6.932   5.792   6.314  0.1338 -0.1585 -0.3273
   14SAPS    HX 1759   6.977   5.690   6.325  0.3109 -0.4516 -3.2871
   14SAPS    HY 1760   6.855   5.795   6.234 -1.1850 -2.1090  0.8143
   14SAPS   O31 1761   6.879   5.834   6.443 -0.3922 -1.3490  0.3964
   14SAPS   C31 1762   6.791   5.749   6.496  0.2200 -0.3582 -0.0178
   14SAPS   O32 1763   6.762   5.640   6.441  0.1447 -0.1547 -0.2326
   14SAPS   C32 1764   6.725   5.814   6.620  0.4011 -0.4187 -0.4176
   14SAPS   H2X 1765   6.693   5.916   6.590  0.5468  0.6886  2.9625
   14SAPS   H2Y 1766   6.806   5.835   6.693  0.3627  1.8308 -0.9869
   14SAPS   C23 1767   7.391   6.007   6.495  0.6337  0.8728  0.0016
   14SAPS   H3R 1768   7.345   6.105   6.472  0.4752  0.5623 -1.0435
   14SAPS   H3S 1769   7.496   6.011   6.532  0.5125 -1.2175  0.6575
   14SAPS   C24 1770   7.310   5.937   6.607 -0.2450  0.3956 -0.0030
   14SAPS   H4R 1771   7.208   5.904   6.578 -0.6518 -1.5140  3.3291
   14SAPS   H4S 1772   7.300   6.020   6.680 -0.0829  1.1679 -0.8433
   14SAPS   C25 1773   7.367   5.816   6.666  0.5249  0.2163 -0.3772
   14SAPS   H5R 1774   7.367   5.731   6.596  0.5533 -0.7400  0.7556
   14SAPS   C26 1775   7.396   5.793   6.796  0.6158  0.8999 -0.0511
   14SAPS   H6R 1776   7.432   5.693   6.825  1.2545  1.2145  0.2478
   14SAPS   C27 1777   7.370   5.884   6.913 -0.9866 -0.6441  0.3747
   14SAPS   H7R 1778   7.378   5.816   7.001  3.2314 -0.3404  0.3215
   14SAPS   H7S 1779   7.266   5.921   6.901 -1.2354 -0.9808  1.4078
   14SAPS   C28 1780   7.462   6.004   6.923 -0.3745 -0.3844  0.4619
   14SAPS   H8R 1781   7.552   5.993   6.861 -0.6248 -0.1711  0.0654
   14SAPS   C29 1782   7.443   6.115   6.994  0.0593  0.4271 -0.0330
   14SAPS   H9R 1783   7.520   6.193   7.002 -0.3124  0.7845  0.0298
   14SAPS  C210 1784   7.322   6.139   7.077 -1.1458  0.0184  0.1653
   14SAPS  H10R 1785   7.266   6.044   7.092 -1.9567  0.0595 -2.3320
   14SAPS  H10S 1786   7.251   6.205   7.023  0.2262  2.2724  1.0750
   14SAPS  C211 1787   7.370   6.203   7.207 -1.0709  0.1087  0.3434
   14SAPS  H11R 1788   7.409   6.305   7.193  0.2951 -0.4263  0.1549
   14SAPS  C212 1789   7.353   6.153   7.329 -0.1069  0.5032  0.1093
   14SAPS  H12R 1790   7.411   6.198   7.411  1.5907 -0.8846 -0.2905
   14SAPS  C213 1791   7.287   6.021   7.364  0.0333 -0.7642  0.2211
   14SAPS  H13R 1792   7.200   6.000   7.299  2.4089  1.4489 -3.8446
   14SAPS  H13S 1793   7.248   6.030   7.468 -0.9489  0.2529 -0.2230
   14SAPS  C214 1794   7.378   5.896   7.347 -0.3946 -0.5039  0.3851
   14SAPS  H14R 1795   7.382   5.878   7.238  1.8913  0.0488  0.3536
   14SAPS  C215 1796   7.433   5.817   7.443 -0.1944  0.2310 -0.2443
   14SAPS  H15R 1797   7.501   5.737   7.409  0.5324  0.6648  0.1619
   14SAPS  C216 1798   7.414   5.824   7.590 -0.2938  0.1237 -0.7470
   14SAPS  H16R 1799   7.318   5.878   7.606 -0.8728 -1.5286  1.5588
   14SAPS  H16S 1800   7.494   5.879   7.644 -1.5594 -0.1527  1.4441
   14SAPS  C217 1801   7.400   5.683   7.654 -0.5989 -0.8470 -0.0932
   14SAPS  H17R 1802   7.312   5.623   7.624 -0.1935  0.1153 -3.3284
   14SAPS  H17S 1803   7.375   5.703   7.761  0.4670  1.1114 -0.1835
   14SAPS  C218 1804   7.527   5.594   7.636  0.1778 -0.5645 -0.2346
   14SAPS  H18R 1805   7.614   5.648   7.679  1.3699 -1.0493 -1.9836
   14SAPS  H18S 1806   7.561   5.589   7.531  2.4625  0.5659  0.4287
   14SAPS  C219 1807   7.514   5.466   7.703 -0.4979  0.8522  0.3742
   14SAPS  H19R 1808   7.436   5.415   7.643  2.4095 -1.5009 -1.5941
   14SAPS  H19S 1809   7.467   5.475   7.803 -0.4249 -0.5913  0.5559
   14SAPS  C220 1810   7.649   5.388   7.716  0.5342 -0.6367 -0.4171
   14SAPS  H20R 1811   7.696   5.394   7.616 -0.0229 -1.1988 -0.7171
   14SAPS  H20S 1812   7.621   5.285   7.747 -2.6872  0.7716  1.7009
   14SAPS  H20T 1813   7.715   5.441   7.788 -1.6948 -1.6678  2.5346
   14SAPS   C33 1814   6.611   5.735   6.682  0.6666  0.1316  0.1269
   14SAPS   H3X 1815   6.628   5.625   6.683 -0.3714 -0.0596  3.0356
   14SAPS   H3Y 1816   6.518   5.739   6.621  1.3293 -0.1129 -0.8913
   14SAPS   C34 1817   6.587   5.786   6.823 -0.1778  0.6355  0.3683
   14SAPS   H4X 1818   6.557   5.893   6.819 -0.7424  0.4802  0.4877
   14SAPS   H4Y 1819   6.687   5.788   6.871 -0.1910  0.2072  0.4200
   14SAPS   C35 1820   6.496   5.695   6.898  0.0369  0.2184  0.1840
   14SAPS   H5X 1821   6.540   5.593   6.896  1.6935  0.8530  2.4576
   14SAPS   H5Y 1822   6.390   5.686   6.864  0.4428  3.0973 -2.0543
   14SAPS   C36 1823   6.498   5.740   7.041  0.9818  0.3408  0.0669
   14SAPS   H6X 1824   6.599   5.742   7.087  0.4723 -0.5880  1.2317
   14SAPS   H6Y 1825   6.437   5.661   7.089  1.1745 -1.0705 -1.9445
   14SAPS   C37 1826   6.439   5.886   7.066  0.1178 -0.0571  0.6380
   14SAPS   H7X 1827   6.349   5.916   7.009  0.4770 -0.6643 -0.2498
   14SAPS   H7Y 1828   6.523   5.957   7.052  0.7300 -0.9326 -0.2033
   14SAPS   C38 1829   6.420   5.899   7.214 -0.3418  0.5773  0.0863
   14SAPS   H8X 1830   6.518   5.873   7.260 -1.6106 -3.1641  0.9195
   14SAPS   H8Y 1831   6.356   5.814   7.246  0.7712  0.2539  1.5362
   14SAPS   C39 1832   6.356   6.027   7.261 -0.1875  0.9196  0.2026
   14SAPS   H9X 1833   6.261   6.042   7.207  0.9566  1.2974 -1.7476
   14SAPS   H9Y 1834   6.412   6.121   7.242 -2.0114  2.0561  0.3922
   14SAPS  C310 1835   6.322   6.019   7.414  0.1424  0.0167 -0.0070
   14SAPS  H10X 1836   6.330   5.915   7.451  1.3974 -0.0587 -0.4542
   14SAPS  H10Y 1837   6.222   6.063   7.432 -0.2869 -1.1766  0.5335
   14SAPS  C311 1838   6.421   6.104   7.497 -0.3558 -0.3941  0.5781
   14SAPS  H11X 1839   6.465   6.181   7.430 -0.2959 -1.1658 -0.2958
   14SAPS  H11Y 1840   6.510   6.041   7.519  1.1988  2.0040  1.3395
   14SAPS  C312 1841   6.370   6.143   7.628  0.1763  0.0801 -0.0430
   14SAPS  H12X 1842   6.262   6.167   7.618  0.2132  0.0322 -0.5300
   14SAPS  H12Y 1843   6.431   6.229   7.663 -0.3042 -0.3408  1.9223
   14SAPS  C313 1844   6.375   6.022   7.732 -0.3522  0.0711 -0.1475
   14SAPS  H13X 1845   6.477   5.980   7.746  0.7614  2.3400 -1.1667
   14SAPS  H13Y 1846   6.314   5.942   7.685 -2.7574  0.6572  1.9201
   14SAPS  C314 1847   6.315   6.064   7.868 -0.6030 -0.7408  0.6692
   14SAPS  H14X 1848   6.209   6.095   7.852  0.0025  1.2279  0.2826
   14SAPS  H14Y 1849   6.362   6.157   7.906 -2.5842  1.2073 -1.4099
   14SAPS  C315 1850   6.315   5.961   7.979  0.2649  1.2768  0.4567
   14SAPS  H15X 1851   6.323   6.012   8.078  2.2759 -0.5100  1.2484
   14SAPS  H15Y 1852   6.409   5.904   7.966  0.3280  0.5634  3.5873
   14SAPS  C316 1853   6.192   5.865   7.973  0.2316 -0.5747  0.1768
   14SAPS  H16X 1854   6.173   5.823   7.872 -0.9832  0.2360  0.0562
   14SAPS  H16Y 1855   6.094   5.906   8.006  1.7996  2.4300  1.2939
   14SAPS  C317 1856   6.227   5.744   8.057 -0.7775 -0.1764 -0.3757
   14SAPS  H17X 1857   6.132   5.690   8.077 -1.2207  1.1375  1.1459
   14SAPS  H17Y 1858   6.286   5.785   8.142 -0.3551  0.8352 -1.1464
   14SAPS  C318 1859   6.324   5.642   7.988 -0.1654  0.7699 -0.2073
   14SAPS  H18X 1860   6.364   5.570   8.063  0.9475 -0.4811 -1.9454
   14SAPS  H18Y 1861   6.410   5.696   7.944  1.2161 -0.0002  1.5099
   14SAPS  H18Z 1862   6.280   5.586   7.902  0.6244  1.1840 -0.8895
   15SAPS     N 1863   1.028   5.816   5.681 -0.0182 -0.3592  0.1769
   15SAPS   HN1 1864   0.942   5.788   5.733 -1.4435  1.6932 -1.0412
   15SAPS   HN2 1865   1.037   5.918   5.697 -3.3235 -0.4148  2.8889
   15SAPS   HN3 1866   1.026   5.796   5.579  1.3653  2.9844 -0.5516
   15SAPS   C12 1867   1.138   5.753   5.755  0.4525  0.8179 -0.1021
   15SAPS  H12A 1868   1.131   5.647   5.736  3.7481  0.7753 -1.4051
   15SAPS   C13 1869   1.278   5.810   5.713 -0.0866 -0.9099 -0.0906
   15SAPS  O13A 1870   1.285   5.910   5.634 -0.3102 -0.2465 -0.4910
   15SAPS  O13B 1871   1.376   5.769   5.776  0.6044  0.0607  0.0587
   15SAPS   C11 1872   1.119   5.772   5.910  1.1983  1.0918 -0.7718
   15SAPS  H11A 1873   1.158   5.869   5.947 -0.3199  1.0215  1.0653
   15SAPS  H11B 1874   1.179   5.693   5.959 -0.1972  0.2930 -0.3165
   15SAPS     P 1875   0.930   5.726   6.076 -0.0945 -0.3933 -0.0876
   15SAPS   O13 1876   0.818   5.816   6.122 -0.1915  0.2335  0.0653
   15SAPS   O14 1877   0.919   5.577   6.076  0.3652  0.5986 -0.1191
   15SAPS   O12 1878   0.978   5.769   5.938  0.3407  0.4038 -0.3381
   15SAPS   O11 1879   1.048   5.769   6.184  0.6413  0.2934  0.1400
   15SAPS    C1 1880   1.111   5.666   6.250 -0.8824  0.1294 -0.1578
   15SAPS    HA 1881   1.118   5.567   6.200 -1.0754  0.9069 -1.7431
   15SAPS    HB 1882   1.221   5.682   6.252 -0.4503 -2.6741 -0.0855
   15SAPS    C2 1883   1.059   5.656   6.401  0.3735  0.2429  0.1151
   15SAPS    HS 1884   1.128   5.584   6.449 -1.2703 -1.8832 -0.6388
   15SAPS   O21 1885   0.923   5.612   6.397  0.0261  0.0402 -0.4757
   15SAPS   C21 1886   0.904   5.490   6.362 -0.3829 -0.1166  0.3589
   15SAPS   O22 1887   0.990   5.411   6.331 -0.7242  0.0702  0.0284
   15SAPS   C22 1888   0.756   5.469   6.357  0.4270  0.1856 -0.7336
   15SAPS   H2R 1889   0.701   5.525   6.434  1.2139 -0.1898  0.1133
   15SAPS   H2S 1890   0.725   5.520   6.263  0.4513  0.2396 -0.7122
   15SAPS    C3 1891   1.082   5.795   6.473  0.0466 -0.8796 -0.6015
   15SAPS    HX 1892   1.016   5.873   6.429  1.6080  0.2356 -1.0100
   15SAPS    HY 1893   1.185   5.834   6.460 -0.5756  1.6394  1.5965
   15SAPS   O31 1894   1.055   5.773   6.613 -0.5008 -0.2474 -0.3333
   15SAPS   C31 1895   1.155   5.774   6.704 -0.2443  0.4653 -0.4885
   15SAPS   O32 1896   1.271   5.799   6.680 -0.3899 -0.0136  0.3673
   15SAPS   C32 1897   1.104   5.731   6.837 -0.2703 -0.9240 -0.8506
   15SAPS   H2X 1898   1.074   5.627   6.813 -1.1172 -0.9691  0.3613
   15SAPS   H2Y 1899   1.016   5.797   6.849 -1.4713 -1.8748 -4.1370
   15SAPS   C23 1900   0.711   5.319   6.372  0.1150 -0.5598  0.2259
   15SAPS   H3R 1901   0.778   5.259   6.306 -0.5150  0.1011 -1.0480
   15SAPS   H3S 1902   0.608   5.314   6.332 -0.5610 -0.0047  1.8592
   15SAPS   C24 1903   0.707   5.266   6.519 -0.7500  0.9000  0.6172
   15SAPS   H4R 1904   0.804   5.246   6.568 -2.1971 -1.0265  2.8085
   15SAPS   H4S 1905   0.663   5.166   6.500 -0.1452  0.7774 -0.1618
   15SAPS   C25 1906   0.615   5.345   6.611 -0.0235 -0.3312 -0.0031
   15SAPS   H5R 1907   0.518   5.376   6.568 -0.1085 -0.6028 -0.0065
   15SAPS   C26 1908   0.636   5.386   6.737  0.1970 -0.3096 -0.0943
   15SAPS   H6R 1909   0.560   5.452   6.781  1.6813  0.3222  1.5625
   15SAPS   C27 1910   0.765   5.379   6.817 -0.4667 -0.8116 -0.3584
   15SAPS   H7R 1911   0.790   5.481   6.855  0.8831 -1.7497  1.3572
   15SAPS   H7S 1912   0.859   5.352   6.764  0.7845  1.4304  0.6388
   15SAPS   C28 1913   0.743   5.274   6.926 -0.3203  0.7619  0.1039
   15SAPS   H8R 1914   0.723   5.172   6.890 -2.0359  0.6841  1.2103
   15SAPS   C29 1915   0.735   5.302   7.058  0.0486  0.4006 -0.4847
   15SAPS   H9R 1916   0.689   5.225   7.121  1.5982 -0.4246 -0.3376
   15SAPS  C210 1917   0.742   5.444   7.111 -0.3713 -0.0921 -0.7933
   15SAPS  H10R 1918   0.688   5.516   7.046 -0.9325 -0.0070 -0.2349
   15SAPS  H10S 1919   0.851   5.464   7.100 -0.2519 -1.0759 -1.4649
   15SAPS  C211 1920   0.688   5.446   7.251  0.3954 -0.3465 -0.0013
   15SAPS  H11R 1921   0.766   5.445   7.329 -0.3674  2.7667  0.8559
   15SAPS  C212 1922   0.562   5.478   7.294  0.7426 -0.7360  0.5974
   15SAPS  H12R 1923   0.536   5.474   7.401 -2.8648 -2.3906 -0.2615
   15SAPS  C213 1924   0.451   5.512   7.195 -0.6077  0.0010 -0.4106
   15SAPS  H13R 1925   0.421   5.416   7.147  0.3020  0.2507 -1.4935
   15SAPS  H13S 1926   0.501   5.576   7.119  0.0740  1.0384  0.8841
   15SAPS  C214 1927   0.338   5.586   7.256 -0.5901 -0.4049 -0.0781
   15SAPS  H14R 1928   0.323   5.562   7.363  2.3917  2.0373  0.9705
   15SAPS  C215 1929   0.247   5.676   7.201 -0.0281  0.4250  0.0075
   15SAPS  H15R 1930   0.177   5.723   7.271  0.0766 -2.6600  2.2779
   15SAPS  C216 1931   0.266   5.723   7.056  0.4960 -1.0588 -0.0285
   15SAPS  H16R 1932   0.361   5.687   7.011 -0.7889 -1.1142 -2.8027
   15SAPS  H16S 1933   0.262   5.833   7.043  1.3264 -0.8345  1.4126
   15SAPS  C217 1934   0.154   5.662   6.966  0.0723 -0.6531  0.5200
   15SAPS  H17R 1935   0.159   5.713   6.867 -0.6869 -1.0977  0.2535
   15SAPS  H17S 1936   0.050   5.663   7.004  0.1758  1.6839  0.7871
   15SAPS  C218 1937   0.189   5.515   6.925 -0.1681 -0.0248  0.0964
   15SAPS  H18R 1938   0.172   5.458   7.019  1.4515  0.1122  0.4787
   15SAPS  H18S 1939   0.293   5.515   6.886  0.4939 -1.6276  1.7965
   15SAPS  C219 1940   0.087   5.475   6.812 -0.5796  0.3769  0.1294
   15SAPS  H19R 1941   0.103   5.535   6.720  5.1988 -0.9797  0.0449
   15SAPS  H19S 1942  -0.018   5.494   6.844 -0.7818 -1.6891  0.7774
   15SAPS  C220 1943   0.092   5.325   6.784 -0.0448  0.0872 -0.2342
   15SAPS  H20R 1944   0.068   5.312   6.677  0.7650 -0.6669 -0.3343
   15SAPS  H20S 1945   0.027   5.261   6.847 -1.5342 -0.0134 -1.8565
   15SAPS  H20T 1946   0.194   5.282   6.796  0.9597  2.3448 -0.5397
   15SAPS   C33 1947   1.195   5.735   6.959  0.4009 -0.2817  0.9249
   15SAPS   H3X 1948   1.254   5.828   6.973  0.7690 -0.3832  0.0544
   15SAPS   H3Y 1949   1.276   5.661   6.945 -0.3013 -1.2082  1.6610
   15SAPS   C34 1950   1.117   5.708   7.088  0.0897  0.2259 -0.0417
   15SAPS   H4X 1951   1.075   5.605   7.081  1.1405 -0.5989  4.1952
   15SAPS   H4Y 1952   1.027   5.773   7.094 -1.1710 -1.5800  1.1434
   15SAPS   C35 1953   1.204   5.720   7.212 -0.3353  0.7003  0.4214
   15SAPS   H5X 1954   1.257   5.817   7.209  0.7484  0.0829 -1.7394
   15SAPS   H5Y 1955   1.277   5.637   7.208 -1.4001 -0.1852 -1.3651
   15SAPS   C36 1956   1.120   5.709   7.342  0.4061 -0.1457 -0.7037
   15SAPS   H6X 1957   1.193   5.683   7.421 -1.5171 -1.4952  0.6834
   15SAPS   H6Y 1958   1.047   5.625   7.336  0.0175  0.2015 -0.8790
   15SAPS   C37 1959   1.054   5.837   7.369  0.0405 -0.3602 -0.0020
   15SAPS   H7X 1960   0.980   5.851   7.287 -0.6348 -0.6662  0.5482
   15SAPS   H7Y 1961   1.127   5.921   7.362 -0.0348 -0.1789  1.2424
   15SAPS   C38 1962   0.972   5.853   7.497  0.6997 -0.0312  0.5667
   15SAPS   H8X 1963   0.916   5.760   7.520 -1.5071  1.2779  0.6607
   15SAPS   H8Y 1964   0.891   5.929   7.493  2.2700  1.6439 -0.1115
   15SAPS   C39 1965   1.071   5.899   7.619  1.0897 -0.6683  0.0311
   15SAPS   H9X 1966   1.108   6.000   7.593  0.6256 -0.8881 -1.5302
   15SAPS   H9Y 1967   1.155   5.826   7.624  0.2433 -1.7995 -1.6134
   15SAPS  C310 1968   0.995   5.896   7.749 -0.1240  0.3435  0.0065
   15SAPS  H10X 1969   0.935   5.803   7.751 -2.1149  1.5788 -0.3785
   15SAPS  H10Y 1970   0.929   5.986   7.746  0.7956  1.0615  0.7733
   15SAPS  C311 1971   1.083   5.909   7.872  0.0525  0.2128  0.1444
   15SAPS  H11X 1972   1.166   5.983   7.865  0.7749 -0.7052 -1.0880
   15SAPS  H11Y 1973   1.132   5.811   7.889  0.8528  1.0215  2.7777
   15SAPS  C312 1974   1.006   5.961   7.992  0.1241 -0.2654  0.0462
   15SAPS  H12X 1975   0.923   5.889   8.009 -0.1675 -0.0267 -0.3532
   15SAPS  H12Y 1976   0.957   6.059   7.973 -1.2147 -0.4589  2.3301
   15SAPS  C313 1977   1.088   5.954   8.119  0.4953  0.2348 -0.3783
   15SAPS  H13X 1978   1.178   6.018   8.109  1.6090 -1.4367 -1.1856
   15SAPS  H13Y 1979   1.131   5.852   8.125  1.3031  0.6150  0.3403
   15SAPS  C314 1980   1.027   6.008   8.250  0.2035 -0.2133  0.0040
   15SAPS  H14X 1981   1.009   6.117   8.245 -0.7342 -0.4276 -1.9232
   15SAPS  H14Y 1982   1.102   5.984   8.329 -0.7830  1.3661  1.4464
   15SAPS  C315 1983   0.893   5.941   8.279  0.3325  0.0234  0.3857
   15SAPS  H15X 1984   0.911   5.832   8.268  0.6771 -0.0335  1.3979
   15SAPS  H15Y 1985   0.822   5.986   8.207  0.0465  2.3765  2.0582
   15SAPS  C316 1986   0.845   5.962   8.420  0.2763 -0.3065 -0.4243
   15SAPS  H16X 1987   0.827   6.068   8.450  1.5734 -0.5837  1.4620
   15SAPS  H16Y 1988   0.922   5.933   8.495 -1.5665 -1.2391  1.1622
   15SAPS  C317 1989   0.703   5.900   8.454 -0.0343 -0.4284 -0.2673
   15SAPS  H17X 1990   0.704   5.790   8.443 -2.0009 -0.9249  3.4757
   15SAPS  H17Y 1991   0.633   5.940   8.378  0.3458  0.4133 -0.1770
   15SAPS  C318 1992   0.643   5.943   8.588 -0.3038 -0.4212  0.1710
   15SAPS  H18X 1993   0.695   5.902   8.676  2.1024  0.3579 -0.8609
   15SAPS  H18Y 1994   0.531   5.944   8.589 -0.2887  0.0484  2.0676
   15SAPS  H18Z 1995   0.662   6.053   8.586 -2.4030 -0.0400 -2.5263
   16SAPS     N 1996   2.519   0.979   6.525  0.3604  0.0956 -0.4553
   16SAPS   HN1 1997   2.556   1.072   6.556  0.0578 -0.1552  0.7026
   16SAPS   HN2 1998   2.416   0.991   6.516  0.2355 -1.7235 -1.7806
   16SAPS   HN3 1999   2.544   0.906   6.595  2.0458 -0.9215 -2.0866
   16SAPS   C12 2000   2.562   0.945   6.384 -0.1118  0.0604 -0.8256
   16SAPS  H12A 2001   2.480   0.888   6.343 -2.0006  0.5570  2.1012
   16SAPS   C13 2002   2.593   1.069   6.297 -0.3733  0.5450  0.4180
   16SAPS  O13A 2003   2.590   1.188   6.340  0.3692 -0.1518  0.5217
   16SAPS  O13B 2004   2.613   1.052   6.174 -0.2864  0.6698  0.2845
   16SAPS   C11 2005   2.691   0.862   6.387 -0.3501 -0.3776 -0.4483
   16SAPS  H11A 2006   2.780   0.918   6.425  0.2008 -2.2722  1.1408
   16SAPS  H11B 2007   2.711   0.835   6.281 -2.0368  0.8161 -1.0944
   16SAPS     P 2008   2.778   0.639   6.499  0.0543 -0.1689  0.0476
   16SAPS   O13 2009   2.713   0.537   6.579  0.1903 -0.1538  0.2839
   16SAPS   O14 2010   2.824   0.609   6.364  0.0730  0.7064 -0.4515
   16SAPS   O12 2011   2.668   0.751   6.473  0.3922  0.5657 -0.1453
   16SAPS   O11 2012   2.890   0.719   6.585  0.1523 -0.8359  0.7199
   16SAPS    C1 2013   2.864   0.814   6.691 -0.0901 -0.9344  0.0253
   16SAPS    HA 2014   2.901   0.917   6.674 -0.5802 -0.2335  2.9558
   16SAPS    HB 2015   2.756   0.822   6.719 -0.1364  1.3581 -0.7116
   16SAPS    C2 2016   2.935   0.760   6.819 -0.2755  0.0470  0.1180
   16SAPS    HS 2017   3.040   0.745   6.786 -1.5803 -1.4627 -3.6018
   16SAPS   O21 2018   2.868   0.634   6.864 -0.3192 -0.4304 -0.0922
   16SAPS   C21 2019   2.954   0.566   6.938 -0.8886 -0.6700 -1.0224
   16SAPS   O22 2020   3.075   0.589   6.954 -0.6400 -0.2737 -0.3221
   16SAPS   C22 2021   2.868   0.462   7.014  0.1149 -0.8814  0.7177
   16SAPS   H2R 2022   2.791   0.522   7.067  2.0824  2.1896  0.2202
   16SAPS   H2S 2023   2.827   0.398   6.933  1.6614 -1.6253  0.4968
   16SAPS    C3 2024   2.926   0.865   6.939 -0.4404  0.3400  0.2056
   16SAPS    HX 2025   2.974   0.955   6.895  1.8779 -0.8468  0.1965
   16SAPS    HY 2026   2.994   0.817   7.014  1.3991  1.4403 -0.7072
   16SAPS   O31 2027   2.793   0.887   6.995  0.0416  0.2101 -0.4082
   16SAPS   C31 2028   2.733   0.993   6.974 -1.4088 -0.6166 -0.1599
   16SAPS   O32 2029   2.761   1.082   6.892  0.6207  0.6191 -0.2876
   16SAPS   C32 2030   2.612   0.992   7.074  0.3033  0.2433 -0.0505
   16SAPS   H2X 2031   2.650   0.973   7.177 -2.2887  1.2678  1.1584
   16SAPS   H2Y 2032   2.548   0.908   7.039  0.5049 -0.1799  0.5763
   16SAPS   C23 2033   2.957   0.374   7.100  0.3444  0.0649  1.1903
   16SAPS   H3R 2034   2.994   0.433   7.187 -0.1431  3.4032 -0.7629
   16SAPS   H3S 2035   3.035   0.326   7.037  0.3563  0.6103  0.7913
   16SAPS   C24 2036   2.878   0.252   7.151 -0.0076 -0.4702  0.9014
   16SAPS   H4R 2037   2.825   0.202   7.067 -0.0768 -1.5598  1.5861
   16SAPS   H4S 2038   2.797   0.299   7.211  0.7667 -1.0033  2.4093
   16SAPS   C25 2039   2.958   0.150   7.239 -1.0387  0.3994 -0.1324
   16SAPS   H5R 2040   3.010   0.077   7.175 -1.4811 -0.7521  0.7932
   16SAPS   C26 2041   2.963   0.135   7.368  0.6220  0.3961  0.7676
   16SAPS   H6R 2042   3.021   0.057   7.420 -0.2653 -0.3083  0.7147
   16SAPS   C27 2043   2.890   0.223   7.465  0.7467 -0.0138  0.0943
   16SAPS   H7R 2044   2.883   0.325   7.421 -0.5721  1.3924  3.4069
   16SAPS   H7S 2045   2.952   0.226   7.557  0.9398 -0.0926 -0.0314
   16SAPS   C28 2046   2.758   0.169   7.521  0.3028 -0.0554 -0.0536
   16SAPS   H8R 2047   2.721   0.071   7.489  3.7166 -1.6265  0.5423
   16SAPS   C29 2048   2.696   0.229   7.627  0.1617 -0.1745  0.6805
   16SAPS   H9R 2049   2.592   0.206   7.652 -0.5576  2.3299  0.2201
   16SAPS  C210 2050   2.734   0.349   7.702 -0.1912  0.6713  0.3055
   16SAPS  H10R 2051   2.665   0.429   7.668  1.8288  0.9328 -3.3907
   16SAPS  H10S 2052   2.839   0.386   7.705  0.1833 -0.4580  3.1434
   16SAPS  C211 2053   2.707   0.315   7.845  0.2673  0.2730 -0.2586
   16SAPS  H11R 2054   2.790   0.261   7.892 -0.5680 -0.6520  0.1774
   16SAPS  C212 2055   2.594   0.331   7.919 -0.1932 -0.2877  0.3904
   16SAPS  H12R 2056   2.597   0.302   8.025 -0.1596 -1.8892 -0.0312
   16SAPS  C213 2057   2.466   0.376   7.859 -0.3112 -0.0917 -0.1596
   16SAPS  H13R 2058   2.464   0.334   7.756 -0.0966 -1.8994  0.5538
   16SAPS  H13S 2059   2.469   0.487   7.850  0.2103  0.0318  1.3174
   16SAPS  C214 2060   2.347   0.331   7.937 -0.1598 -0.6229 -0.5238
   16SAPS  H14R 2061   2.298   0.409   7.998 -1.0299 -0.5716 -1.2761
   16SAPS  C215 2062   2.289   0.208   7.934  0.0550 -0.0599 -0.1830
   16SAPS  H15R 2063   2.197   0.192   7.992 -0.1500  2.2133  0.1866
   16SAPS  C216 2064   2.326   0.087   7.852  1.2668 -0.6197 -1.0728
   16SAPS  H16R 2065   2.332   0.002   7.923  1.5205  1.4878  1.4762
   16SAPS  H16S 2066   2.422   0.101   7.797  0.9163  0.2236 -1.4853
   16SAPS  C217 2067   2.204   0.067   7.760 -0.3575 -0.3631  0.2307
   16SAPS  H17R 2068   2.108   0.077   7.815  0.4162 -2.3202  2.0476
   16SAPS  H17S 2069   2.202  -0.038   7.723  1.1972 -0.6223  0.8560
   16SAPS  C218 2070   2.174   0.170   7.646 -0.0793  0.5189  0.5433
   16SAPS  H18R 2071   2.150   0.268   7.693  1.3975  0.5991  1.1672
   16SAPS  H18S 2072   2.079   0.144   7.596  1.1009  0.4125 -1.7169
   16SAPS  C219 2073   2.292   0.200   7.556 -0.5422  0.0176 -0.2749
   16SAPS  H19R 2074   2.384   0.226   7.613 -1.1086  1.0229  0.1840
   16SAPS  H19S 2075   2.281   0.291   7.493  2.6232  1.5818  1.3194
   16SAPS  C220 2076   2.315   0.082   7.466 -0.0270  0.6904 -0.0249
   16SAPS  H20R 2077   2.360  -0.003   7.522 -0.6879  0.7408  0.5829
   16SAPS  H20S 2078   2.366   0.111   7.372 -0.3380  3.7196  0.6816
   16SAPS  H20T 2079   2.223   0.038   7.423  0.3496  1.2245 -1.4112
   16SAPS   C33 2080   2.532   1.121   7.067 -0.0938  0.1547 -1.1130
   16SAPS   H3X 2081   2.432   1.107   7.020 -1.1050 -1.1464  1.3762
   16SAPS   H3Y 2082   2.581   1.204   7.011  0.1063  1.0346  0.3366
   16SAPS   C34 2083   2.509   1.170   7.212  0.6977  0.3690  0.2098
   16SAPS   H4X 2084   2.611   1.203   7.244  1.5533 -1.2444 -0.8195
   16SAPS   H4Y 2085   2.474   1.090   7.280 -0.1504 -0.3001 -1.0031
   16SAPS   C35 2086   2.423   1.294   7.219  0.3788 -0.3384 -0.3906
   16SAPS   H5X 2087   2.316   1.273   7.202  0.4957  0.6606 -2.5494
   16SAPS   H5Y 2088   2.456   1.363   7.138 -0.7075  2.7872  1.7295
   16SAPS   C36 2089   2.421   1.366   7.355  0.2214  0.1404 -0.3815
   16SAPS   H6X 2090   2.372   1.464   7.339  1.4748  0.9561  0.7568
   16SAPS   H6Y 2091   2.523   1.401   7.381  0.8749 -1.5034 -0.6462
   16SAPS   C37 2092   2.352   1.288   7.467  0.2165  0.3171 -0.8167
   16SAPS   H7X 2093   2.410   1.194   7.476  1.7761  1.4357  1.1572
   16SAPS   H7Y 2094   2.244   1.272   7.444 -0.2662  1.2501  0.6919
   16SAPS   C38 2095   2.352   1.364   7.605 -0.3371 -0.3749 -0.0754
   16SAPS   H8X 2096   2.332   1.470   7.578 -1.4075 -0.7841 -0.8974
   16SAPS   H8Y 2097   2.457   1.364   7.641  0.5244  0.7445 -2.4722
   16SAPS   C39 2098   2.264   1.289   7.707  0.5067 -0.1236  0.4066
   16SAPS   H9X 2099   2.293   1.183   7.695 -0.2950 -0.3324  0.2374
   16SAPS   H9Y 2100   2.157   1.297   7.678  0.3513 -0.9409  0.7504
   16SAPS  C310 2101   2.277   1.324   7.856  0.4377  0.0828  0.0099
   16SAPS  H10X 2102   2.184   1.292   7.908  1.6092  0.2397  2.2540
   16SAPS  H10Y 2103   2.285   1.434   7.869 -0.2497  0.1621 -0.2380
   16SAPS  C311 2104   2.382   1.238   7.927 -0.9657  0.2604 -0.5066
   16SAPS  H11X 2105   2.481   1.241   7.877  0.7703  3.2864  2.8359
   16SAPS  H11Y 2106   2.348   1.132   7.926  0.6985 -0.2912 -0.2200
   16SAPS  C312 2107   2.407   1.293   8.072  0.2923  0.1531  0.5547
   16SAPS  H12X 2108   2.308   1.320   8.114  0.3940  1.2664  0.0745
   16SAPS  H12Y 2109   2.470   1.383   8.059 -0.0510  0.2467 -0.4659
   16SAPS  C313 2110   2.460   1.182   8.167  0.0872  0.0543  0.3876
   16SAPS  H13X 2111   2.408   1.085   8.159 -1.9815  1.2682 -1.3675
   16SAPS  H13Y 2112   2.446   1.221   8.271  2.2307  0.7613  0.4268
   16SAPS  C314 2113   2.616   1.161   8.160  0.0414  0.1296  0.0717
   16SAPS  H14X 2114   2.661   1.262   8.178  0.9796 -0.2662  0.0061
   16SAPS  H14Y 2115   2.635   1.125   8.057  0.6477  0.6398 -0.0028
   16SAPS  C315 2116   2.669   1.064   8.257  0.3511 -0.1642 -0.0193
   16SAPS  H15X 2117   2.771   1.038   8.222 -0.0243 -0.4083 -0.9307
   16SAPS  H15Y 2118   2.605   0.974   8.246 -0.3751 -0.0209  2.5675
   16SAPS  C316 2119   2.657   1.114   8.403 -0.3381 -0.1443  0.3093
   16SAPS  H16X 2120   2.552   1.120   8.438 -0.9942 -2.4559 -1.1601
   16SAPS  H16Y 2121   2.694   1.219   8.407 -1.4298  0.2580  0.1494
   16SAPS  C317 2122   2.727   1.031   8.513  0.0608 -0.3682  0.1351
   16SAPS  H17X 2123   2.836   1.045   8.498  0.0816 -0.4368  0.2194
   16SAPS  H17Y 2124   2.711   0.921   8.509 -0.4441 -0.2881 -0.0891
   16SAPS  C318 2125   2.694   1.084   8.649  0.2326  0.2471  0.2379
   16SAPS  H18X 2126   2.693   1.194   8.635  1.7451  0.0194 -1.7707
   16SAPS  H18Y 2127   2.780   1.073   8.719 -0.5043  2.8085  1.6212
   16SAPS  H18Z 2128   2.596   1.057   8.696  0.4394 -0.8848  0.0343
   17SAPC     N 2129   0.563   4.521  10.737  0.3254 -0.1636  0.2462
   17SAPC   C12 2130   0.425   4.464  10.704  0.1259  0.3285  0.3551
   17SAPC  H12A 2131   0.352   4.513  10.768 -0.7884  0.1281 -0.5296
   17SAPC  H12B 2132   0.422   4.357  10.716 -1.7474  0.2050 -0.9480
   17SAPC   C13 2133   0.569   4.650  10.665  0.1553  0.6352  0.1338
   17SAPC  H13A 2134   0.479   4.705  10.690 -1.5240 -1.3077 -1.3981
   17SAPC  H13B 2135   0.656   4.708  10.691  0.6027 -0.0510  0.1827
   17SAPC  H13C 2136   0.571   4.622  10.561 -0.3046  0.5450  0.1486
   17SAPC   C14 2137   0.574   4.544  10.887 -0.6361 -0.5709 -0.4991
   17SAPC  H14A 2138   0.501   4.616  10.921  0.0523 -0.6678  1.2589
   17SAPC  H14B 2139   0.564   4.455  10.948 -2.6722 -0.0579 -0.0476
   17SAPC  H14C 2140   0.671   4.590  10.903 -1.4682  1.1652 -0.3768
   17SAPC   C15 2141   0.677   4.432  10.700  0.0465 -0.6041  0.8067
   17SAPC  H15A 2142   0.680   4.402  10.596  0.4208 -1.3894  1.0440
   17SAPC  H15B 2143   0.768   4.489  10.702 -0.8962  0.9210  1.3328
   17SAPC  H15C 2144   0.681   4.343  10.761  1.1263 -1.3061 -0.2695
   17SAPC   C11 2145   0.379   4.479  10.555 -0.3262 -0.4376 -0.2603
   17SAPC  H11A 2146   0.348   4.584  10.536 -1.7503 -0.7163  0.4435
   17SAPC  H11B 2147   0.280   4.431  10.540 -0.8674  1.1997 -2.1596
   17SAPC     P 2148   0.486   4.277  10.455 -0.3872 -0.0715  0.1045
   17SAPC   O13 2149   0.626   4.234  10.437 -0.4112  0.5785  0.1604
   17SAPC   O14 2150   0.417   4.218  10.571 -0.9352 -0.0187 -0.0521
   17SAPC   O12 2151   0.477   4.433  10.458 -0.0406 -0.5777  0.0433
   17SAPC   O11 2152   0.392   4.241  10.331  0.3673 -0.6831  0.0369
   17SAPC    C1 2153   0.448   4.221  10.199  0.3890 -0.1363 -0.2580
   17SAPC    HA 2154   0.372   4.266  10.132  2.4991  0.4728 -2.3213
   17SAPC    HB 2155   0.546   4.272  10.182  0.1119  0.0408 -1.3704
   17SAPC    C2 2156   0.443   4.077  10.153  0.1766 -0.4715  0.5311
   17SAPC    HS 2157   0.513   4.011  10.209  0.5516  0.9031  1.7147
   17SAPC   O21 2158   0.455   4.055  10.012 -0.0472 -0.3088 -0.3632
   17SAPC   C21 2159   0.570   4.088   9.954  0.0534 -0.2461 -0.5986
   17SAPC   O22 2160   0.669   4.123  10.012 -0.0018 -0.1505  0.5358
   17SAPC   C22 2161   0.556   4.083   9.795  0.1011  0.6198 -0.2534
   17SAPC   H2R 2162   0.449   4.101   9.770  0.3384  2.4317 -0.0292
   17SAPC   H2S 2163   0.609   4.170   9.751 -1.6769  2.0776  0.4379
   17SAPC    C3 2164   0.307   4.017  10.187 -0.0792 -0.2702  0.2326
   17SAPC    HX 2165   0.294   4.027  10.297 -1.3467  2.3951 -0.1123
   17SAPC    HY 2166   0.310   3.909  10.161 -1.6972 -0.2508 -0.0993
   17SAPC   O31 2167   0.196   4.080  10.112 -0.4302 -0.0605  0.2804
   17SAPC   C31 2168   0.075   4.062  10.165  0.2080  0.2295 -0.3325
   17SAPC   O32 2169   0.048   3.989  10.254 -0.0677 -0.2625 -0.1694
   17SAPC   C32 2170  -0.028   4.146  10.092  0.2390  0.2777  0.7554
   17SAPC   H2X 2171   0.032   4.230  10.053  0.8252 -0.4037  0.1747
   17SAPC   H2Y 2172  -0.104   4.188  10.162 -0.2962 -0.2912  0.5218
   17SAPC   C23 2173   0.620   3.951   9.741  0.4531 -0.1026  0.0737
   17SAPC   H3R 2174   0.562   3.859   9.762  1.2456 -0.7486 -0.5155
   17SAPC   H3S 2175   0.722   3.943   9.784  0.4104 -0.3055  0.1349
   17SAPC   C24 2176   0.634   3.940   9.587 -0.6210 -0.2053  0.2132
   17SAPC   H4R 2177   0.542   3.987   9.547 -0.1162  2.8846  2.4879
   17SAPC   H4S 2178   0.635   3.835   9.552  2.4417 -0.5674  1.1985
   17SAPC   C25 2179   0.754   4.010   9.544  0.6013 -0.2047  0.2521
   17SAPC   H5R 2180   0.840   3.991   9.609 -0.5947 -0.9812  1.6265
   17SAPC   C26 2181   0.765   4.122   9.462 -0.7007  0.9910 -0.1674
   17SAPC   H6R 2182   0.859   4.157   9.418 -0.8211  1.9281  0.3098
   17SAPC   C27 2183   0.646   4.187   9.398  0.3763  0.2589  0.0160
   17SAPC   H7R 2184   0.675   4.289   9.364 -1.9495  0.8660 -0.2568
   17SAPC   H7S 2185   0.562   4.207   9.468  1.3794 -2.5275  2.0999
   17SAPC   C28 2186   0.590   4.104   9.283 -0.0074  0.1396 -0.4897
   17SAPC   H8R 2187   0.559   4.003   9.312  0.3818  0.3398  0.6574
   17SAPC   C29 2188   0.565   4.143   9.154  0.0513 -0.4063 -0.4354
   17SAPC   H9R 2189   0.540   4.067   9.080  1.7714 -1.3577 -0.0603
   17SAPC  C210 2190   0.591   4.277   9.096  0.3849  0.0097  0.1739
   17SAPC  H10R 2191   0.572   4.349   9.178 -2.9590 -1.9444  1.2041
   17SAPC  H10S 2192   0.520   4.303   9.014  0.1982 -0.2920  0.2394
   17SAPC  C211 2193   0.737   4.290   9.049  0.4858 -0.0597  0.1445
   17SAPC  H11R 2194   0.819   4.274   9.120  3.0938  1.1528 -2.4607
   17SAPC  C212 2195   0.778   4.328   8.925 -0.2176 -0.2578  0.6903
   17SAPC  H12R 2196   0.886   4.333   8.909 -0.5390 -0.5246 -1.6397
   17SAPC  C213 2197   0.686   4.374   8.814  0.1684  0.3675 -0.4352
   17SAPC  H13R 2198   0.682   4.485   8.808  1.3095  0.3765 -1.2307
   17SAPC  H13S 2199   0.581   4.346   8.833  1.0864 -0.4105  3.9058
   17SAPC  C214 2200   0.749   4.330   8.676 -0.5333  0.2489  0.3021
   17SAPC  H14R 2201   0.839   4.268   8.690 -0.6114  0.4865  1.9193
   17SAPC  C215 2202   0.672   4.337   8.567 -0.8615  0.0851  0.9951
   17SAPC  H15R 2203   0.715   4.283   8.481 -2.5540  0.5316 -0.1595
   17SAPC  C216 2204   0.539   4.406   8.549 -0.0590 -0.4215  0.6478
   17SAPC  H16R 2205   0.514   4.432   8.444  0.7930 -1.0317  0.2870
   17SAPC  H16S 2206   0.542   4.503   8.604  0.5203  0.9283 -1.7268
   17SAPC  C217 2207   0.430   4.312   8.603  0.6489 -0.3372  0.2894
   17SAPC  H17R 2208   0.334   4.366   8.619  0.0130 -1.1710 -0.6604
   17SAPC  H17S 2209   0.450   4.276   8.706 -0.8452  0.1891  0.7814
   17SAPC  C218 2210   0.399   4.193   8.503  0.3028  0.0970  0.1929
   17SAPC  H18R 2211   0.487   4.126   8.493  0.2543  0.2287 -1.3848
   17SAPC  H18S 2212   0.376   4.240   8.405  0.0795 -0.2003  0.1002
   17SAPC  C219 2213   0.289   4.105   8.559 -0.0703 -0.1838 -0.0217
   17SAPC  H19R 2214   0.302   4.090   8.668  0.1577 -2.3419 -0.3245
   17SAPC  H19S 2215   0.301   4.002   8.519 -0.9528 -0.0473 -0.6469
   17SAPC  C220 2216   0.149   4.155   8.534  0.0743 -0.7291  0.1693
   17SAPC  H20R 2217   0.075   4.080   8.568  0.8873 -2.2463 -1.3191
   17SAPC  H20S 2218   0.131   4.185   8.429  0.7338  2.3339  0.8685
   17SAPC  H20T 2219   0.136   4.253   8.585 -1.6783 -1.8014  1.8526
   17SAPC   C33 2220  -0.103   4.066   9.975  0.3349 -0.2278 -0.7364
   17SAPC   H3X 2221  -0.143   3.971  10.017  1.5509 -0.1821  0.5484
   17SAPC   H3Y 2222  -0.027   4.050   9.896  1.0732 -2.2461  0.3344
   17SAPC   C34 2223  -0.217   4.156   9.909  0.2884 -0.4485  0.2541
   17SAPC   H4X 2224  -0.187   4.263   9.916 -0.5720 -0.3728  4.0706
   17SAPC   H4Y 2225  -0.298   4.138   9.983  1.9260 -0.8757  1.9594
   17SAPC   C35 2226  -0.254   4.107   9.775  0.3024 -0.3224  0.0333
   17SAPC   H5X 2227  -0.357   4.145   9.755 -0.7425 -2.7639  0.6410
   17SAPC   H5Y 2228  -0.264   3.997   9.767 -0.6095 -0.4668  2.6558
   17SAPC   C36 2229  -0.162   4.160   9.655 -0.7618 -0.2529  0.1824
   17SAPC   H6X 2230  -0.062   4.114   9.673 -0.5610  0.6329  1.4160
   17SAPC   H6Y 2231  -0.146   4.268   9.673 -3.9466  0.3678 -0.3755
   17SAPC   C37 2232  -0.215   4.132   9.518 -0.3932  0.1078 -0.1689
   17SAPC   H7X 2233  -0.159   4.203   9.453  1.0324 -1.6673 -0.8981
   17SAPC   H7Y 2234  -0.317   4.177   9.520 -0.9262 -1.0974  0.1847
   17SAPC   C38 2235  -0.215   3.990   9.467 -0.2159 -0.1553  0.3941
   17SAPC   H8X 2236  -0.254   3.921   9.544  0.2251  0.1309  0.8784
   17SAPC   H8Y 2237  -0.113   3.955   9.440  1.1634  3.8702 -0.0004
   17SAPC   C39 2238  -0.308   3.980   9.339  0.0728 -0.0350 -0.1774
   17SAPC   H9X 2239  -0.377   4.066   9.341 -0.3656 -0.3137 -2.4388
   17SAPC   H9Y 2240  -0.356   3.880   9.337 -0.7107  0.1264  4.0262
   17SAPC  C310 2241  -0.229   3.992   9.216  0.1474  0.3033 -0.5123
   17SAPC  H10X 2242  -0.178   3.894   9.203 -1.3586 -0.1161 -3.9467
   17SAPC  H10Y 2243  -0.149   4.068   9.228 -0.0858  0.1495  2.2921
   17SAPC  C311 2244  -0.319   4.025   9.103 -0.4247  0.2303  0.0785
   17SAPC  H11X 2245  -0.324   4.136   9.107 -3.0327  0.1050  2.9483
   17SAPC  H11Y 2246  -0.424   3.989   9.115 -1.3971  2.7786 -0.3148
   17SAPC  C312 2247  -0.251   3.980   8.976  0.6238  0.5214  0.1526
   17SAPC  H12X 2248  -0.237   3.870   8.980  1.4224  0.6775  4.3230
   17SAPC  H12Y 2249  -0.146   4.016   8.980  1.1071 -0.9489  1.4104
   17SAPC  C313 2250  -0.322   4.002   8.843 -0.5434 -0.5280 -0.2765
   17SAPC  H13X 2251  -0.347   4.110   8.831 -1.3175 -0.7378 -0.6045
   17SAPC  H13Y 2252  -0.416   3.943   8.847 -2.4960  2.5127  0.5485
   17SAPC  C314 2253  -0.251   3.961   8.714  0.1776 -0.5638 -0.1348
   17SAPC  H14X 2254  -0.154   4.014   8.716  1.2555 -2.5104  1.4150
   17SAPC  H14Y 2255  -0.320   3.997   8.635 -1.1423  0.1535  1.2923
   17SAPC  C315 2256  -0.215   3.809   8.701  1.4098  0.2655 -0.0321
   17SAPC  H15X 2257  -0.294   3.745   8.745  1.3617  1.5690  1.8366
   17SAPC  H15Y 2258  -0.125   3.799   8.766 -0.3688  1.6335  2.7344
   17SAPC  C316 2259  -0.177   3.778   8.559  0.0307 -0.0261 -0.7838
   17SAPC  H16X 2260  -0.097   3.842   8.516  1.9727 -0.3282  2.2080
   17SAPC  H16Y 2261  -0.266   3.793   8.494 -2.2926 -1.5914  1.9543
   17SAPC  C317 2262  -0.152   3.626   8.538  0.1247 -0.1815 -0.4576
   17SAPC  H17X 2263  -0.245   3.578   8.574 -0.3241  1.9012  1.3319
   17SAPC  H17Y 2264  -0.070   3.589   8.604 -1.6548  1.3311  2.7654
   17SAPC  C318 2265  -0.124   3.590   8.390  0.0806  0.8328 -0.7671
   17SAPC  H18X 2266  -0.104   3.481   8.383 -1.2205  0.6581 -1.7300
   17SAPC  H18Y 2267  -0.219   3.605   8.334 -0.3471  0.0224 -0.2774
   17SAPC  H18Z 2268  -0.041   3.643   8.339  0.9041  1.8500  1.5559
   18SAPC     N 2269   0.914   3.908  10.912  0.1545 -0.3751  0.8174
   18SAPC   C12 2270   0.885   3.876  10.756  0.8161  0.1182  0.1774
   18SAPC  H12A 2271   0.943   3.952  10.707  0.3670  1.1721  1.2539
   18SAPC  H12B 2272   0.783   3.906  10.738  1.8328  2.6759 -1.4972
   18SAPC   C13 2273   0.822   3.829  10.998 -1.0719 -0.6303 -0.6244
   18SAPC  H13A 2274   0.723   3.872  11.000 -0.5452  0.6029  1.4411
   18SAPC  H13B 2275   0.821   3.726  10.966 -2.7068 -0.3660 -1.4724
   18SAPC  H13C 2276   0.848   3.819  11.103 -2.2964 -1.4072 -0.3811
   18SAPC   C14 2277   1.059   3.884  10.931  1.1590  0.4307  0.4713
   18SAPC  H14A 2278   1.076   3.889  11.038  0.8485  2.7456  0.4295
   18SAPC  H14B 2279   1.082   3.785  10.896  2.3676  0.4265  1.2374
   18SAPC  H14C 2280   1.117   3.959  10.880  0.2644  0.5014 -0.4492
   18SAPC   C15 2281   0.893   4.061  10.939 -0.4229 -0.2272  0.2441
   18SAPC  H15A 2282   0.789   4.082  10.917 -0.5798 -2.3427 -1.1827
   18SAPC  H15B 2283   0.922   4.098  11.036 -2.3881 -0.0559  0.7861
   18SAPC  H15C 2284   0.948   4.122  10.869 -2.5043  0.5417 -0.7844
   18SAPC   C11 2285   0.903   3.732  10.696 -0.1212  0.2347 -0.4151
   18SAPC  H11A 2286   0.849   3.724  10.599  0.4892  3.3372 -1.0940
   18SAPC  H11B 2287   0.855   3.662  10.767 -1.0372  1.0550 -0.2067
   18SAPC     P 2288   1.127   3.695  10.562  0.3099 -0.5335  0.0259
   18SAPC   O13 2289   1.138   3.820  10.488  0.0808  0.1020 -0.3627
   18SAPC   O14 2290   1.252   3.625  10.591 -1.1946 -0.1488  0.0301
   18SAPC   O12 2291   1.041   3.709  10.695  0.1816  0.4754 -0.3937
   18SAPC   O11 2292   1.040   3.596  10.475 -0.6800  0.4019  0.0093
   18SAPC    C1 2293   1.003   3.463  10.516  0.0090  0.9929  1.0375
   18SAPC    HA 2294   1.015   3.444  10.624 -0.5652 -0.6585  0.8230
   18SAPC    HB 2295   0.896   3.454  10.488  0.7270 -2.2678 -1.0121
   18SAPC    C2 2296   1.089   3.369  10.429 -0.1404 -0.0601  0.1491
   18SAPC    HS 2297   1.190   3.397  10.465 -0.0134  0.2034 -0.4050
   18SAPC   O21 2298   1.080   3.389  10.289  0.2755 -0.4430  0.1040
   18SAPC   C21 2299   1.197   3.376  10.219 -0.3910  0.3381  0.1894
   18SAPC   O22 2300   1.307   3.369  10.272 -0.2857 -0.1890  0.5951
   18SAPC   C22 2301   1.175   3.384  10.073 -0.0832 -0.3302  0.2827
   18SAPC   H2R 2302   1.072   3.350  10.050 -0.4333  1.5120 -1.0408
   18SAPC   H2S 2303   1.161   3.490  10.042  3.0302  0.7177  2.2545
   18SAPC    C3 2304   1.049   3.221  10.472 -0.2490  0.3654 -0.1488
   18SAPC    HX 2305   0.941   3.217  10.448 -0.3149  0.6981  0.0835
   18SAPC    HY 2306   1.057   3.220  10.583 -0.6354 -1.8083 -0.1265
   18SAPC   O31 2307   1.119   3.111  10.405 -0.1475 -0.0601  0.5537
   18SAPC   C31 2308   1.240   3.089  10.467  0.1816  0.2649  0.1019
   18SAPC   O32 2309   1.262   3.134  10.577  0.0231  0.0980  0.2687
   18SAPC   C32 2310   1.331   3.007  10.376 -0.0176 -0.3826  0.3563
   18SAPC   H2X 2311   1.297   3.030  10.273 -2.7891 -0.4318  1.2164
   18SAPC   H2Y 2312   1.312   2.900  10.396  1.2412 -0.3925  1.5940
   18SAPC   C23 2313   1.284   3.321   9.985 -0.2354  0.0798  0.1467
   18SAPC   H3R 2314   1.309   3.221  10.027  2.0058  1.1124  1.3728
   18SAPC   H3S 2315   1.375   3.385   9.991 -0.9513  1.1311 -0.0427
   18SAPC   C24 2316   1.238   3.314   9.836  0.4968 -0.2900  0.2584
   18SAPC   H4R 2317   1.206   3.415   9.802 -0.5645 -0.5808  0.3727
   18SAPC   H4S 2318   1.143   3.256   9.837  1.2600 -1.5608  1.1750
   18SAPC   C25 2319   1.326   3.236   9.743 -0.7100 -0.2189 -0.0506
   18SAPC   H5R 2320   1.332   3.126   9.754  2.9380  0.0243  0.9575
   18SAPC   C26 2321   1.400   3.286   9.647  0.2988  0.7833 -0.0330
   18SAPC   H6R 2322   1.469   3.226   9.587  0.8080  2.1653 -0.8452
   18SAPC   C27 2323   1.410   3.435   9.633 -0.2665  0.0649 -0.7191
   18SAPC   H7R 2324   1.474   3.485   9.709 -0.4318 -0.0945 -0.4774
   18SAPC   H7S 2325   1.320   3.501   9.625 -0.0512  0.3717 -0.6278
   18SAPC   C28 2326   1.489   3.459   9.503 -0.2293  0.6999  0.6205
   18SAPC   H8R 2327   1.598   3.444   9.512 -0.0578  0.8137 -1.0894
   18SAPC   C29 2328   1.442   3.499   9.381  0.2877  0.0865  0.9855
   18SAPC   H9R 2329   1.513   3.487   9.298 -0.9127 -1.9224  0.2094
   18SAPC  C210 2330   1.300   3.524   9.334 -0.7773  0.4660 -0.3629
   18SAPC  H10R 2331   1.241   3.570   9.415 -1.1193 -0.1230 -0.2757
   18SAPC  H10S 2332   1.248   3.431   9.304  1.4850 -0.2960 -2.1163
   18SAPC  C211 2333   1.294   3.613   9.214  0.1592  0.0588 -0.1324
   18SAPC  H11R 2334   1.273   3.718   9.242  0.3213 -0.3146  1.4373
   18SAPC  C212 2335   1.332   3.581   9.092 -0.0038  0.2367 -0.1394
   18SAPC  H12R 2336   1.329   3.655   9.011 -0.3357 -0.8984 -1.1905
   18SAPC  C213 2337   1.391   3.450   9.043  0.1080  0.1805 -0.8870
   18SAPC  H13R 2338   1.328   3.413   8.959 -1.5113  0.0343  0.3719
   18SAPC  H13S 2339   1.378   3.366   9.115  0.5075 -1.2334 -2.4262
   18SAPC  C214 2340   1.537   3.455   9.005  0.1294  0.2653  1.0791
   18SAPC  H14R 2341   1.590   3.551   9.004  0.0158  0.3246  0.1645
   18SAPC  C215 2342   1.606   3.340   8.972  0.6002  0.2251  0.2372
   18SAPC  H15R 2343   1.713   3.352   8.953  0.5742  0.4077  0.2124
   18SAPC  C216 2344   1.570   3.194   8.974  0.5599  0.0871 -0.6704
   18SAPC  H16R 2345   1.468   3.172   9.013  1.1504 -2.3702 -0.4043
   18SAPC  H16S 2346   1.649   3.151   9.038  1.8252  1.7670 -1.0550
   18SAPC  C217 2347   1.597   3.127   8.836  0.0695  0.4369 -0.0674
   18SAPC  H17R 2348   1.706   3.134   8.815 -0.1088  0.8075 -0.8655
   18SAPC  H17S 2349   1.538   3.186   8.763  0.4089  0.8361 -0.0228
   18SAPC  C218 2350   1.560   2.976   8.828  0.0213  0.1045 -0.1755
   18SAPC  H18R 2351   1.451   2.967   8.844  0.0758  0.2748  0.2942
   18SAPC  H18S 2352   1.617   2.927   8.910 -0.6116 -1.7490 -0.8312
   18SAPC  C219 2353   1.602   2.910   8.690  0.0493  0.7064  0.5800
   18SAPC  H19R 2354   1.543   2.952   8.606 -2.1505  1.8367  2.5935
   18SAPC  H19S 2355   1.587   2.800   8.685 -1.2666  0.8242  1.5940
   18SAPC  C220 2356   1.747   2.942   8.651  0.4597  0.0547 -0.4649
   18SAPC  H20R 2357   1.818   2.946   8.736  1.3858  1.1114 -1.2899
   18SAPC  H20S 2358   1.749   3.042   8.604  0.4309  0.2442 -0.0628
   18SAPC  H20T 2359   1.784   2.875   8.570 -0.0419  1.0682 -1.5435
   18SAPC   C33 2360   1.479   3.048  10.405  0.2590 -0.0558  0.2350
   18SAPC   H3X 2361   1.531   3.003  10.492 -1.2630  0.6718  1.5562
   18SAPC   H3Y 2362   1.500   3.156  10.422 -0.8193  0.6091 -2.4092
   18SAPC   C34 2363   1.568   3.022  10.286 -0.2505 -0.1503  0.3569
   18SAPC   H4X 2364   1.567   2.914  10.259 -0.6554  0.5979 -2.8540
   18SAPC   H4Y 2365   1.666   3.054  10.327 -0.9056  2.3301  0.0580
   18SAPC   C35 2366   1.553   3.109  10.164  0.5645  0.3270  0.0112
   18SAPC   H5X 2367   1.615   3.202  10.166  1.4804 -0.1806 -2.5944
   18SAPC   H5Y 2368   1.447   3.140  10.159  0.3512 -0.1490  1.5437
   18SAPC   C36 2369   1.601   3.033  10.038 -0.0534 -0.6785  0.5785
   18SAPC   H6X 2370   1.512   2.985   9.993  1.6277 -0.9353 -2.6570
   18SAPC   H6Y 2371   1.669   2.949  10.065 -0.1654 -1.2826 -0.9753
   18SAPC   C37 2372   1.676   3.116   9.939  0.6474  0.2091 -0.4609
   18SAPC   H7X 2373   1.767   3.165   9.980 -1.4059  2.7709  1.2082
   18SAPC   H7Y 2374   1.614   3.207   9.922  0.4574  0.2169  0.2438
   18SAPC   C38 2375   1.709   3.037   9.811 -0.3839 -0.0533 -0.1817
   18SAPC   H8X 2376   1.620   2.997   9.758 -0.7468  2.4862 -1.5764
   18SAPC   H8Y 2377   1.783   2.956   9.827  1.4939  1.4810 -0.8876
   18SAPC   C39 2378   1.783   3.128   9.710  0.2703 -0.3255 -0.5624
   18SAPC   H9X 2379   1.877   3.170   9.751 -1.1586  0.1800  2.3571
   18SAPC   H9Y 2380   1.722   3.214   9.676  2.0512  0.6674 -1.3174
   18SAPC  C310 2381   1.818   3.052   9.581 -0.3346 -0.0687  0.2158
   18SAPC  H10X 2382   1.719   3.022   9.539 -0.4365 -2.3276  1.9687
   18SAPC  H10Y 2383   1.869   2.955   9.601 -1.6271 -0.8852 -0.3160
   18SAPC  C311 2384   1.896   3.130   9.474  0.2411 -0.2369 -0.2893
   18SAPC  H11X 2385   2.000   3.144   9.509  0.6203  0.0148 -1.4691
   18SAPC  H11Y 2386   1.849   3.230   9.461  2.1122  0.6847 -0.0233
   18SAPC  C312 2387   1.897   3.050   9.342 -0.4264 -0.1296 -0.3244
   18SAPC  H12X 2388   1.791   3.042   9.307 -0.6919  2.5367 -0.2413
   18SAPC  H12Y 2389   1.934   2.950   9.372 -3.1384 -1.0033  0.3018
   18SAPC  C313 2390   1.979   3.122   9.238 -0.1745 -0.3870 -0.4065
   18SAPC  H13X 2391   2.088   3.136   9.256 -0.4688  0.9866  0.3771
   18SAPC  H13Y 2392   1.940   3.224   9.223 -2.6863 -1.2741 -0.1322
   18SAPC  C314 2393   1.966   3.045   9.109 -0.5658 -0.0143  0.2111
   18SAPC  H14X 2394   1.864   3.019   9.072  0.5681  0.5983 -3.5429
   18SAPC  H14Y 2395   2.024   2.953   9.130  2.3014  1.5738 -0.6021
   18SAPC  C315 2396   2.029   3.105   8.980  0.1050 -0.0147 -0.8217
   18SAPC  H15X 2397   2.007   3.028   8.903  0.3460 -1.2990  0.3551
   18SAPC  H15Y 2398   2.140   3.112   8.978  0.0460  1.1834 -0.0991
   18SAPC  C316 2399   1.969   3.235   8.931  0.3732 -0.6748  0.7328
   18SAPC  H16X 2400   1.980   3.303   9.019 -0.9648 -0.1184  0.4952
   18SAPC  H16Y 2401   1.863   3.202   8.920  0.2475 -1.1669  3.0418
   18SAPC  C317 2402   2.020   3.300   8.802  0.9657  0.2392  0.5624
   18SAPC  H17X 2403   2.049   3.217   8.733  0.4022  1.0998 -0.7329
   18SAPC  H17Y 2404   2.108   3.361   8.832 -0.7670  1.3704  3.5243
   18SAPC  C318 2405   1.928   3.398   8.728 -0.2071 -0.0216 -0.1438
   18SAPC  H18X 2406   1.829   3.351   8.707  1.1922 -1.6836 -3.3442
   18SAPC  H18Y 2407   1.988   3.428   8.640  0.0774  1.6118  0.5784
   18SAPC  H18Z 2408   1.905   3.478   8.801 -1.6768 -0.4504 -0.1069
   19SAPC     N 2409   5.901   5.127  10.675  0.2228  0.3457  0.1940
   19SAPC   C12 2410   5.992   5.214  10.590  0.2916 -0.0323  0.0556
   19SAPC  H12A 2411   6.057   5.272  10.654 -1.2325 -0.6884  2.3036
   19SAPC  H12B 2412   5.940   5.283  10.526 -0.4094 -0.3096  0.3123
   19SAPC   C13 2413   5.985   5.028  10.750  0.2552  0.6140 -0.4505
   19SAPC  H13A 2414   5.921   4.966  10.812  2.3588  0.7167  1.8753
   19SAPC  H13B 2415   6.047   4.969  10.685  3.2028  1.0492  1.8333
   19SAPC  H13C 2416   6.043   5.083  10.823  1.4909  1.0451 -1.7281
   19SAPC   C14 2417   5.825   5.218  10.770  0.1149  0.5282  0.2874
   19SAPC  H14A 2418   5.890   5.260  10.845  0.7937 -1.7783  1.0397
   19SAPC  H14B 2419   5.788   5.300  10.710  0.4957 -0.5772 -1.4901
   19SAPC  H14C 2420   5.751   5.165  10.827 -2.4648  3.0652 -0.5778
   19SAPC   C15 2421   5.803   5.045  10.589  0.3633  1.0040  0.2124
   19SAPC  H15A 2422   5.703   5.085  10.579  0.5531  1.1910 -1.1381
   19SAPC  H15B 2423   5.839   5.019  10.490  1.7275  0.9976  0.6991
   19SAPC  H15C 2424   5.785   4.945  10.624  0.8799  1.1373  0.8772
   19SAPC   C11 2425   6.077   5.152  10.482  0.5121  0.4551  0.0226
   19SAPC  H11A 2426   6.022   5.087  10.411 -1.1024  0.7347  0.9754
   19SAPC  H11B 2427   6.156   5.090  10.530 -0.1272  0.4396  1.0990
   19SAPC     P 2428   6.231   5.354  10.436 -0.3021 -0.2988 -0.2242
   19SAPC   O13 2429   6.221   5.399  10.579 -0.0102 -0.6783 -0.6625
   19SAPC   O14 2430   6.368   5.306  10.407  1.0259 -0.0663 -0.3410
   19SAPC   O12 2431   6.114   5.254  10.395  0.1744 -0.4181  0.5121
   19SAPC   O11 2432   6.212   5.482  10.346 -0.4583  0.6026  0.2990
   19SAPC    C1 2433   6.180   5.468  10.204  0.1651  0.5661  0.7616
   19SAPC    HA 2434   6.198   5.365  10.165  0.0838  0.2113  1.6528
   19SAPC    HB 2435   6.071   5.482  10.188 -0.1632 -1.7300  0.8600
   19SAPC    C2 2436   6.278   5.559  10.116 -0.7980  0.2835 -0.4545
   19SAPC    HS 2437   6.240   5.664  10.120 -1.2463  0.0293  2.7197
   19SAPC   O21 2438   6.279   5.511   9.980  0.4286  0.0466  0.0263
   19SAPC   C21 2439   6.161   5.546   9.907 -0.5867  0.0466  0.2380
   19SAPC   O22 2440   6.073   5.613   9.955 -0.1730 -0.1486  0.3542
   19SAPC   C22 2441   6.175   5.492   9.760 -0.2459 -0.2111  0.5605
   19SAPC   H2R 2442   6.247   5.552   9.701 -1.5547 -1.4427 -2.3564
   19SAPC   H2S 2443   6.200   5.384   9.767  0.3346 -0.0920  0.4035
   19SAPC    C3 2444   6.431   5.566  10.164  0.1459 -0.1637 -0.2062
   19SAPC    HX 2445   6.470   5.463  10.181  0.3529 -0.5422 -2.8039
   19SAPC    HY 2446   6.438   5.607  10.267  0.2263  0.7144 -0.5536
   19SAPC   O31 2447   6.515   5.644  10.074  0.4068  0.1964 -0.3531
   19SAPC   C31 2448   6.591   5.568   9.993 -0.4448  0.5994  0.5684
   19SAPC   O32 2449   6.595   5.445   9.985  0.0444  0.2512 -0.0423
   19SAPC   C32 2450   6.663   5.668   9.895  0.0035  0.0521 -0.5049
   19SAPC   H2X 2451   6.768   5.680   9.928 -1.2326  1.6129  3.0784
   19SAPC   H2Y 2452   6.600   5.759   9.891 -0.1747 -0.1147 -1.6207
   19SAPC   C23 2453   6.032   5.497   9.697  0.0132 -0.3292  0.0971
   19SAPC   H3R 2454   5.963   5.558   9.759  1.0101 -0.9875  1.9017
   19SAPC   H3S 2455   6.005   5.389   9.698  2.4973 -0.9992  2.0795
   19SAPC   C24 2456   6.024   5.578   9.563 -0.6394 -0.4291  0.8954
   19SAPC   H4R 2457   6.095   5.535   9.489 -1.8035  0.9307 -1.0483
   19SAPC   H4S 2458   6.057   5.682   9.583  0.0012 -0.6091  0.7648
   19SAPC   C25 2459   5.888   5.589   9.503 -0.6051 -0.3740 -0.1268
   19SAPC   H5R 2460   5.814   5.641   9.565 -1.4607 -1.7819  0.0500
   19SAPC   C26 2461   5.849   5.539   9.385 -0.0017  0.0897 -0.2061
   19SAPC   H6R 2462   5.748   5.570   9.355 -0.1976 -1.2092 -0.9284
   19SAPC   C27 2463   5.916   5.454   9.288 -0.6802  0.1043 -0.0923
   19SAPC   H7R 2464   5.866   5.355   9.296 -1.4515  0.3498 -1.7944
   19SAPC   H7S 2465   6.024   5.433   9.305 -0.1765  1.5933 -1.3576
   19SAPC   C28 2466   5.913   5.516   9.151  0.1444 -0.0344  0.0073
   19SAPC   H8R 2467   5.998   5.583   9.130  0.8150 -0.0337  2.5977
   19SAPC   C29 2468   5.812   5.511   9.064  0.4911  0.4654  0.1654
   19SAPC   H9R 2469   5.816   5.557   8.964  0.3955  0.1963  0.0370
   19SAPC  C210 2470   5.692   5.417   9.078 -0.0403 -0.5768  0.1242
   19SAPC  H10R 2471   5.603   5.471   9.040 -0.2069 -0.2076  1.0260
   19SAPC  H10S 2472   5.663   5.390   9.182  1.4319  2.3297  1.3436
   19SAPC  C211 2473   5.703   5.289   9.003  0.1180  0.5316 -0.0494
   19SAPC  H11R 2474   5.753   5.211   9.062 -1.4169  1.2832  2.3649
   19SAPC  C212 2475   5.657   5.262   8.887 -0.0173  0.9339  0.8015
   19SAPC  H12R 2476   5.684   5.166   8.841 -1.0864  1.2611 -0.5564
   19SAPC  C213 2477   5.580   5.350   8.792 -0.3003 -0.6078 -0.4911
   19SAPC  H13R 2478   5.657   5.393   8.723  0.8740  0.5601  1.4973
   19SAPC  H13S 2479   5.531   5.437   8.840 -0.5010 -0.6327 -0.6536
   19SAPC  C214 2480   5.492   5.267   8.703  0.2312 -0.3147  0.2833
   19SAPC  H14R 2481   5.388   5.251   8.734  0.8004 -2.6739  1.0244
   19SAPC  C215 2482   5.516   5.230   8.573  0.3170 -0.4014 -0.3676
   19SAPC  H15R 2483   5.430   5.190   8.519 -0.0305  3.8688 -3.2568
   19SAPC  C216 2484   5.641   5.247   8.486 -0.1574  1.4071 -0.1613
   19SAPC  H16R 2485   5.733   5.286   8.534  0.3621  1.4605 -1.1841
   19SAPC  H16S 2486   5.617   5.305   8.394 -2.8030 -1.5615 -1.4102
   19SAPC  C217 2487   5.681   5.103   8.432  0.4414  0.8419 -0.0910
   19SAPC  H17R 2488   5.742   5.113   8.340  2.8811 -2.9585  1.0215
   19SAPC  H17S 2489   5.587   5.045   8.421 -0.0074  1.6127 -0.3647
   19SAPC  C218 2490   5.761   5.032   8.540 -0.3470 -0.1374 -0.3727
   19SAPC  H18R 2491   5.775   4.930   8.500 -0.5365  0.5939 -2.3447
   19SAPC  H18S 2492   5.695   5.022   8.629  0.8249  0.3183  0.5631
   19SAPC  C219 2493   5.904   5.090   8.560 -0.1365 -0.1991 -0.0717
   19SAPC  H19R 2494   5.893   5.194   8.599 -1.0584  0.3126 -1.6255
   19SAPC  H19S 2495   5.956   5.091   8.462  0.6509  1.4793  0.3415
   19SAPC  C220 2496   5.975   5.010   8.672 -0.4753  0.7275 -0.5314
   19SAPC  H20R 2497   5.903   4.989   8.754  1.7296  0.4302  1.3771
   19SAPC  H20S 2498   6.063   5.058   8.721 -0.1980  0.4102 -0.7171
   19SAPC  H20T 2499   6.018   4.917   8.630  0.3316  0.1025  1.5943
   19SAPC   C33 2500   6.663   5.609   9.753 -0.9658  0.7075 -0.6538
   19SAPC   H3X 2501   6.569   5.635   9.701 -1.3376  3.1352  1.1421
   19SAPC   H3Y 2502   6.675   5.499   9.760 -1.9714  0.6262 -0.1403
   19SAPC   C34 2503   6.781   5.666   9.673  0.2761 -0.3599  0.3912
   19SAPC   H4X 2504   6.876   5.671   9.729  0.4895 -0.1336  0.0100
   19SAPC   H4Y 2505   6.760   5.772   9.648 -1.2747 -1.2699 -2.3829
   19SAPC   C35 2506   6.800   5.574   9.553 -0.0809 -0.4288  0.0855
   19SAPC   H5X 2507   6.698   5.559   9.511 -0.1780  0.5221 -0.0210
   19SAPC   H5Y 2508   6.835   5.470   9.569  3.4916  0.6904  0.1063
   19SAPC   C36 2509   6.893   5.647   9.449 -0.3234  0.2511  0.0618
   19SAPC   H6X 2510   6.994   5.646   9.496 -1.0655 -0.4906  1.6634
   19SAPC   H6Y 2511   6.861   5.753   9.444  0.4557  0.6404  2.5123
   19SAPC   C37 2512   6.892   5.588   9.317 -0.7790  0.7910 -0.2063
   19SAPC   H7X 2513   6.801   5.605   9.255 -1.4034 -2.1102 -0.1520
   19SAPC   H7Y 2514   6.905   5.478   9.310 -0.0028  0.8624 -0.0012
   19SAPC   C38 2515   6.999   5.650   9.231 -0.2182  0.3001  0.7002
   19SAPC   H8X 2516   7.098   5.633   9.277 -0.9783 -0.2568  2.1697
   19SAPC   H8Y 2517   6.985   5.758   9.213 -0.4822  0.0659 -0.6274
   19SAPC   C39 2518   7.010   5.580   9.090  0.1397 -0.6855  0.1627
   19SAPC   H9X 2519   6.916   5.596   9.034  0.0574  0.6158  0.6459
   19SAPC   H9Y 2520   7.012   5.479   9.135  0.4964 -1.3052 -1.2333
   19SAPC  C310 2521   7.125   5.635   9.005 -0.3982  0.0103 -0.8645
   19SAPC  H10X 2522   7.214   5.612   9.067 -1.1096  0.8427  0.4879
   19SAPC  H10Y 2523   7.117   5.744   8.984  0.8646 -0.0734 -1.8501
   19SAPC  C311 2524   7.123   5.566   8.865 -0.2918 -0.2589 -0.2848
   19SAPC  H11X 2525   7.018   5.570   8.830 -0.7965 -2.4648  0.9077
   19SAPC  H11Y 2526   7.145   5.457   8.871 -2.4773 -0.6615  0.7702
   19SAPC  C312 2527   7.232   5.624   8.776  0.0372 -0.3605 -0.5008
   19SAPC  H12X 2528   7.332   5.593   8.816  0.5805 -1.2983 -2.5189
   19SAPC  H12Y 2529   7.237   5.735   8.770  2.2103 -0.4286 -0.4685
   19SAPC  C313 2530   7.229   5.560   8.633 -0.4711 -0.2444  0.3364
   19SAPC  H13X 2531   7.138   5.604   8.586 -1.2269  0.0185  2.0080
   19SAPC  H13Y 2532   7.209   5.452   8.648 -1.8431  0.3613  3.3532
   19SAPC  C314 2533   7.344   5.595   8.541 -0.0876  0.1996  0.2938
   19SAPC  H14X 2534   7.429   5.529   8.568 -1.3555 -0.4868  2.8262
   19SAPC  H14Y 2535   7.377   5.701   8.540 -1.5923  0.7263 -4.4066
   19SAPC  C315 2536   7.326   5.564   8.389 -0.3557  0.0009  0.2500
   19SAPC  H15X 2537   7.310   5.455   8.376 -1.3298  0.1003  0.5971
   19SAPC  H15Y 2538   7.411   5.609   8.333  0.8197  0.1932  2.1291
   19SAPC  C316 2539   7.200   5.638   8.331  0.2451  0.3344 -0.3848
   19SAPC  H16X 2540   7.179   5.743   8.357 -3.9308 -0.2452 -1.1089
   19SAPC  H16Y 2541   7.116   5.582   8.377  0.6066 -0.0539 -0.1948
   19SAPC  C317 2542   7.178   5.616   8.176  0.2859  0.9315  0.2752
   19SAPC  H17X 2543   7.161   5.510   8.147 -1.1397  1.1124  0.4477
   19SAPC  H17Y 2544   7.272   5.645   8.125 -1.4707  3.7541 -1.4654
   19SAPC  C318 2545   7.079   5.706   8.114 -0.3049  0.3595 -0.2973
   19SAPC  H18X 2546   7.104   5.813   8.123 -0.7911  0.5407 -1.0195
   19SAPC  H18Y 2547   6.972   5.684   8.138 -0.3477  1.3601  0.4364
   19SAPC  H18Z 2548   7.079   5.690   8.004  1.0291 -0.8596 -0.1380
   20SAPC     N 2549   6.729   2.189  10.785 -1.2902 -0.4634  0.1390
   20SAPC   C12 2550   6.775   2.310  10.859 -0.8299  0.0452  0.0571
   20SAPC  H12A 2551   6.774   2.393  10.790  0.1229 -1.5539 -1.9146
   20SAPC  H12B 2552   6.881   2.309  10.883 -1.1268  0.0133  1.4322
   20SAPC   C13 2553   6.594   2.232  10.726 -0.0385  0.5683 -0.9001
   20SAPC  H13A 2554   6.598   2.295  10.639 -0.6740  0.6274 -0.8876
   20SAPC  H13B 2555   6.543   2.142  10.694  0.8219 -0.1421 -0.3214
   20SAPC  H13C 2556   6.543   2.274  10.812  0.9047  0.9675 -0.5234
   20SAPC   C14 2557   6.817   2.155  10.678 -0.1437  0.3249 -0.7298
   20SAPC  H14A 2558   6.918   2.140  10.715 -1.2101  1.7426  3.0092
   20SAPC  H14B 2559   6.790   2.055  10.646  1.4461 -0.3435 -0.0378
   20SAPC  H14C 2560   6.813   2.235  10.606 -1.0066  0.7904 -0.1738
   20SAPC   C15 2561   6.713   2.072  10.877 -0.4569  0.0067 -0.1759
   20SAPC  H15A 2562   6.811   2.049  10.915 -1.0683 -0.2145  1.3055
   20SAPC  H15B 2563   6.650   2.099  10.961  0.7741 -0.6342  0.9714
   20SAPC  H15C 2564   6.666   1.986  10.833 -0.9527  0.4710 -0.5656
   20SAPC   C11 2565   6.701   2.350  10.992  0.0310  0.2198 -0.2345
   20SAPC  H11A 2566   6.752   2.445  11.019 -1.5498  0.6818  1.2651
   20SAPC  H11B 2567   6.720   2.270  11.067 -0.9923 -1.3148 -1.5764
   20SAPC     P 2568   6.515   2.505  10.910 -0.0516 -0.2906  0.0452
   20SAPC   O13 2569   6.382   2.474  10.854  0.0581 -0.1377  0.3555
   20SAPC   O14 2570   6.528   2.611  11.014 -0.5736  0.1038 -0.6328
   20SAPC   O12 2571   6.561   2.368  10.974  0.2835 -0.0204  0.1468
   20SAPC   O11 2572   6.620   2.550  10.803 -0.1198  0.6634 -0.4564
   20SAPC    C1 2573   6.602   2.664  10.720 -0.3260  0.1036  0.3808
   20SAPC    HA 2574   6.501   2.707  10.737 -1.7435 -2.9914 -0.0217
   20SAPC    HB 2575   6.672   2.748  10.742 -0.3375 -0.3042  2.1026
   20SAPC    C2 2576   6.628   2.630  10.574 -0.9964 -0.3116  0.7514
   20SAPC    HS 2577   6.615   2.726  10.520  0.3042 -1.2000 -1.2355
   20SAPC   O21 2578   6.548   2.524  10.526 -0.4689  0.3589 -0.6607
   20SAPC   C21 2579   6.430   2.560  10.482  0.1308  0.2520 -0.1488
   20SAPC   O22 2580   6.381   2.670  10.494  0.1471 -0.2149 -0.3581
   20SAPC   C22 2581   6.369   2.439  10.420 -0.0579 -0.7370  0.6840
   20SAPC   H2R 2582   6.444   2.358  10.414 -1.2271 -1.6606 -2.2205
   20SAPC   H2S 2583   6.279   2.408  10.477 -0.6597  0.8270  0.6292
   20SAPC    C3 2584   6.777   2.590  10.560 -0.1809 -0.0102 -0.6786
   20SAPC    HX 2585   6.795   2.489  10.602  1.1778 -0.0990 -1.4379
   20SAPC    HY 2586   6.834   2.662  10.622  0.8520 -0.3933 -1.1696
   20SAPC   O31 2587   6.825   2.600  10.427  0.1364  0.3904  0.5888
   20SAPC   C31 2588   6.818   2.493  10.342 -0.3672 -0.1552 -0.0574
   20SAPC   O32 2589   6.752   2.392  10.366  0.3364 -0.0416  0.6724
   20SAPC   C32 2590   6.905   2.516  10.218 -0.0549 -0.7128 -0.8390
   20SAPC   H2X 2591   7.012   2.509  10.245  0.1573 -1.3940 -1.8277
   20SAPC   H2Y 2592   6.884   2.621  10.188 -1.1017 -1.0430 -1.2966
   20SAPC   C23 2593   6.328   2.474  10.281 -0.2650 -0.5502  0.3062
   20SAPC   H3R 2594   6.271   2.569  10.282  0.1626 -0.2814 -0.6033
   20SAPC   H3S 2595   6.267   2.389  10.243 -0.7599 -0.1754  0.2610
   20SAPC   C24 2596   6.445   2.482  10.177 -0.0673 -0.5903  0.6921
   20SAPC   H4R 2597   6.534   2.527  10.227 -1.1233  1.8987  0.4423
   20SAPC   H4S 2598   6.409   2.550  10.096 -1.3846 -3.6297 -1.3499
   20SAPC   C25 2599   6.492   2.351  10.126 -0.8081  0.0302 -0.8246
   20SAPC   H5R 2600   6.512   2.271  10.199 -2.3847  0.1722 -0.2143
   20SAPC   C26 2601   6.534   2.318  10.002 -0.0306  0.3669  0.4053
   20SAPC   H6R 2602   6.567   2.215   9.980  0.2406  0.7454 -0.9598
   20SAPC   C27 2603   6.514   2.406   9.876  0.3529  0.0172  0.2181
   20SAPC   H7R 2604   6.610   2.461   9.861 -0.1047  0.9650  0.6866
   20SAPC   H7S 2605   6.437   2.484   9.897 -0.6792 -0.6445 -1.0458
   20SAPC   C28 2606   6.461   2.339   9.758  0.5453  0.1746 -0.3524
   20SAPC   H8R 2607   6.452   2.232   9.780 -1.7220  0.4813  0.3155
   20SAPC   C29 2608   6.457   2.390   9.636 -0.0624  0.2217 -0.3516
   20SAPC   H9R 2609   6.413   2.332   9.554 -0.6789  1.3081 -0.8152
   20SAPC  C210 2610   6.506   2.519   9.590 -0.1351  0.0359 -0.2380
   20SAPC  H10R 2611   6.559   2.567   9.675 -1.2087 -1.0216  1.0588
   20SAPC  H10S 2612   6.417   2.579   9.563 -0.5087 -1.0339 -1.4406
   20SAPC  C211 2613   6.604   2.517   9.479 -0.3623 -0.3732 -0.3372
   20SAPC  H11R 2614   6.707   2.486   9.501  0.3354 -0.7453 -3.7675
   20SAPC  C212 2615   6.583   2.551   9.356 -0.7529  0.5362  0.6002
   20SAPC  H12R 2616   6.665   2.524   9.287 -0.9525  0.3790  0.4238
   20SAPC  C213 2617   6.457   2.593   9.283  0.4280  0.0756 -0.1736
   20SAPC  H13R 2618   6.472   2.698   9.250  2.1883  0.3231  1.3367
   20SAPC  H13S 2619   6.375   2.606   9.357  0.0876  1.5562 -0.7964
   20SAPC  C214 2620   6.415   2.511   9.163 -0.3774 -0.4111  0.9669
   20SAPC  H14R 2621   6.355   2.421   9.181 -0.5182 -1.1955 -3.0180
   20SAPC  C215 2622   6.458   2.536   9.032 -0.7315 -0.4174 -0.3817
   20SAPC  H15R 2623   6.423   2.472   8.951  0.5348 -0.8147 -0.6352
   20SAPC  C216 2624   6.554   2.650   8.988 -0.8473 -0.5987 -0.4818
   20SAPC  H16R 2625   6.617   2.700   9.065 -1.8978  0.1918 -0.1196
   20SAPC  H16S 2626   6.489   2.727   8.941 -2.5016 -2.1817 -0.8662
   20SAPC  C217 2627   6.645   2.607   8.866 -0.0584 -0.4396  0.3692
   20SAPC  H17R 2628   6.691   2.693   8.813 -0.1013 -0.6058  0.0593
   20SAPC  H17S 2629   6.563   2.566   8.803  0.4029 -1.6625  0.5442
   20SAPC  C218 2630   6.756   2.507   8.893 -0.4791  0.4074 -0.1749
   20SAPC  H18R 2631   6.702   2.444   8.967  1.1849 -3.0850 -1.8160
   20SAPC  H18S 2632   6.844   2.537   8.953  0.1662 -5.7705  2.3829
   20SAPC  C219 2633   6.806   2.426   8.777  0.0982 -0.2437 -0.1786
   20SAPC  H19R 2634   6.885   2.353   8.805  2.3276  1.3511 -2.0998
   20SAPC  H19S 2635   6.860   2.492   8.706  0.0134  0.1755  0.1451
   20SAPC  C220 2636   6.701   2.349   8.697 -0.1112  0.3250 -0.9197
   20SAPC  H20R 2637   6.646   2.288   8.772 -0.8851  1.9932 -0.0935
   20SAPC  H20S 2638   6.745   2.286   8.617  1.9807 -0.6059  0.8938
   20SAPC  H20T 2639   6.627   2.421   8.654  0.3377 -0.0350 -2.3246
   20SAPC   C33 2640   6.870   2.417  10.106 -0.4223 -0.4631 -0.4982
   20SAPC   H3X 2641   6.759   2.407  10.100 -0.4245 -1.6599  1.2272
   20SAPC   H3Y 2642   6.915   2.317  10.121  1.3477  0.1528 -1.5442
   20SAPC   C34 2643   6.936   2.464   9.973  0.6514 -0.0559 -0.2961
   20SAPC   H4X 2644   6.939   2.575   9.973  0.5157 -0.0403 -2.4816
   20SAPC   H4Y 2645   6.874   2.438   9.885  0.0390 -0.3644  0.2238
   20SAPC   C35 2646   7.079   2.403   9.976  1.0094 -0.4280 -0.1091
   20SAPC   H5X 2647   7.071   2.292   9.975 -0.4292 -0.3375 -1.2761
   20SAPC   H5Y 2648   7.126   2.430  10.073  0.5273 -0.0765  0.0280
   20SAPC   C36 2649   7.168   2.454   9.870 -0.1831  0.1715  0.7961
   20SAPC   H6X 2650   7.266   2.402   9.869 -0.5860 -0.6084  0.8996
   20SAPC   H6Y 2651   7.187   2.563   9.880  3.1531 -0.3829  1.0055
   20SAPC   C37 2652   7.117   2.421   9.728 -0.4679  0.3049  0.1944
   20SAPC   H7X 2653   7.031   2.485   9.696 -1.2086 -0.5430  0.4574
   20SAPC   H7Y 2654   7.091   2.314   9.716 -0.6753  0.1564  1.8558
   20SAPC   C38 2655   7.222   2.455   9.625 -0.1465  0.4203  0.2442
   20SAPC   H8X 2656   7.322   2.437   9.670  0.2426 -0.8998 -1.0944
   20SAPC   H8Y 2657   7.218   2.563   9.601 -1.1753  0.6746  1.4876
   20SAPC   C39 2658   7.197   2.370   9.498  0.3476  0.4052 -0.3673
   20SAPC   H9X 2659   7.090   2.339   9.493  0.9446 -1.5817 -1.6367
   20SAPC   H9Y 2660   7.252   2.275   9.510 -3.4908 -2.0620 -1.3157
   20SAPC  C310 2661   7.256   2.442   9.374  1.1197  0.8282 -0.2488
   20SAPC  H10X 2662   7.362   2.474   9.374  1.2514  0.4076 -0.0762
   20SAPC  H10Y 2663   7.201   2.537   9.357 -0.3961  0.3334  1.6743
   20SAPC  C311 2664   7.230   2.358   9.256 -0.0436  0.1323  0.0380
   20SAPC  H11X 2665   7.121   2.340   9.240  0.1410 -2.0289  1.0352
   20SAPC  H11Y 2666   7.275   2.257   9.257  0.4719  0.3667  0.7509
   20SAPC  C312 2667   7.276   2.432   9.133 -0.5038  0.9391  0.1074
   20SAPC  H12X 2668   7.384   2.455   9.146 -1.1339  3.4077  1.4248
   20SAPC  H12Y 2669   7.231   2.534   9.132  0.6936  1.4753 -0.1067
   20SAPC  C313 2670   7.248   2.351   9.009 -0.1101  0.4301 -0.0595
   20SAPC  H13X 2671   7.145   2.308   9.007  0.2462 -0.3974 -1.1861
   20SAPC  H13Y 2672   7.314   2.262   9.013 -1.7183 -0.8277 -0.7369
   20SAPC  C314 2673   7.269   2.429   8.872 -0.7501  0.6399  0.4049
   20SAPC  H14X 2674   7.353   2.384   8.815 -1.6567  1.7263 -1.8338
   20SAPC  H14Y 2675   7.307   2.532   8.892 -0.1687  0.4034  0.5341
   20SAPC  C315 2676   7.149   2.434   8.780 -0.0727  0.1654 -0.4361
   20SAPC  H15X 2677   7.066   2.497   8.817 -0.5103 -0.7394  0.1415
   20SAPC  H15Y 2678   7.101   2.334   8.771  0.7073 -0.1116 -1.6715
   20SAPC  C316 2679   7.186   2.454   8.634 -0.5362 -0.1024 -0.5082
   20SAPC  H16X 2680   7.096   2.440   8.570 -1.1756 -1.8406  0.7488
   20SAPC  H16Y 2681   7.268   2.382   8.614 -0.3747 -0.4699  1.3989
   20SAPC  C317 2682   7.244   2.586   8.601  0.4306  0.0837  0.6062
   20SAPC  H17X 2683   7.328   2.615   8.667  1.0837  1.4925 -0.7873
   20SAPC  H17Y 2684   7.159   2.656   8.616 -1.8256 -1.9594 -2.0577
   20SAPC  C318 2685   7.305   2.596   8.458  0.5297 -0.4910  0.1115
   20SAPC  H18X 2686   7.371   2.511   8.432  2.8201  1.8174 -1.8793
   20SAPC  H18Y 2687   7.364   2.689   8.444 -0.4358  0.0988 -0.0937
   20SAPC  H18Z 2688   7.220   2.593   8.387  1.7462 -0.8480 -1.3571
   21SAPC     N 2689   0.189   1.301  10.757 -0.1853  0.4287  0.0683
   21SAPC   C12 2690   0.091   1.418  10.774 -0.1051  0.0311 -0.5335
   21SAPC  H12A 2691   0.003   1.399  10.715 -0.3479 -0.5922  0.0242
   21SAPC  H12B 2692   0.135   1.506  10.730  0.4800 -0.5725 -1.1854
   21SAPC   C13 2693   0.123   1.182  10.813 -0.2373  0.1701 -0.1361
   21SAPC  H13A 2694   0.183   1.092  10.812 -2.4710 -1.3709 -0.7276
   21SAPC  H13B 2695   0.093   1.204  10.915 -0.1859 -1.1669  0.1759
   21SAPC  H13C 2696   0.036   1.156  10.754  0.4149 -1.8241 -0.2528
   21SAPC   C14 2697   0.227   1.284  10.616  0.5753  0.0098 -0.0821
   21SAPC  H14A 2698   0.136   1.257  10.563  0.7207  0.0200 -0.3405
   21SAPC  H14B 2699   0.267   1.375  10.575  2.4135  0.0585  1.7355
   21SAPC  H14C 2700   0.309   1.216  10.596  1.6823  0.9751  1.1098
   21SAPC   C15 2701   0.312   1.335  10.842 -0.1841 -0.7913  0.1113
   21SAPC  H15A 2702   0.383   1.257  10.819  0.6119 -0.3181  0.9101
   21SAPC  H15B 2703   0.341   1.435  10.814  0.0747 -0.5550  1.1925
   21SAPC  H15C 2704   0.275   1.341  10.944  0.9740  1.7886  0.4192
   21SAPC   C11 2705   0.039   1.447  10.913  0.9857  0.2076 -0.4001
   21SAPC  H11A 2706   0.010   1.553  10.930  2.3181  0.8722 -2.1496
   21SAPC  H11B 2707   0.125   1.444  10.982  0.4325 -1.7795  0.2457
   21SAPC     P 2708  -0.222   1.374  10.898  0.0223  0.0338  0.0867
   21SAPC   O13 2709  -0.270   1.232  10.889 -0.2966  0.1545 -0.1801
   21SAPC   O14 2710  -0.303   1.467  10.975  0.0986 -0.1653 -0.2322
   21SAPC   O12 2711  -0.073   1.371  10.950  0.5793  0.0842 -0.2049
   21SAPC   O11 2712  -0.186   1.434  10.751 -0.0982  0.4304  0.1566
   21SAPC    C1 2713  -0.254   1.552  10.691 -0.1409  0.2436 -0.4229
   21SAPC    HA 2714  -0.254   1.630  10.770  0.8921 -0.7965  0.6326
   21SAPC    HB 2715  -0.210   1.592  10.597 -0.2728  2.8616  0.5789
   21SAPC    C2 2716  -0.399   1.514  10.650  1.6184 -0.5208 -0.2866
   21SAPC    HS 2717  -0.457   1.494  10.743  0.0797  1.0588 -0.8755
   21SAPC   O21 2718  -0.382   1.401  10.563  0.4191 -0.0583  0.1354
   21SAPC   C21 2719  -0.487   1.326  10.556 -0.1460  0.0708 -0.2904
   21SAPC   O22 2720  -0.587   1.337  10.626 -0.1565  0.1784  0.2215
   21SAPC   C22 2721  -0.466   1.215  10.444 -0.5182  0.5722 -0.3367
   21SAPC   H2R 2722  -0.360   1.224  10.415  0.5862 -0.9121  2.9528
   21SAPC   H2S 2723  -0.465   1.118  10.499 -0.2068  0.7780  0.0211
   21SAPC    C3 2724  -0.480   1.630  10.581  0.9554  0.1262  1.1477
   21SAPC    HX 2725  -0.478   1.708  10.661 -0.4047  0.9289  0.4190
   21SAPC    HY 2726  -0.582   1.588  10.569  2.0930 -1.8081 -2.5762
   21SAPC   O31 2727  -0.402   1.676  10.469 -0.0439 -0.3933 -0.6281
   21SAPC   C31 2728  -0.445   1.630  10.353  0.4848 -0.6048 -0.3001
   21SAPC   O32 2729  -0.545   1.563  10.337 -0.2802 -0.2825 -0.1989
   21SAPC   C32 2730  -0.332   1.663  10.250 -0.8202 -0.0580 -0.1564
   21SAPC   H2X 2731  -0.238   1.665  10.310 -0.7703 -1.0355 -0.1961
   21SAPC   H2Y 2732  -0.352   1.762  10.203  1.9228  0.6523  0.0809
   21SAPC   C23 2733  -0.562   1.201  10.323  1.1684 -0.2357 -0.1276
   21SAPC   H3R 2734  -0.567   1.301  10.276 -1.6044 -1.2596 -2.0851
   21SAPC   H3S 2735  -0.663   1.184  10.365  1.1871 -0.2184 -0.0789
   21SAPC   C24 2736  -0.512   1.099  10.218 -0.8853 -0.4872 -0.7612
   21SAPC   H4R 2737  -0.592   1.096  10.141 -1.1252  0.9674 -0.5668
   21SAPC   H4S 2738  -0.514   1.007  10.281 -1.2757  0.2002  0.2404
   21SAPC   C25 2739  -0.375   1.129  10.163 -0.0745 -0.6419 -0.0989
   21SAPC   H5R 2740  -0.291   1.123  10.234  0.0577  1.3504 -0.0382
   21SAPC   C26 2741  -0.334   1.165  10.037 -0.6350  0.3599  0.3151
   21SAPC   H6R 2742  -0.226   1.184  10.025 -0.6707  1.1101  1.0611
   21SAPC   C27 2743  -0.428   1.192   9.919  0.4335  0.5238 -0.0112
   21SAPC   H7R 2744  -0.378   1.258   9.845  2.0794 -0.1381  0.5033
   21SAPC   H7S 2745  -0.515   1.258   9.943  1.1938  1.6933 -0.4299
   21SAPC   C28 2746  -0.495   1.075   9.851  0.4406  0.3568  0.0674
   21SAPC   H8R 2747  -0.534   0.997   9.917 -3.1568  1.6405 -0.4145
   21SAPC   C29 2748  -0.524   1.062   9.715 -0.4786 -0.3478 -0.5153
   21SAPC   H9R 2749  -0.579   0.971   9.686 -1.2426  0.4099 -1.4594
   21SAPC  C210 2750  -0.493   1.169   9.616  1.0023  0.0968 -0.4616
   21SAPC  H10R 2751  -0.386   1.194   9.633  1.0255  0.7311 -1.4926
   21SAPC  H10S 2752  -0.544   1.267   9.628 -0.0901 -0.2117 -2.4040
   21SAPC  C211 2753  -0.492   1.128   9.472  0.0132  0.6644 -0.7978
   21SAPC  H11R 2754  -0.469   1.021   9.461 -0.8107  0.1451  2.1321
   21SAPC  C212 2755  -0.527   1.211   9.370  0.4650 -0.3860 -0.2232
   21SAPC  H12R 2756  -0.526   1.177   9.266 -1.3868  3.6086 -1.6350
   21SAPC  C213 2757  -0.565   1.358   9.370 -0.0163  0.1641 -0.0628
   21SAPC  H13R 2758  -0.589   1.395   9.472 -1.4591 -2.1754  0.4881
   21SAPC  H13S 2759  -0.655   1.356   9.305  1.9115 -1.7059 -2.7914
   21SAPC  C214 2760  -0.457   1.448   9.315  0.1982 -0.6382  0.0408
   21SAPC  H14R 2761  -0.396   1.492   9.395 -0.5302 -0.5246  0.5419
   21SAPC  C215 2762  -0.442   1.497   9.194  0.0750 -0.6288 -0.3188
   21SAPC  H15R 2763  -0.365   1.574   9.180 -0.4990  0.2998  1.3868
   21SAPC  C216 2764  -0.534   1.464   9.082  0.0915  0.1038  0.4902
   21SAPC  H16R 2765  -0.594   1.371   9.096 -0.0060  0.3423  1.6900
   21SAPC  H16S 2766  -0.477   1.447   8.988 -0.5506 -0.5839  0.2168
   21SAPC  C217 2767  -0.640   1.578   9.067 -0.1129  0.0977  0.1134
   21SAPC  H17R 2768  -0.590   1.673   9.038 -0.5221  0.4712  0.6163
   21SAPC  H17S 2769  -0.689   1.599   9.165 -2.2581 -1.8158 -0.5119
   21SAPC  C218 2770  -0.756   1.550   8.973  0.5191  0.6846  0.0083
   21SAPC  H18R 2771  -0.720   1.563   8.869  0.6249 -2.7053 -0.4564
   21SAPC  H18S 2772  -0.835   1.624   8.997  0.0831 -0.2305  1.5283
   21SAPC  C219 2773  -0.831   1.419   8.982 -0.4914  0.1089  0.4545
   21SAPC  H19R 2774  -0.852   1.399   9.090 -1.1645 -0.0550  0.2998
   21SAPC  H19S 2775  -0.776   1.338   8.929  0.9202  0.8473  0.7850
   21SAPC  C220 2776  -0.967   1.430   8.924  0.2826 -0.3537 -0.1771
   21SAPC  H20R 2777  -1.038   1.491   8.984 -1.9805 -1.6068 -1.5260
   21SAPC  H20S 2778  -1.017   1.332   8.914  2.9333 -1.9168  1.4355
   21SAPC  H20T 2779  -0.950   1.477   8.825  0.1837  1.0265  0.4383
   21SAPC   C33 2780  -0.340   1.573  10.129  0.2195  0.4647 -0.1993
   21SAPC   H3X 2781  -0.438   1.583  10.077  0.3505  1.7700 -0.1973
   21SAPC   H3Y 2782  -0.329   1.465  10.152  1.3160  0.5667 -0.2544
   21SAPC   C34 2783  -0.232   1.602  10.023  0.9423 -0.7426  0.1758
   21SAPC   H4X 2784  -0.132   1.612  10.070  1.0431  0.6159 -0.2925
   21SAPC   H4Y 2785  -0.250   1.708   9.996  0.2841 -0.8336  0.2407
   21SAPC   C35 2786  -0.246   1.518   9.898  0.2327 -0.0828 -0.1301
   21SAPC   H5X 2787  -0.349   1.515   9.856  0.8767  1.7248 -1.9267
   21SAPC   H5Y 2788  -0.220   1.416   9.933  0.6348  0.1213  0.1752
   21SAPC   C36 2789  -0.143   1.567   9.792  1.0840 -0.0860 -0.7651
   21SAPC   H6X 2790  -0.041   1.547   9.832  0.7559  0.9473  0.6206
   21SAPC   H6Y 2791  -0.151   1.677   9.788  1.7840 -0.0947 -3.5366
   21SAPC   C37 2792  -0.159   1.521   9.651  0.3231 -0.4554 -0.0809
   21SAPC   H7X 2793  -0.250   1.561   9.600  0.2006 -3.0522 -2.0203
   21SAPC   H7Y 2794  -0.163   1.410   9.658 -0.9472 -0.4496 -0.5923
   21SAPC   C38 2795  -0.037   1.566   9.563  0.1253  0.2199 -1.0307
   21SAPC   H8X 2796   0.050   1.499   9.582 -0.8324 -0.2469  1.9633
   21SAPC   H8Y 2797  -0.018   1.673   9.586 -2.0463  0.3522  0.2894
   21SAPC   C39 2798  -0.069   1.560   9.416 -0.2488  0.3626  0.6228
   21SAPC   H9X 2799  -0.175   1.592   9.407  0.3200  1.7971 -1.3872
   21SAPC   H9Y 2800  -0.064   1.458   9.373 -0.6361  0.8045 -0.5079
   21SAPC  C310 2801   0.017   1.648   9.320 -0.0251  0.2924  0.2205
   21SAPC  H10X 2802   0.119   1.630   9.361  0.3851 -0.3435 -1.0730
   21SAPC  H10Y 2803  -0.008   1.755   9.336 -1.7246 -0.4269  2.6347
   21SAPC  C311 2804   0.027   1.603   9.177  0.6769  0.2080 -0.0607
   21SAPC  H11X 2805   0.068   1.500   9.176  3.7360  1.3885  0.2688
   21SAPC  H11Y 2806   0.107   1.655   9.120  2.0762 -1.3322  0.4480
   21SAPC  C312 2807  -0.107   1.583   9.098  0.0004 -0.1656 -0.0676
   21SAPC  H12X 2808  -0.164   1.678   9.108  0.7055  0.1726  0.8179
   21SAPC  H12Y 2809  -0.168   1.506   9.150 -1.2278  0.9906  0.2091
   21SAPC  C313 2810  -0.094   1.546   8.954 -0.3545  0.1508 -0.3582
   21SAPC  H13X 2811  -0.070   1.438   8.953  0.0463  0.2375 -1.1445
   21SAPC  H13Y 2812  -0.025   1.613   8.898 -1.5180  2.1244  0.5236
   21SAPC  C314 2813  -0.225   1.575   8.869  0.8356  1.2236  0.6076
   21SAPC  H14X 2814  -0.272   1.672   8.896  0.9642  1.1649  1.0444
   21SAPC  H14Y 2815  -0.285   1.493   8.915  0.1515  2.2914  1.6556
   21SAPC  C315 2816  -0.205   1.555   8.723  0.6012 -0.2687 -0.8766
   21SAPC  H15X 2817  -0.147   1.463   8.699  0.7236 -0.0765 -1.3315
   21SAPC  H15Y 2818  -0.164   1.650   8.680 -1.5252  1.2179  0.3042
   21SAPC  C316 2819  -0.344   1.535   8.662  0.2098  0.1375  0.0799
   21SAPC  H16X 2820  -0.381   1.437   8.699  2.1728 -0.4801  0.4485
   21SAPC  H16Y 2821  -0.340   1.519   8.552  0.5491 -0.2895  0.1529
   21SAPC  C317 2822  -0.456   1.633   8.699 -0.0358  0.0369 -0.1363
   21SAPC  H17X 2823  -0.467   1.637   8.810 -2.9190  1.1179 -0.4127
   21SAPC  H17Y 2824  -0.554   1.593   8.666 -0.6657 -0.3813  2.1589
   21SAPC  C318 2825  -0.430   1.780   8.661 -0.3221  0.1551 -0.5649
   21SAPC  H18X 2826  -0.347   1.809   8.729 -1.2403  2.1764 -0.2770
   21SAPC  H18Y 2827  -0.518   1.843   8.682 -0.5741 -0.2568 -0.3759
   21SAPC  H18Z 2828  -0.409   1.786   8.552  0.1687 -3.0267 -0.7124
   22SAPC     N 2829   6.253   6.039  11.094 -0.0790 -0.3559 -0.0629
   22SAPC   C12 2830   6.220   6.154  11.008 -0.0243 -0.6212 -0.0895
   22SAPC  H12A 2831   6.146   6.216  11.058  0.2397  0.5801 -1.1433
   22SAPC  H12B 2832   6.164   6.112  10.926  2.4847  1.0217 -2.7510
   22SAPC   C13 2833   6.296   6.090  11.226  0.6283 -0.6786  0.0886
   22SAPC  H13A 2834   6.212   6.149  11.259  2.2753  2.0108 -0.3080
   22SAPC  H13B 2835   6.313   6.007  11.293  0.7679  1.3739  2.6851
   22SAPC  H13C 2836   6.386   6.150  11.216  0.7284 -0.9331 -0.5591
   22SAPC   C14 2837   6.130   5.947  11.105 -0.1813  0.1245 -0.6775
   22SAPC  H14A 2838   6.092   5.922  11.007 -0.8808  1.4166 -0.7452
   22SAPC  H14B 2839   6.150   5.859  11.163  0.4587  0.2549 -0.6981
   22SAPC  H14C 2840   6.041   5.985  11.152 -0.2970 -1.4826  0.4566
   22SAPC   C15 2841   6.366   5.959  11.031 -0.0057  0.0095  0.1061
   22SAPC  H15A 2842   6.454   6.015  11.002  0.9083 -0.3187  2.1851
   22SAPC  H15B 2843   6.391   5.885  11.105  1.2171  0.0573 -0.2430
   22SAPC  H15C 2844   6.330   5.892  10.954  1.2381 -1.8205  1.1049
   22SAPC   C11 2845   6.332   6.235  10.940  0.4139 -0.2195 -0.1868
   22SAPC  H11A 2846   6.413   6.173  10.897 -0.4774 -1.5670  0.0499
   22SAPC  H11B 2847   6.377   6.301  11.017 -2.6417  3.2423 -1.2025
   22SAPC     P 2848   6.216   6.234  10.706  0.4708 -0.7234  0.0832
   22SAPC   O13 2849   6.121   6.127  10.744  0.3165  0.1004  0.4845
   22SAPC   O14 2850   6.156   6.334  10.617 -0.3294 -0.0088 -0.4491
   22SAPC   O12 2851   6.276   6.312  10.829 -0.7713  0.5439 -0.4821
   22SAPC   O11 2852   6.351   6.175  10.645 -0.5593  0.7844  0.2688
   22SAPC    C1 2853   6.457   6.258  10.595  0.2901 -0.0962 -0.0813
   22SAPC    HA 2854   6.446   6.365  10.623 -1.9600 -0.3215 -0.0507
   22SAPC    HB 2855   6.557   6.233  10.637  1.0311  0.3821 -1.5316
   22SAPC    C2 2856   6.475   6.225  10.446  0.8006 -0.2067 -0.4558
   22SAPC    HS 2857   6.561   6.282  10.405  0.1703  1.1018 -0.0046
   22SAPC   O21 2858   6.351   6.249  10.373 -0.1833 -0.0166  0.0443
   22SAPC   C21 2859   6.314   6.371  10.345 -0.1025 -0.3897  0.1362
   22SAPC   O22 2860   6.384   6.469  10.363  0.3424 -0.0369  0.7233
   22SAPC   C22 2861   6.170   6.368  10.310 -0.2479  0.0749  0.2016
   22SAPC   H2R 2862   6.118   6.270  10.308 -0.3053  0.1208 -1.1406
   22SAPC   H2S 2863   6.113   6.433  10.380  2.5689  0.1177  2.5300
   22SAPC    C3 2864   6.522   6.072  10.419  0.0232 -0.0998 -0.0762
   22SAPC    HX 2865   6.432   6.017  10.453 -0.6894  0.1770 -1.4830
   22SAPC    HY 2866   6.612   6.039  10.476 -1.4105 -3.0561  0.5667
   22SAPC   O31 2867   6.547   6.055  10.280 -0.6591  0.1886 -0.4386
   22SAPC   C31 2868   6.460   5.992  10.210 -0.4117 -0.8125  0.0779
   22SAPC   O32 2869   6.348   5.956  10.240 -0.0435 -0.7967  0.7682
   22SAPC   C32 2870   6.518   5.967  10.074 -0.2820 -0.1185 -0.5809
   22SAPC   H2X 2871   6.465   5.877  10.037 -0.7142 -1.0245  2.1157
   22SAPC   H2Y 2872   6.627   5.951  10.091 -0.4745  0.4421  1.4106
   22SAPC   C23 2873   6.135   6.433  10.171 -0.9790 -0.4779  0.4260
   22SAPC   H3R 2874   6.165   6.539  10.159  1.7226 -1.2581 -0.0581
   22SAPC   H3S 2875   6.024   6.427  10.163 -0.9851 -0.0350  0.1568
   22SAPC   C24 2876   6.212   6.361  10.058 -1.2339  0.4117  0.4405
   22SAPC   H4R 2877   6.175   6.257  10.056 -0.8543  0.2845 -0.1326
   22SAPC   H4S 2878   6.322   6.358  10.073 -0.9372 -0.3974 -1.6776
   22SAPC   C25 2879   6.190   6.421   9.920 -0.3240  0.0759  0.2100
   22SAPC   H5R 2880   6.217   6.528   9.915  1.3542 -0.3949 -1.0763
   22SAPC   C26 2881   6.144   6.349   9.815 -0.0765 -0.1064  0.3341
   22SAPC   H6R 2882   6.122   6.407   9.724 -1.9700 -1.8546 -0.3458
   22SAPC   C27 2883   6.095   6.211   9.806  0.5390 -0.4350  0.2176
   22SAPC   H7R 2884   6.167   6.138   9.849  0.2853 -1.4132 -0.9878
   22SAPC   H7S 2885   6.091   6.189   9.697 -0.0165 -1.5677  0.4592
   22SAPC   C28 2886   5.957   6.182   9.866  0.5962 -0.0324 -0.3607
   22SAPC   H8R 2887   5.921   6.261   9.933  1.6536  1.3695 -1.3831
   22SAPC   C29 2888   5.881   6.072   9.840 -0.0823 -0.0329  0.1714
   22SAPC   H9R 2889   5.780   6.062   9.881 -0.0550 -0.4209  0.1449
   22SAPC  C210 2890   5.916   5.955   9.756  0.3103 -0.1344 -0.2375
   22SAPC  H10R 2891   5.924   5.859   9.812 -0.9831  0.6438  1.3469
   22SAPC  H10S 2892   6.013   5.964   9.704  0.3087  1.0285 -0.0593
   22SAPC  C211 2893   5.801   5.912   9.661  0.0870 -0.9155 -0.3229
   22SAPC  H11R 2894   5.728   5.844   9.707  0.6311 -3.9194 -3.7654
   22SAPC  C212 2895   5.782   5.956   9.536  1.0644 -0.5093 -0.0892
   22SAPC  H12R 2896   5.685   5.934   9.489  0.3247 -0.2798  1.2872
   22SAPC  C213 2897   5.868   6.060   9.476 -0.7766 -0.3404  0.0023
   22SAPC  H13R 2898   5.976   6.035   9.474 -0.1102  2.4362 -1.0036
   22SAPC  H13S 2899   5.874   6.144   9.549 -1.3831 -1.4966  1.4038
   22SAPC  C214 2900   5.827   6.105   9.341  0.2756 -0.8682 -0.0714
   22SAPC  H14R 2901   5.763   6.194   9.352  2.9153  1.3077 -1.7288
   22SAPC  C215 2902   5.837   6.040   9.225  0.3030  0.2157  1.2405
   22SAPC  H15R 2903   5.788   6.083   9.136  1.5085 -2.4948 -0.8058
   22SAPC  C216 2904   5.905   5.905   9.201  0.8327  0.3036 -0.5829
   22SAPC  H16R 2905   5.845   5.834   9.140  0.7251 -0.3613  0.2811
   22SAPC  H16S 2906   5.933   5.848   9.292 -1.3316  1.4906  0.8827
   22SAPC  C217 2907   6.029   5.919   9.120 -0.5680  0.4505  0.2968
   22SAPC  H17R 2908   6.093   5.828   9.122 -0.3789  0.5901  0.8760
   22SAPC  H17S 2909   6.092   5.999   9.166 -1.5215  1.4616 -0.1390
   22SAPC  C218 2910   6.020   5.955   8.969 -0.3300  0.4415  0.1908
   22SAPC  H18R 2911   5.969   6.053   8.961  0.0363  0.6039 -0.1903
   22SAPC  H18S 2912   5.945   5.886   8.926  0.9507 -1.5438  1.0559
   22SAPC  C219 2913   6.152   5.955   8.899 -0.1300 -0.2648 -0.1228
   22SAPC  H19R 2914   6.133   5.972   8.791 -1.5917 -0.8874  0.0276
   22SAPC  H19S 2915   6.191   5.851   8.907  0.4945 -0.1089 -1.1245
   22SAPC  C220 2916   6.256   6.037   8.971  0.3130  0.1700  0.1146
   22SAPC  H20R 2917   6.356   6.041   8.922  1.0845 -1.8346  1.4343
   22SAPC  H20S 2918   6.281   5.981   9.064 -0.1113 -1.6407 -0.8411
   22SAPC  H20T 2919   6.230   6.140   9.002 -1.9645 -0.1060 -0.7660
   22SAPC   C33 2920   6.503   6.089   9.970  0.1731 -0.3999 -0.0392
   22SAPC   H3X 2921   6.552   6.184  10.001 -0.1883  0.0048 -0.6910
   22SAPC   H3Y 2922   6.399   6.126   9.967  0.0034 -0.6885  1.8568
   22SAPC   C34 2923   6.525   6.050   9.820  0.5525  0.1438  0.2437
   22SAPC   H4X 2924   6.611   5.979   9.812  1.2820  1.1710 -1.2185
   22SAPC   H4Y 2925   6.547   6.139   9.757 -3.5480  1.2658  0.2809
   22SAPC   C35 2926   6.402   5.989   9.763  0.5941  0.7063  1.0869
   22SAPC   H5X 2927   6.334   6.073   9.738  0.0307  0.0646  0.4484
   22SAPC   H5Y 2928   6.358   5.919   9.838  0.9196 -1.8591 -1.0122
   22SAPC   C36 2929   6.421   5.916   9.634  0.1440 -0.2987  0.2727
   22SAPC   H6X 2930   6.459   5.813   9.653  1.9331  0.6285  1.9692
   22SAPC   H6Y 2931   6.502   5.959   9.572  0.4118  0.8859  1.4244
   22SAPC   C37 2932   6.294   5.903   9.541 -0.0505  0.1068 -0.1591
   22SAPC   H7X 2933   6.254   6.006   9.532  0.2134  0.2111 -0.1453
   22SAPC   H7Y 2934   6.217   5.845   9.596 -0.1846 -1.0298 -1.5081
   22SAPC   C38 2935   6.312   5.831   9.413 -0.4055  0.1461 -0.6334
   22SAPC   H8X 2936   6.367   5.904   9.350 -1.3511  2.4569  1.1201
   22SAPC   H8Y 2937   6.212   5.807   9.371 -0.0831 -0.9879 -0.7505
   22SAPC   C39 2938   6.389   5.704   9.425  0.4279  0.2737 -0.0982
   22SAPC   H9X 2939   6.336   5.637   9.495  1.8594 -0.5647  0.2053
   22SAPC   H9Y 2940   6.494   5.711   9.462  0.2004  2.0393  0.2725
   22SAPC  C310 2941   6.392   5.619   9.292 -0.4229 -0.4991  0.4111
   22SAPC  H10X 2942   6.289   5.617   9.250 -0.2873  1.2191 -0.0564
   22SAPC  H10Y 2943   6.423   5.516   9.320 -0.2049 -0.7870 -0.8532
   22SAPC  C311 2944   6.485   5.675   9.181  0.0965 -0.4111 -0.0503
   22SAPC  H11X 2945   6.586   5.695   9.221 -0.3270 -0.9140  1.3192
   22SAPC  H11Y 2946   6.438   5.773   9.160 -1.4738 -1.4667 -1.6032
   22SAPC  C312 2947   6.462   5.591   9.055  0.6520 -0.1503 -0.5495
   22SAPC  H12X 2948   6.353   5.592   9.034  0.4183 -3.0222  0.3507
   22SAPC  H12Y 2949   6.479   5.482   9.062 -1.9745 -0.3574  5.0323
   22SAPC  C313 2950   6.536   5.640   8.930  0.8900 -0.4695 -0.0813
   22SAPC  H13X 2951   6.487   5.739   8.912  0.8725 -0.3040  0.8315
   22SAPC  H13Y 2952   6.511   5.572   8.846 -2.3826  0.2965  0.1806
   22SAPC  C314 2953   6.686   5.650   8.933  0.3425 -0.6536 -0.5230
   22SAPC  H14X 2954   6.727   5.550   8.909  2.2447 -0.1873  0.6673
   22SAPC  H14Y 2955   6.721   5.682   9.034  1.0337 -2.5096 -0.1624
   22SAPC  C315 2956   6.745   5.757   8.840 -0.2000  0.5309 -0.5081
   22SAPC  H15X 2957   6.851   5.773   8.869 -0.1041  1.5642 -1.4051
   22SAPC  H15Y 2958   6.697   5.857   8.853 -0.0721  0.6595 -1.0186
   22SAPC  C316 2959   6.740   5.711   8.693  0.1131 -0.3506  1.0383
   22SAPC  H16X 2960   6.638   5.675   8.666  0.4256 -0.6967  0.2935
   22SAPC  H16Y 2961   6.815   5.629   8.698 -0.8712 -1.4210 -1.0768
   22SAPC  C317 2962   6.793   5.820   8.601 -0.0058  0.2142  0.2296
   22SAPC  H17X 2963   6.877   5.871   8.653  1.0228 -0.0627 -1.1244
   22SAPC  H17Y 2964   6.712   5.897   8.601  0.8488  1.1348 -0.7196
   22SAPC  C318 2965   6.825   5.788   8.458  0.3666 -0.4561  0.1652
   22SAPC  H18X 2966   6.813   5.880   8.398 -0.3815 -0.1057  0.8395
   22SAPC  H18Y 2967   6.772   5.698   8.420  1.0818 -0.4952 -0.7572
   22SAPC  H18Z 2968   6.932   5.758   8.457  0.7147  0.6499  1.7903
   23SAPC     N 2969   0.126   0.392  11.226  0.1959  0.1369  0.0282
   23SAPC   C12 2970   0.272   0.373  11.186 -0.0065  0.1093  0.2414
   23SAPC  H12A 2971   0.288   0.268  11.166 -0.4186  0.2955 -1.1347
   23SAPC  H12B 2972   0.333   0.406  11.269 -1.7374  0.3126  1.4467
   23SAPC   C13 2973   0.035   0.349  11.114  0.4023  0.4657  0.4375
   23SAPC  H13A 2974   0.044   0.401  11.020  2.0298 -0.1380  0.2557
   23SAPC  H13B 2975   0.049   0.245  11.089  1.4246  0.3510  1.4107
   23SAPC  H13C 2976  -0.069   0.353  11.143 -0.3387 -5.5402 -0.7896
   23SAPC   C14 2977   0.106   0.310  11.347  0.7620 -0.0291 -0.3955
   23SAPC  H14A 2978   0.145   0.209  11.336 -1.3598 -1.0365  0.9549
   23SAPC  H14B 2979   0.155   0.352  11.432 -0.6577 -0.7813  0.8305
   23SAPC  H14C 2980  -0.001   0.296  11.359  0.5483  0.9255 -1.1291
   23SAPC   C15 2981   0.094   0.531  11.273 -0.7014 -0.0253 -0.4191
   23SAPC  H15A 2982  -0.010   0.555  11.284 -0.3671  1.2857 -0.0376
   23SAPC  H15B 2983   0.152   0.560  11.359 -0.3724 -1.2277 -0.2372
   23SAPC  H15C 2984   0.124   0.601  11.196  1.2843 -2.0279 -1.5275
   23SAPC   C11 2985   0.309   0.461  11.064  0.1792  0.2234  0.4008
   23SAPC  H11A 2986   0.323   0.568  11.089  1.2429 -0.1256  1.3244
   23SAPC  H11B 2987   0.222   0.453  10.995  0.3426 -0.8953  0.3128
   23SAPC     P 2988   0.433   0.285  10.921 -0.5681  0.2293  0.4449
   23SAPC   O13 2989   0.564   0.225  10.955  0.1320  0.0952  0.1540
   23SAPC   O14 2990   0.312   0.206  10.949 -0.3454  0.1839 -0.2269
   23SAPC   O12 2991   0.433   0.416  11.010  0.6166 -0.2132  0.0184
   23SAPC   O11 2992   0.429   0.326  10.767  0.2777  0.3743 -0.1536
   23SAPC    C1 2993   0.474   0.452  10.721 -0.1574 -1.0450 -0.0488
   23SAPC    HA 2994   0.462   0.538  10.790 -0.8101 -0.9156 -0.3185
   23SAPC    HB 2995   0.578   0.435  10.688 -0.1291 -1.8014  0.4150
   23SAPC    C2 2996   0.405   0.499  10.594 -0.1772  0.7099  0.1827
   23SAPC    HS 2997   0.300   0.518  10.628 -0.3496 -2.0016  1.2685
   23SAPC   O21 2998   0.407   0.396  10.493  0.0484  0.2378  0.0397
   23SAPC   C21 2999   0.330   0.423  10.386 -0.2818 -0.0306 -0.0458
   23SAPC   O22 3000   0.255   0.514  10.364  0.3755 -0.3067  0.3061
   23SAPC   C22 3001   0.353   0.308  10.288  0.3900 -0.7694  0.0622
   23SAPC   H2R 3002   0.435   0.346  10.223 -1.0943  0.1052 -1.3203
   23SAPC   H2S 3003   0.388   0.216  10.341  1.1309 -0.5989 -0.1275
   23SAPC    C3 3004   0.466   0.629  10.543  0.2091 -0.0454 -0.5463
   23SAPC    HX 3005   0.447   0.697  10.628 -0.3813  1.0650 -1.5498
   23SAPC    HY 3006   0.402   0.674  10.464 -1.7225 -0.6821  0.6222
   23SAPC   O31 3007   0.607   0.613  10.507 -0.1741  0.2123 -0.0689
   23SAPC   C31 3008   0.644   0.614  10.381 -0.5388 -0.4917  0.3078
   23SAPC   O32 3009   0.572   0.606  10.281 -0.4990 -0.2307  0.9396
   23SAPC   C32 3010   0.789   0.636  10.373  0.0203 -0.3723 -0.2436
   23SAPC   H2X 3011   0.845   0.540  10.379  2.3000  0.9593  0.4919
   23SAPC   H2Y 3012   0.815   0.699  10.461 -1.4071  0.6289 -0.5419
   23SAPC   C23 3013   0.231   0.269  10.199 -0.3939  0.2701  0.5680
   23SAPC   H3R 3014   0.218   0.354  10.128  1.3208 -0.0919 -0.1961
   23SAPC   H3S 3015   0.146   0.245  10.266 -1.8197 -3.6557 -2.4436
   23SAPC   C24 3016   0.267   0.135  10.122  0.0366 -0.2387  0.6065
   23SAPC   H4R 3017   0.264   0.061  10.205 -0.9318  0.5707  1.3097
   23SAPC   H4S 3018   0.368   0.150  10.077 -0.6211  1.5083 -0.3224
   23SAPC   C25 3019   0.163   0.107  10.014  0.4143  1.1199  0.2226
   23SAPC   H5R 3020   0.072   0.053  10.046  0.3479  0.3832 -1.1516
   23SAPC   C26 3021   0.170   0.136   9.883  0.0807 -0.3218 -0.4670
   23SAPC   H6R 3022   0.091   0.120   9.808  1.6341 -1.3877 -1.9142
   23SAPC   C27 3023   0.291   0.208   9.822  0.3822  0.0258 -0.3777
   23SAPC   H7R 3024   0.359   0.130   9.783  2.6155  2.8101 -2.2450
   23SAPC   H7S 3025   0.348   0.256   9.904 -2.5648 -0.1155  1.8642
   23SAPC   C28 3026   0.258   0.292   9.704 -0.4448 -0.5290  0.0075
   23SAPC   H8R 3027   0.256   0.398   9.733  0.3549 -1.0043  1.8632
   23SAPC   C29 3028   0.235   0.264   9.573  0.5343  0.4443 -0.6255
   23SAPC   H9R 3029   0.227   0.350   9.506  0.7327  0.5691 -0.4899
   23SAPC  C210 3030   0.239   0.128   9.504 -0.5574 -0.3149 -0.0320
   23SAPC  H10R 3031   0.221   0.047   9.578 -2.5547  1.2263  1.2342
   23SAPC  H10S 3032   0.335   0.115   9.451 -1.1418 -0.5782 -1.0339
   23SAPC  C211 3033   0.120   0.117   9.407 -0.4817 -0.1313  0.6887
   23SAPC  H11R 3034   0.017   0.122   9.443 -0.2083  1.9686  1.2880
   23SAPC  C212 3035   0.137   0.125   9.271  0.0210 -0.2289 -0.5631
   23SAPC  H12R 3036   0.048   0.107   9.209 -1.2134  3.4278  0.0720
   23SAPC  C213 3037   0.260   0.148   9.187  0.5582 -0.4807  0.5746
   23SAPC  H13R 3038   0.288   0.055   9.133  1.2425  0.8170 -1.3656
   23SAPC  H13S 3039   0.348   0.176   9.249  0.3316  1.3871  0.0571
   23SAPC  C214 3040   0.240   0.259   9.084  0.1493  0.1695 -0.7691
   23SAPC  H14R 3041   0.200   0.346   9.138 -1.5109 -1.3071  0.4580
   23SAPC  C215 3042   0.245   0.254   8.954  0.8188  0.2408 -0.1695
   23SAPC  H15R 3043   0.214   0.333   8.884 -2.4405  0.6115  1.6000
   23SAPC  C216 3044   0.273   0.130   8.879  1.2468 -0.2918  0.0565
   23SAPC  H16R 3045   0.180   0.073   8.861  0.3941  1.5679 -1.6756
   23SAPC  H16S 3046   0.346   0.070   8.937  0.5680 -1.4260 -0.2462
   23SAPC  C217 3047   0.344   0.149   8.742  0.2375  0.3119  0.3034
   23SAPC  H17R 3048   0.392   0.055   8.708 -2.8821 -0.6991 -1.4483
   23SAPC  H17S 3049   0.434   0.212   8.759 -0.7360  1.3267  1.7610
   23SAPC  C218 3050   0.256   0.198   8.626  0.0057 -0.3625 -0.2838
   23SAPC  H18R 3051   0.317   0.221   8.536  1.3599 -3.7396 -0.2957
   23SAPC  H18S 3052   0.206   0.294   8.654  1.1171  0.2811 -0.5100
   23SAPC  C219 3053   0.158   0.093   8.580 -0.4849 -0.5257 -0.3619
   23SAPC  H19R 3054   0.080   0.083   8.659  0.1094  0.0918  0.3219
   23SAPC  H19S 3055   0.211  -0.004   8.572  0.4050 -0.0257 -0.6660
   23SAPC  C220 3056   0.089   0.127   8.447  0.3493 -0.1774 -0.6157
   23SAPC  H20R 3057   0.161   0.171   8.374  1.0810  1.3086  0.9631
   23SAPC  H20S 3058   0.008   0.199   8.472  1.2796  1.3240 -1.8089
   23SAPC  H20T 3059   0.029   0.046   8.401 -1.4366  1.0042 -0.4320
   23SAPC   C33 3060   0.830   0.707  10.237 -0.1205 -0.0066 -0.3251
   23SAPC   H3X 3061   0.925   0.761  10.260 -1.0655  0.7084  2.0976
   23SAPC   H3Y 3062   0.764   0.787  10.197  1.6222  1.6222 -0.0377
   23SAPC   C34 3063   0.854   0.604  10.121  0.3731 -0.1251 -0.4615
   23SAPC   H4X 3064   0.759   0.559  10.087  0.7100  0.1199 -1.7634
   23SAPC   H4Y 3065   0.913   0.520  10.164 -2.2490 -2.8768 -2.1289
   23SAPC   C35 3066   0.908   0.673   9.994  0.0470 -0.2052  0.6279
   23SAPC   H5X 3067   1.010   0.713  10.007  0.4495 -0.4688 -1.4559
   23SAPC   H5Y 3068   0.850   0.763   9.963  2.4587  0.5960 -1.7217
   23SAPC   C36 3069   0.921   0.574   9.877 -0.0057  0.0279  0.0622
   23SAPC   H6X 3070   0.822   0.526   9.866  0.7068 -1.8557  1.5714
   23SAPC   H6Y 3071   0.986   0.493   9.917  0.2395  1.3416  2.4338
   23SAPC   C37 3072   0.972   0.630   9.740 -0.4716 -0.0382  0.2482
   23SAPC   H7X 3073   1.073   0.671   9.763  0.0785 -1.9562  1.4265
   23SAPC   H7Y 3074   0.899   0.708   9.712 -0.5913 -0.5517 -0.9066
   23SAPC   C38 3075   1.010   0.532   9.634  0.2694  0.1007 -0.0212
   23SAPC   H8X 3076   0.930   0.457   9.613  0.7481  0.4487 -3.4055
   23SAPC   H8Y 3077   1.102   0.475   9.656  0.6467  0.9687  0.6520
   23SAPC   C39 3078   1.037   0.601   9.500  0.7222 -0.1266  0.4660
   23SAPC   H9X 3079   1.136   0.652   9.495  1.0872 -0.6401  2.3031
   23SAPC   H9Y 3080   0.958   0.676   9.474 -0.1182 -1.0738  0.2780
   23SAPC  C310 3081   1.014   0.502   9.382  0.3310  0.4244 -0.4619
   23SAPC  H10X 3082   0.958   0.552   9.301  3.8497  0.4143 -3.0530
   23SAPC  H10Y 3083   0.950   0.414   9.406 -0.0217  0.8759  0.2522
   23SAPC  C311 3084   1.145   0.441   9.329  0.5945 -0.3953  0.6855
   23SAPC  H11X 3085   1.184   0.378   9.412  1.2563 -1.3618 -0.3457
   23SAPC  H11Y 3086   1.213   0.526   9.308 -0.1206  0.2502  0.9438
   23SAPC  C312 3087   1.130   0.370   9.187 -0.5889 -0.2477  0.5177
   23SAPC  H12X 3088   1.079   0.272   9.196 -0.3610 -0.3519  0.6849
   23SAPC  H12Y 3089   1.236   0.347   9.160 -1.3255 -0.2196 -2.6054
   23SAPC  C313 3090   1.073   0.463   9.080 -0.0656  0.1621  0.1922
   23SAPC  H13X 3091   1.060   0.570   9.110  1.4855  0.8842 -1.6181
   23SAPC  H13Y 3092   0.971   0.424   9.061 -0.2919  1.7948 -2.2072
   23SAPC  C314 3093   1.138   0.456   8.945 -0.4421  0.0151  0.7287
   23SAPC  H14X 3094   1.066   0.511   8.882  0.2386  0.0972  0.0139
   23SAPC  H14Y 3095   1.128   0.347   8.926  0.9207  0.1732 -1.1017
   23SAPC  C315 3096   1.289   0.494   8.932 -0.3555 -0.3614 -0.7807
   23SAPC  H15X 3097   1.329   0.445   8.841  2.0225 -0.9876  0.5530
   23SAPC  H15Y 3098   1.346   0.464   9.023 -1.0554  1.1570  0.1723
   23SAPC  C316 3099   1.302   0.648   8.927  0.6863 -0.4124 -0.2317
   23SAPC  H16X 3100   1.270   0.698   9.021  2.3260  0.9474 -0.3671
   23SAPC  H16Y 3101   1.229   0.687   8.852 -0.0600 -1.5282 -0.0909
   23SAPC  C317 3102   1.444   0.697   8.879 -0.1610 -0.1499 -0.1038
   23SAPC  H17X 3103   1.448   0.668   8.772 -3.1699 -1.8163  0.1965
   23SAPC  H17Y 3104   1.519   0.630   8.928  0.1376  0.0491 -0.2878
   23SAPC  C318 3105   1.479   0.845   8.884 -0.1166 -0.1418 -0.5465
   23SAPC  H18X 3106   1.413   0.900   8.954 -0.1181  0.2417 -0.8494
   23SAPC  H18Y 3107   1.457   0.884   8.783 -1.9155  0.6845  0.1564
   23SAPC  H18Z 3108   1.585   0.850   8.919  0.0738  2.6846 -1.4691
   24SAPC     N 3109   2.625   0.649  11.440 -0.3003 -0.4393 -0.0396
   24SAPC   C12 3110   2.687   0.519  11.388  0.1772 -0.2746 -0.1550
   24SAPC  H12A 3111   2.632   0.438  11.432  0.9763 -0.9567 -0.4000
   24SAPC  H12B 3112   2.782   0.513  11.440  1.5584  1.0558 -2.4581
   24SAPC   C13 3113   2.642   0.651  11.590 -0.1564 -0.0719  0.0636
   24SAPC  H13A 3114   2.572   0.584  11.638 -0.4193  0.5097  0.4977
   24SAPC  H13B 3115   2.747   0.637  11.612 -0.3436  0.6128  1.4402
   24SAPC  H13C 3116   2.604   0.748  11.617 -2.0759 -0.9055  0.4589
   24SAPC   C14 3117   2.695   0.774  11.386 -0.7453  1.3526  0.5293
   24SAPC  H14A 3118   2.696   0.762  11.279  1.8182  1.2371  0.5492
   24SAPC  H14B 3119   2.662   0.872  11.417  2.1968  1.9202  2.0623
   24SAPC  H14C 3120   2.798   0.775  11.417 -0.4782  2.4556 -0.3719
   24SAPC   C15 3121   2.474   0.658  11.421  1.0226  0.5387  0.9992
   24SAPC  H15A 3122   2.418   0.573  11.458  1.1707 -0.2392 -0.5202
   24SAPC  H15B 3123   2.434   0.747  11.467 -0.0812  1.1775 -1.1080
   24SAPC  H15C 3124   2.458   0.673  11.315  0.5279  3.1983  1.4110
   24SAPC   C11 3125   2.680   0.479  11.238  0.5090  0.0390  0.7187
   24SAPC  H11A 3126   2.572   0.475  11.215  0.5149  2.9385 -0.0610
   24SAPC  H11B 3127   2.727   0.380  11.222 -1.5305 -0.7186 -0.7416
   24SAPC     P 3128   2.898   0.553  11.126 -0.4827  0.0108 -0.2304
   24SAPC   O13 3129   2.966   0.675  11.079 -0.3537  0.3182 -0.3360
   24SAPC   O14 3130   2.976   0.481  11.234 -0.1530 -0.3974  0.0230
   24SAPC   O12 3131   2.747   0.583  11.160 -0.3793  0.3698 -0.8761
   24SAPC   O11 3132   2.882   0.450  10.999 -0.0477  0.3305 -0.3543
   24SAPC    C1 3133   2.772   0.457  10.907  0.0920  0.1342  0.7866
   24SAPC    HA 3134   2.678   0.431  10.961  0.8165 -0.5656  1.7213
   24SAPC    HB 3135   2.760   0.562  10.872 -0.8296  0.0653  0.8748
   24SAPC    C2 3136   2.793   0.354  10.802  0.5340  0.0846 -0.5470
   24SAPC    HS 3137   2.740   0.265  10.842 -0.3214  1.4823  1.4977
   24SAPC   O21 3138   2.935   0.331  10.778  0.2220  0.2879 -0.4971
   24SAPC   C21 3139   2.969   0.212  10.726  0.6077  0.1745  0.2053
   24SAPC   O22 3140   2.910   0.109  10.739 -0.3983  0.2769  0.3026
   24SAPC   C22 3141   3.106   0.219  10.657 -0.2223 -0.4737  0.2893
   24SAPC   H2R 3142   3.124   0.326  10.636  0.3207 -0.8997 -1.5040
   24SAPC   H2S 3143   3.180   0.173  10.727  0.9995  0.0623 -0.6272
   24SAPC    C3 3144   2.731   0.399  10.672 -0.2117 -0.6128 -0.0428
   24SAPC    HX 3145   2.794   0.476  10.622  0.0338 -0.3856  0.6173
   24SAPC    HY 3146   2.630   0.441  10.692  0.5575 -0.0164  2.8803
   24SAPC   O31 3147   2.722   0.283  10.582 -0.0262  0.2788  0.0592
   24SAPC   C31 3148   2.605   0.220  10.576 -0.1058 -0.7699  0.5803
   24SAPC   O32 3149   2.501   0.258  10.619  0.1340  0.1500  0.0831
   24SAPC   C32 3150   2.625   0.093  10.496  0.3572  0.3130 -0.0078
   24SAPC   H2X 3151   2.668   0.021  10.568  0.7531 -0.2967 -0.8470
   24SAPC   H2Y 3152   2.713   0.105  10.429  0.7906 -0.4322  0.4183
   24SAPC   C23 3153   3.123   0.137  10.520 -0.1969  1.0929 -0.6705
   24SAPC   H3R 3154   3.086   0.034  10.536  0.5136  1.1109  1.2469
   24SAPC   H3S 3155   3.231   0.125  10.496  0.5620  1.0960  2.5293
   24SAPC   C24 3156   3.045   0.209  10.402 -0.7498 -0.6940 -0.2830
   24SAPC   H4R 3157   3.073   0.316  10.411  1.3267 -1.2963  0.8958
   24SAPC   H4S 3158   2.938   0.193  10.428 -0.4808 -0.6047  0.9352
   24SAPC   C25 3159   3.072   0.169  10.262 -0.3635  0.9393  0.0895
   24SAPC   H5R 3160   3.166   0.113  10.249 -0.2350  1.2909 -0.4890
   24SAPC   C26 3161   2.984   0.199  10.165 -0.6017  0.6209 -0.2151
   24SAPC   H6R 3162   3.012   0.163  10.065  1.2330 -1.8798  1.1468
   24SAPC   C27 3163   2.852   0.279  10.172 -0.0702 -0.4673  0.2522
   24SAPC   H7R 3164   2.866   0.387  10.147 -0.3219 -0.5510 -0.2511
   24SAPC   H7S 3165   2.796   0.265  10.267  0.5369 -0.0854  0.6758
   24SAPC   C28 3166   2.765   0.205  10.071  0.3193  0.0855 -0.1869
   24SAPC   H8R 3167   2.686   0.144  10.116  1.6253  0.2469  2.4445
   24SAPC   C29 3168   2.759   0.221   9.938  0.2328 -0.8725 -0.0911
   24SAPC   H9R 3169   2.694   0.158   9.877  1.2261 -2.2027  0.1995
   24SAPC  C210 3170   2.839   0.322   9.860 -0.5755 -0.4551  0.8953
   24SAPC  H10R 3171   2.888   0.272   9.774 -0.2155 -0.6900  1.2336
   24SAPC  H10S 3172   2.913   0.364   9.931 -0.9856 -0.8463  1.5612
   24SAPC  C211 3173   2.753   0.450   9.824 -0.3366  0.2967  0.3635
   24SAPC  H11R 3174   2.748   0.523   9.905  0.1427 -1.8003  2.3335
   24SAPC  C212 3175   2.689   0.470   9.710  0.2414  0.3818  0.6453
   24SAPC  H12R 3176   2.627   0.561   9.702 -2.9630 -1.4387  3.5514
   24SAPC  C213 3177   2.688   0.379   9.595 -0.1132  0.7094 -0.1307
   24SAPC  H13R 3178   2.592   0.324   9.590  0.9182 -1.2934  1.3319
   24SAPC  H13S 3179   2.766   0.300   9.604  0.3612  1.0080 -1.5521
   24SAPC  C214 3180   2.703   0.465   9.471  0.8806 -0.5353  0.1797
   24SAPC  H14R 3181   2.758   0.561   9.470 -1.1934  0.6980 -2.5892
   24SAPC  C215 3182   2.635   0.457   9.358 -0.0885  0.5876 -0.1275
   24SAPC  H15R 3183   2.666   0.534   9.286 -0.0711 -1.3320 -2.2227
   24SAPC  C216 3184   2.531   0.358   9.320 -0.1266 -0.2521 -0.7288
   24SAPC  H16R 3185   2.432   0.407   9.310 -1.4409 -2.4708  1.0224
   24SAPC  H16S 3186   2.524   0.286   9.403  0.3612 -1.9853 -2.1514
   24SAPC  C217 3187   2.554   0.284   9.193 -0.1806 -0.6970  0.0827
   24SAPC  H17R 3188   2.660   0.269   9.164  0.8596  2.7927  1.8645
   24SAPC  H17S 3189   2.510   0.350   9.115 -1.4880  0.4706  1.7788
   24SAPC  C218 3190   2.495   0.142   9.180 -0.5007 -0.4994  0.9824
   24SAPC  H18R 3191   2.389   0.144   9.214 -0.0708 -0.4951  2.3362
   24SAPC  H18S 3192   2.568   0.087   9.243  1.5338 -1.5597 -2.1804
   24SAPC  C219 3193   2.520   0.094   9.033  0.2311 -0.2675  0.4118
   24SAPC  H19R 3194   2.628   0.106   9.010  0.8024 -1.6176  2.2654
   24SAPC  H19S 3195   2.456   0.156   8.966 -1.4126 -1.2872  1.0002
   24SAPC  C220 3196   2.488  -0.056   9.009  0.4211 -0.9332 -0.6206
   24SAPC  H20R 3197   2.570  -0.119   9.050  2.0454  1.9539  0.7071
   24SAPC  H20S 3198   2.479  -0.084   8.901 -2.5495  2.3171 -1.2877
   24SAPC  H20T 3199   2.393  -0.081   9.061 -0.4306  1.1511 -1.1231
   24SAPC   C33 3200   2.503   0.022  10.429  0.0380 -0.5134  0.0933
   24SAPC   H3X 3201   2.422  -0.001  10.502  1.1844  0.3510  1.6608
   24SAPC   H3Y 3202   2.541  -0.070  10.381 -1.2196 -0.6322 -0.6911
   24SAPC   C34 3203   2.456   0.111  10.322 -0.0694 -0.0070  0.0883
   24SAPC   H4X 3204   2.539   0.155  10.262  0.7770  1.0719  2.0305
   24SAPC   H4Y 3205   2.425   0.201  10.380 -0.3135  0.0572 -0.1404
   24SAPC   C35 3206   2.347   0.050  10.235  0.4161 -0.5014 -0.0793
   24SAPC   H5X 3207   2.281   0.130  10.196  1.3072  1.2109  1.8472
   24SAPC   H5Y 3208   2.286  -0.022  10.294 -0.1415  1.1534  1.3923
   24SAPC   C36 3209   2.405  -0.037  10.118 -1.0065  0.8052  0.1736
   24SAPC   H6X 3210   2.364  -0.140  10.113 -2.1380  1.2506  0.1417
   24SAPC   H6Y 3211   2.515  -0.036  10.136 -0.9816 -1.5741  0.3199
   24SAPC   C37 3212   2.398   0.032   9.984  0.2715  0.9408  0.1132
   24SAPC   H7X 3213   2.439   0.135   9.987 -1.6219  1.7955 -2.0336
   24SAPC   H7Y 3214   2.290   0.048   9.962 -0.0535  1.6508  2.1598
   24SAPC   C38 3215   2.471  -0.027   9.865 -0.7432  0.4649 -0.2503
   24SAPC   H8X 3216   2.432  -0.129   9.848 -1.5964  0.8321 -0.5361
   24SAPC   H8Y 3217   2.578  -0.037   9.893 -0.8781 -1.2501 -0.3224
   24SAPC   C39 3218   2.481   0.063   9.741  0.3322 -0.2191 -0.3329
   24SAPC   H9X 3219   2.569   0.023   9.687  0.2077  0.7028 -1.2388
   24SAPC   H9Y 3220   2.504   0.170   9.757  0.0039 -0.0117 -1.2018
   24SAPC  C310 3221   2.352   0.056   9.652  1.1205  0.9604 -0.2535
   24SAPC  H10X 3222   2.346   0.136   9.576 -0.0365  0.9853 -0.1420
   24SAPC  H10Y 3223   2.265   0.061   9.721  1.6828  0.4213  0.5170
   24SAPC  C311 3224   2.339  -0.075   9.559  0.3904 -0.0374  0.4977
   24SAPC  H11X 3225   2.316  -0.160   9.627  1.2631 -1.7190 -1.2487
   24SAPC  H11Y 3226   2.434  -0.097   9.505  0.8302 -2.0611  2.0415
   24SAPC  C312 3227   2.236  -0.056   9.457  0.0119 -0.5377  0.6782
   24SAPC  H12X 3228   2.261   0.038   9.404 -1.1191 -0.1098  0.8860
   24SAPC  H12Y 3229   2.135  -0.031   9.495  0.4963  1.4213  0.7333
   24SAPC  C313 3230   2.215  -0.167   9.349  0.6337 -0.8702  0.0784
   24SAPC  H13X 3231   2.178  -0.258   9.401  1.0657 -0.8765  0.3830
   24SAPC  H13Y 3232   2.315  -0.196   9.311  0.2834 -0.3040 -1.3066
   24SAPC  C314 3233   2.116  -0.112   9.251 -0.5319  0.3566  0.5296
   24SAPC  H14X 3234   2.143  -0.011   9.215 -0.4553  0.5423  1.1119
   24SAPC  H14Y 3235   2.018  -0.105   9.302 -1.3082  0.5357 -0.9470
   24SAPC  C315 3236   2.101  -0.202   9.131 -0.6159  0.2261  0.3092
   24SAPC  H15X 3237   2.094  -0.309   9.162 -0.2560 -0.1884 -0.9931
   24SAPC  H15Y 3238   2.189  -0.190   9.064 -1.1088 -0.9844 -0.5799
   24SAPC  C316 3239   1.980  -0.170   9.038 -0.6536 -0.3841 -0.0054
   24SAPC  H16X 3240   1.974  -0.059   9.040 -0.7622 -0.4032  0.9590
   24SAPC  H16Y 3241   1.889  -0.208   9.088  0.3314 -0.0076  2.0918
   24SAPC  C317 3242   1.993  -0.234   8.900 -0.5707 -0.4689  0.3761
   24SAPC  H17X 3243   1.904  -0.198   8.845 -0.4521 -0.1052  0.4207
   24SAPC  H17Y 3244   1.997  -0.345   8.898 -0.7072 -0.4570 -2.2955
   24SAPC  C318 3245   2.119  -0.201   8.820  0.0212  0.4664 -0.0860
   24SAPC  H18X 3246   2.144  -0.093   8.828  0.8097  0.2411  0.5478
   24SAPC  H18Y 3247   2.114  -0.238   8.716  0.2998  1.0357 -0.3078
   24SAPC  H18Z 3248   2.206  -0.249   8.870 -0.0937 -0.3510 -0.6690
   25SAPC     N 3249   6.023   4.837   5.892 -0.6201 -0.0397 -0.6689
   25SAPC   C12 3250   6.166   4.817   5.943 -0.2326 -0.0283 -0.6441
   25SAPC  H12A 3251   6.224   4.908   5.951  1.0448 -0.8993  0.3358
   25SAPC  H12B 3252   6.227   4.761   5.874  0.6567 -0.6876  0.6484
   25SAPC   C13 3253   6.033   4.931   5.773  0.0064  0.4479 -0.1031
   25SAPC  H13A 3254   5.938   4.946   5.723  0.0099  1.7443  0.2586
   25SAPC  H13B 3255   6.056   5.028   5.815  0.1984 -0.1010  1.0853
   25SAPC  H13C 3256   6.114   4.910   5.706 -0.3755  0.5934 -0.6097
   25SAPC   C14 3257   5.971   4.701   5.855 -0.1607 -0.1199  0.0201
   25SAPC  H14A 3258   6.045   4.658   5.790 -1.7875 -1.9354 -0.6767
   25SAPC  H14B 3259   5.957   4.646   5.947 -1.4166 -2.1110 -1.3333
   25SAPC  H14C 3260   5.874   4.710   5.807  0.4149  2.1068 -0.8117
   25SAPC   C15 3261   5.933   4.901   5.992 -0.0622  0.5656 -0.4064
   25SAPC  H15A 3262   5.940   4.841   6.081 -2.2948  2.7176  1.2916
   25SAPC  H15B 3263   5.964   4.999   6.028  1.0027  0.2128 -0.3481
   25SAPC  H15C 3264   5.831   4.908   5.958 -0.1902  0.5451 -0.0273
   25SAPC   C11 3265   6.190   4.741   6.068 -0.3702  0.9153 -0.5404
   25SAPC  H11A 3266   6.119   4.779   6.145  0.6252 -5.1181  3.7229
   25SAPC  H11B 3267   6.291   4.767   6.106 -0.6820  1.6861 -0.2232
   25SAPC     P 3268   6.082   4.504   6.125 -0.0382  0.2053 -0.0362
   25SAPC   O13 3269   5.963   4.585   6.156  0.0638 -0.0834 -0.7355
   25SAPC   O14 3270   6.059   4.381   6.049 -1.0103  0.1402 -0.7773
   25SAPC   O12 3271   6.176   4.599   6.053 -0.3742 -0.0871  0.4665
   25SAPC   O11 3272   6.155   4.474   6.256  0.0134  0.2587 -0.3312
   25SAPC    C1 3273   6.275   4.533   6.309 -0.0547  0.1967 -0.3502
   25SAPC    HA 3274   6.365   4.509   6.249  0.0197  0.9344 -0.5349
   25SAPC    HB 3275   6.255   4.642   6.313 -0.6455  0.0450  2.0415
   25SAPC    C2 3276   6.301   4.498   6.460 -0.0658 -0.2901  0.1073
   25SAPC    HS 3277   6.337   4.394   6.477  0.9455  0.0395  0.0405
   25SAPC   O21 3278   6.175   4.523   6.531  0.0392 -0.4174 -0.4768
   25SAPC   C21 3279   6.101   4.422   6.557  0.3967  0.2263 -0.4492
   25SAPC   O22 3280   6.117   4.307   6.522 -0.1688 -0.4531  0.6907
   25SAPC   C22 3281   5.971   4.454   6.628 -0.1933  0.4167  0.7735
   25SAPC   H2R 3282   5.988   4.529   6.709 -1.6081  1.5167  0.0791
   25SAPC   H2S 3283   5.908   4.508   6.554  1.7612  0.5128 -0.8754
   25SAPC    C3 3284   6.410   4.594   6.518  0.1051 -0.0492  0.6124
   25SAPC    HX 3285   6.373   4.699   6.524  1.8250  0.6939 -1.0865
   25SAPC    HY 3286   6.499   4.593   6.451 -0.5376  0.5838 -0.2745
   25SAPC   O31 3287   6.443   4.545   6.647  0.5035 -0.2823 -0.6503
   25SAPC   C31 3288   6.372   4.585   6.757 -0.0605 -0.6749  0.2646
   25SAPC   O32 3289   6.273   4.648   6.760  0.3199  0.1226  0.1728
   25SAPC   C32 3290   6.439   4.513   6.874  0.9952 -0.2787 -0.0571
   25SAPC   H2X 3291   6.542   4.552   6.895  0.6733  1.3232 -1.3564
   25SAPC   H2Y 3292   6.462   4.413   6.833  1.2262 -1.5924  3.1123
   25SAPC   C23 3293   5.890   4.334   6.687 -0.0747 -0.1770 -0.5661
   25SAPC   H3R 3294   5.851   4.270   6.604 -1.8371  0.6768 -0.4047
   25SAPC   H3S 3295   5.805   4.384   6.736 -1.1453 -1.1637 -1.3748
   25SAPC   C24 3296   5.983   4.260   6.793  0.3172  0.2260 -0.1126
   25SAPC   H4R 3297   6.057   4.336   6.827  1.4819  0.0453 -2.1918
   25SAPC   H4S 3298   6.040   4.183   6.738 -1.4717 -0.4061 -1.1188
   25SAPC   C25 3299   5.901   4.183   6.893  0.3718 -0.5024  0.0142
   25SAPC   H5R 3300   5.823   4.110   6.868 -0.5175  0.3748  0.2235
   25SAPC   C26 3301   5.914   4.177   7.027  0.8982  0.1300  0.0285
   25SAPC   H6R 3302   5.856   4.097   7.076  0.6680 -1.6547 -3.0313
   25SAPC   C27 3303   6.015   4.260   7.110  0.0494  0.2037  0.3693
   25SAPC   H7R 3304   5.963   4.309   7.195 -1.6511  0.5799 -0.8480
   25SAPC   H7S 3305   6.057   4.340   7.046 -2.4130  1.5330  0.3729
   25SAPC   C28 3306   6.132   4.180   7.160 -0.1419  0.0343  0.2141
   25SAPC   H8R 3307   6.189   4.136   7.078 -3.7030 -1.6799 -1.4209
   25SAPC   C29 3308   6.159   4.165   7.294  0.1159  0.3976 -0.5103
   25SAPC   H9R 3309   6.248   4.115   7.336  1.0935  1.4594 -1.2804
   25SAPC  C210 3310   6.074   4.222   7.407 -0.2417  0.9082  0.3859
   25SAPC  H10R 3311   5.975   4.173   7.389  0.2147  0.6423 -1.5035
   25SAPC  H10S 3312   6.072   4.331   7.389  1.5444  0.9674  0.4429
   25SAPC  C211 3313   6.125   4.180   7.542  1.2842 -0.4624 -0.4931
   25SAPC  H11R 3314   6.167   4.080   7.559  1.7582 -0.1787  0.0315
   25SAPC  C212 3315   6.121   4.257   7.651  0.4046 -0.7175 -0.2386
   25SAPC  H12R 3316   6.166   4.211   7.740  1.2761 -0.1417 -0.3807
   25SAPC  C213 3317   6.060   4.396   7.666  0.1270  0.0416  0.0701
   25SAPC  H13R 3318   5.992   4.420   7.581  2.2619  0.8911 -1.4275
   25SAPC  H13S 3319   6.140   4.473   7.677 -2.6919  2.8513  2.1177
   25SAPC  C214 3320   5.979   4.409   7.789  0.2325 -0.1875 -0.1613
   25SAPC  H14R 3321   6.016   4.356   7.879  1.3805  3.1820  1.4340
   25SAPC  C215 3322   5.878   4.493   7.810 -0.4322 -0.0244  0.3661
   25SAPC  H15R 3323   5.821   4.479   7.903 -0.4964 -0.3876  0.2705
   25SAPC  C216 3324   5.809   4.585   7.711 -0.6232  0.0583  0.1707
   25SAPC  H16R 3325   5.862   4.595   7.614 -1.0100  2.0704  0.1335
   25SAPC  H16S 3326   5.796   4.688   7.751  0.0261  0.7912 -1.4720
   25SAPC  C217 3327   5.669   4.547   7.661  0.1649 -0.1998  0.0694
   25SAPC  H17R 3328   5.617   4.631   7.609 -1.0504 -0.0706  1.4796
   25SAPC  H17S 3329   5.603   4.526   7.748  0.9128 -0.7112  0.5160
   25SAPC  C218 3330   5.656   4.420   7.579 -0.2776 -0.1472  0.1534
   25SAPC  H18R 3331   5.555   4.379   7.600 -0.7750  1.9081  1.9406
   25SAPC  H18S 3332   5.741   4.355   7.607 -0.0489  0.5374  1.0746
   25SAPC  C219 3333   5.672   4.440   7.416  0.9994 -0.8041  0.1298
   25SAPC  H19R 3334   5.768   4.487   7.388 -0.6053  1.8055 -1.2404
   25SAPC  H19S 3335   5.596   4.516   7.388  0.5008 -0.3440  2.6402
   25SAPC  C220 3336   5.638   4.319   7.332 -0.0470  0.1064 -0.4448
   25SAPC  H20R 3337   5.719   4.244   7.347 -0.6808 -1.0117 -2.4965
   25SAPC  H20S 3338   5.629   4.349   7.226 -0.8269  0.3210 -0.3202
   25SAPC  H20T 3339   5.537   4.276   7.350  0.9893 -1.1008  2.9872
   25SAPC   C33 3340   6.358   4.493   7.010 -1.0311 -0.1537 -0.2670
   25SAPC   H3X 3341   6.278   4.417   7.006  0.4183 -1.8130  1.2472
   25SAPC   H3Y 3342   6.310   4.593   7.021 -1.9328 -0.4514 -1.4383
   25SAPC   C34 3343   6.459   4.455   7.125  0.0182 -0.2420 -0.8196
   25SAPC   H4X 3344   6.545   4.524   7.145 -1.0161  0.5979  0.8663
   25SAPC   H4Y 3345   6.505   4.354   7.115  2.1648  0.1857  3.2890
   25SAPC   C35 3346   6.391   4.438   7.261 -0.4440 -0.4926  0.5070
   25SAPC   H5X 3347   6.348   4.336   7.268  1.3988 -1.3320  0.0630
   25SAPC   H5Y 3348   6.320   4.523   7.270  0.4521  0.2841  0.3393
   25SAPC   C36 3349   6.492   4.442   7.382 -0.2851 -0.4163 -0.1057
   25SAPC   H6X 3350   6.547   4.538   7.389 -0.1658 -0.4533 -0.5011
   25SAPC   H6Y 3351   6.566   4.359   7.374 -0.2046 -0.3045 -0.5075
   25SAPC   C37 3352   6.419   4.432   7.522 -0.2013 -0.2309 -0.2473
   25SAPC   H7X 3353   6.369   4.335   7.539 -1.9058  0.8788  1.2686
   25SAPC   H7Y 3354   6.335   4.504   7.533  0.7606  0.2700  5.2364
   25SAPC   C38 3355   6.517   4.463   7.634 -0.4990 -0.0891  0.2392
   25SAPC   H8X 3356   6.555   4.565   7.613  0.4450 -0.5734 -0.4407
   25SAPC   H8Y 3357   6.608   4.400   7.626  0.1872  1.1261 -2.0703
   25SAPC   C39 3358   6.456   4.442   7.773 -0.6100  0.0324 -0.5523
   25SAPC   H9X 3359   6.419   4.338   7.780  1.0247 -0.5050  0.4234
   25SAPC   H9Y 3360   6.365   4.506   7.768 -0.3567  0.4099 -0.3867
   25SAPC  C310 3361   6.547   4.470   7.892  0.5141 -0.5515 -0.9692
   25SAPC  H10X 3362   6.570   4.576   7.916  3.5428 -1.6545  1.2112
   25SAPC  H10Y 3363   6.643   4.415   7.881  0.9467  0.0906 -0.3781
   25SAPC  C311 3364   6.478   4.418   8.023 -0.6389 -0.1353  0.2914
   25SAPC  H11X 3365   6.469   4.307   8.019 -0.5362 -0.1546  0.5690
   25SAPC  H11Y 3366   6.375   4.457   8.027 -0.7072 -0.4458  1.8539
   25SAPC  C312 3367   6.560   4.430   8.149 -0.7100 -0.2388 -0.1992
   25SAPC  H12X 3368   6.590   4.537   8.156  1.8163 -0.7910 -2.1590
   25SAPC  H12Y 3369   6.658   4.379   8.147 -0.2925  0.6025 -1.6789
   25SAPC  C313 3370   6.486   4.388   8.274 -0.1153 -0.1596  0.2298
   25SAPC  H13X 3371   6.466   4.279   8.278  2.7073 -0.6636  2.3750
   25SAPC  H13Y 3372   6.394   4.444   8.301  0.3718 -0.1284  1.8510
   25SAPC  C314 3373   6.572   4.414   8.406 -0.2350  0.0558 -0.2215
   25SAPC  H14X 3374   6.582   4.522   8.427 -0.7682 -0.0013  0.3741
   25SAPC  H14Y 3375   6.676   4.377   8.393  0.1172  0.4303  1.4633
   25SAPC  C315 3376   6.505   4.343   8.528 -0.1708  0.0662 -0.4716
   25SAPC  H15X 3377   6.508   4.232   8.515 -3.5543  0.0269 -1.5779
   25SAPC  H15Y 3378   6.397   4.370   8.530 -0.0002  0.6199  1.1905
   25SAPC  C316 3379   6.551   4.395   8.668 -0.1226  0.5862  0.1976
   25SAPC  H16X 3380   6.476   4.371   8.746  0.2919  0.4830  0.5593
   25SAPC  H16Y 3381   6.561   4.506   8.671  1.5888  0.4545 -0.3534
   25SAPC  C317 3382   6.683   4.322   8.698 -0.1533  0.3425 -0.0222
   25SAPC  H17X 3383   6.746   4.327   8.607  0.6257  1.5771  0.5837
   25SAPC  H17Y 3384   6.669   4.214   8.722 -1.6996  0.3759 -0.6834
   25SAPC  C318 3385   6.757   4.392   8.813 -0.3000  0.4758  0.1184
   25SAPC  H18X 3386   6.701   4.366   8.906  1.7062  2.1449  1.8214
   25SAPC  H18Y 3387   6.747   4.502   8.809  0.3036  0.5942  1.6584
   25SAPC  H18Z 3388   6.861   4.354   8.808 -0.9003 -1.2332  0.2106
   26SAPC     N 3389   5.942   0.475   6.189  0.2330  0.3892 -1.1071
   26SAPC   C12 3390   5.950   0.323   6.228  0.2301 -0.1683 -0.4931
   26SAPC  H12A 3391   6.004   0.279   6.145 -0.6606  0.7512 -1.5792
   26SAPC  H12B 3392   5.851   0.284   6.212 -0.0488  0.4527 -0.2756
   26SAPC   C13 3393   6.068   0.537   6.226 -0.0197 -0.0701  0.0310
   26SAPC  H13A 3394   6.078   0.645   6.220  0.9341 -0.2177 -1.3629
   26SAPC  H13B 3395   6.101   0.515   6.326  0.4398  1.8438  0.3211
   26SAPC  H13C 3396   6.140   0.492   6.159 -2.3890 -1.4947 -1.6298
   26SAPC   C14 3397   5.909   0.489   6.047  0.5208  0.2694  0.0795
   26SAPC  H14A 3398   5.828   0.429   6.008  2.9575 -1.5301 -2.4632
   26SAPC  H14B 3399   5.890   0.591   6.017 -2.9401 -0.4655 -0.4147
   26SAPC  H14C 3400   5.999   0.455   5.998 -0.3376  0.8269 -1.9279
   26SAPC   C15 3401   5.842   0.540   6.279  0.2427 -0.6451 -0.4741
   26SAPC  H15A 3402   5.830   0.644   6.251  0.0779 -0.7803 -0.9090
   26SAPC  H15B 3403   5.747   0.488   6.270 -0.8292  1.1335  0.2657
   26SAPC  H15C 3404   5.870   0.535   6.383 -0.3822 -3.5229 -0.4045
   26SAPC   C11 3405   6.018   0.287   6.361  0.2799  0.7062 -0.3073
   26SAPC  H11A 3406   5.953   0.344   6.431  1.8300  1.1515  0.7958
   26SAPC  H11B 3407   6.124   0.318   6.367  0.7600 -1.0868  0.7112
   26SAPC     P 3408   5.863   0.082   6.402 -0.4279 -0.0267 -0.6870
   26SAPC   O13 3409   5.761   0.184   6.395  0.0039 -0.0942 -0.8791
   26SAPC   O14 3410   5.856  -0.037   6.314  0.3221  0.6482 -0.2807
   26SAPC   O12 3411   6.004   0.143   6.378 -0.9597  0.5080  0.6045
   26SAPC   O11 3412   5.877   0.030   6.554  0.8287  0.2646  0.0054
   26SAPC    C1 3413   5.983   0.048   6.644  0.4059  0.4044  0.7284
   26SAPC    HA 3414   6.063   0.112   6.601  1.5873 -0.9743  0.8693
   26SAPC    HB 3415   5.945   0.105   6.732  0.5789  1.2169  0.2800
   26SAPC    C2 3416   6.030  -0.096   6.679 -0.6266  0.2472  0.0581
   26SAPC    HS 3417   6.062  -0.138   6.582 -1.3463 -0.5927  0.1742
   26SAPC   O21 3418   5.922  -0.157   6.741 -0.5683 -0.6509 -0.1354
   26SAPC   C21 3419   5.926  -0.293   6.723  0.1986 -0.2059 -0.3793
   26SAPC   O22 3420   6.009  -0.352   6.657  0.3855 -0.6356  0.0036
   26SAPC   C22 3421   5.803  -0.349   6.791 -0.4419  0.4745  0.0865
   26SAPC   H2R 3422   5.720  -0.277   6.807  0.0792  1.0635  0.1835
   26SAPC   H2S 3423   5.762  -0.433   6.732  1.7770 -1.2320  0.8838
   26SAPC    C3 3424   6.152  -0.085   6.771 -0.3505 -0.6187 -0.3291
   26SAPC    HX 3425   6.234  -0.036   6.713 -0.5085 -1.5300 -1.3303
   26SAPC    HY 3426   6.179  -0.192   6.785 -3.8079 -1.7418 -1.7688
   26SAPC   O31 3427   6.126  -0.018   6.896  0.2501  0.1490  0.1257
   26SAPC   C31 3428   6.238  -0.010   6.969 -0.4196 -1.1221 -0.4718
   26SAPC   O32 3429   6.346  -0.045   6.929  0.2109  0.8082  0.3362
   26SAPC   C32 3430   6.213   0.054   7.105 -0.3279 -0.7478  0.4192
   26SAPC   H2X 3431   6.123   0.117   7.084  0.1403 -0.0970  0.3631
   26SAPC   H2Y 3432   6.301   0.120   7.122 -0.3231 -0.5018 -0.5183
   26SAPC   C23 3433   5.842  -0.404   6.932  0.5595  0.6540  0.8155
   26SAPC   H3R 3434   5.908  -0.492   6.915 -0.7607 -0.1548 -0.3009
   26SAPC   H3S 3435   5.746  -0.444   6.972  0.1083 -0.4879 -1.3299
   26SAPC   C24 3436   5.917  -0.317   7.030 -0.1032 -1.1655 -0.3682
   26SAPC   H4R 3437   6.009  -0.273   6.986  1.1494 -1.9328  1.4253
   26SAPC   H4S 3438   5.955  -0.375   7.117  0.1640  1.3022  1.1991
   26SAPC   C25 3439   5.828  -0.208   7.077  0.8501  0.1203  0.0272
   26SAPC   H5R 3440   5.777  -0.159   6.993  0.7831  1.3607  0.7768
   26SAPC   C26 3441   5.790  -0.177   7.203  0.4590 -0.0940  0.2267
   26SAPC   H6R 3442   5.708  -0.105   7.212  0.5393  0.2372 -1.4770
   26SAPC   C27 3443   5.840  -0.239   7.332  0.1521 -0.3918 -0.2595
   26SAPC   H7R 3444   5.950  -0.251   7.325  0.5263  2.0706  0.8067
   26SAPC   H7S 3445   5.811  -0.346   7.337 -2.1910  0.2890  1.1141
   26SAPC   C28 3446   5.803  -0.187   7.468  0.3311  0.3028 -0.5747
   26SAPC   H8R 3447   5.767  -0.083   7.469  0.4962  0.3610  1.1847
   26SAPC   C29 3448   5.791  -0.262   7.578  0.1859  0.0820 -0.0989
   26SAPC   H9R 3449   5.783  -0.205   7.671 -0.2033 -2.0406  1.1994
   26SAPC  C210 3450   5.825  -0.407   7.602 -0.1194  0.1061 -0.1446
   26SAPC  H10R 3451   5.756  -0.479   7.553 -1.1548 -0.3503  1.9393
   26SAPC  H10S 3452   5.804  -0.430   7.709  1.0798 -3.1200 -0.5418
   26SAPC  C211 3453   5.968  -0.428   7.588  0.7611  0.0123  0.6080
   26SAPC  H11R 3454   5.994  -0.457   7.485 -0.5507 -2.4017  0.9274
   26SAPC  C212 3455   6.064  -0.435   7.678 -0.3061 -0.5670  0.2119
   26SAPC  H12R 3456   6.169  -0.461   7.661 -0.5617 -0.9647 -0.8074
   26SAPC  C213 3457   6.038  -0.423   7.826  0.0944 -0.2717  0.3513
   26SAPC  H13R 3458   5.970  -0.505   7.859 -2.1899  1.0470 -0.9085
   26SAPC  H13S 3459   5.987  -0.326   7.843  1.2691  0.1892  1.2584
   26SAPC  C214 3460   6.155  -0.416   7.925 -0.2061  0.0958 -0.1398
   26SAPC  H14R 3461   6.236  -0.359   7.878 -1.0885  1.2396 -0.2888
   26SAPC  C215 3462   6.172  -0.471   8.047  0.3390 -0.0563 -0.5892
   26SAPC  H15R 3463   6.271  -0.463   8.094  0.7432 -2.0556 -1.0149
   26SAPC  C216 3464   6.072  -0.571   8.104  0.2932  0.2794 -0.1138
   26SAPC  H16R 3465   6.121  -0.661   8.147 -1.0482 -0.4080 -0.0048
   26SAPC  H16S 3466   6.007  -0.620   8.029  0.7982 -1.3823  0.5055
   26SAPC  C217 3467   5.983  -0.511   8.211 -0.2021  0.0156  0.8412
   26SAPC  H17R 3468   5.922  -0.434   8.158  0.5385 -0.8908 -1.3954
   26SAPC  H17S 3469   6.051  -0.457   8.280  0.6043 -0.5417  0.4868
   26SAPC  C218 3470   5.899  -0.617   8.278  0.8101 -0.6261 -0.1314
   26SAPC  H18R 3471   5.965  -0.678   8.343  0.2786 -0.5161  0.5166
   26SAPC  H18S 3472   5.855  -0.684   8.201  1.5309  0.0115 -1.1086
   26SAPC  C219 3473   5.774  -0.561   8.359 -0.9137  0.1307 -0.0463
   26SAPC  H19R 3474   5.701  -0.506   8.296  0.9427  1.5577 -1.0112
   26SAPC  H19S 3475   5.822  -0.492   8.431  3.0203 -2.2074 -0.2957
   26SAPC  C220 3476   5.688  -0.672   8.421 -0.2798  0.1068 -0.1809
   26SAPC  H20R 3477   5.617  -0.623   8.491 -0.9558 -0.9238 -0.1370
   26SAPC  H20S 3478   5.760  -0.725   8.487 -3.8578 -0.7154  3.2197
   26SAPC  H20T 3479   5.647  -0.755   8.360 -0.2977  0.0171 -0.0496
   26SAPC   C33 3480   6.191  -0.054   7.204 -0.3774 -0.3552 -0.6420
   26SAPC   H3X 3481   6.272  -0.130   7.203  0.1136  0.1359  0.5882
   26SAPC   H3Y 3482   6.095  -0.103   7.176  1.0377 -2.6057 -1.6884
   26SAPC   C34 3483   6.184  -0.008   7.351  0.5294 -0.1635 -0.6545
   26SAPC   H4X 3484   6.077   0.005   7.377  0.9625 -0.2920  1.2811
   26SAPC   H4Y 3485   6.231   0.093   7.359 -1.8205  0.7456  2.2480
   26SAPC   C35 3486   6.253  -0.097   7.455 -0.1793 -0.3027  0.6512
   26SAPC   H5X 3487   6.363  -0.096   7.439 -0.5531  2.0456 -2.1743
   26SAPC   H5Y 3488   6.225  -0.204   7.453  1.3670 -0.7171  0.6975
   26SAPC   C36 3489   6.236  -0.043   7.596 -0.2459 -0.2015  0.2075
   26SAPC   H6X 3490   6.134  -0.063   7.634 -1.0495  1.1315 -1.1871
   26SAPC   H6Y 3491   6.264   0.065   7.597 -1.4488  0.1173  0.4610
   26SAPC   C37 3492   6.337  -0.110   7.696  0.1890 -0.4045 -1.0013
   26SAPC   H7X 3493   6.439  -0.115   7.651  0.2909  0.3864 -0.8776
   26SAPC   H7Y 3494   6.314  -0.218   7.707 -0.7410 -0.1842 -0.7813
   26SAPC   C38 3495   6.340  -0.042   7.835 -0.4973  0.0990 -0.5384
   26SAPC   H8X 3496   6.242  -0.020   7.882 -1.1461  1.3563 -2.4262
   26SAPC   H8Y 3497   6.390   0.056   7.821 -0.1449  0.0449  0.3012
   26SAPC   C39 3498   6.426  -0.115   7.941 -0.0413  0.3099 -0.0563
   26SAPC   H9X 3499   6.527  -0.089   7.904 -0.2626 -0.6295 -1.3736
   26SAPC   H9Y 3500   6.404  -0.222   7.924  1.0803 -0.0631  0.8098
   26SAPC  C310 3501   6.395  -0.061   8.083 -0.4895 -0.0073  0.4299
   26SAPC  H10X 3502   6.342   0.037   8.078  1.7519  1.1650 -0.6954
   26SAPC  H10Y 3503   6.490  -0.050   8.139 -0.0273  0.0792 -0.3653
   26SAPC  C311 3504   6.296  -0.157   8.158 -0.0184  0.5705 -0.4439
   26SAPC  H11X 3505   6.343  -0.258   8.154 -0.7885  0.2019 -0.1942
   26SAPC  H11Y 3506   6.196  -0.167   8.112 -0.8286 -1.0234  1.6225
   26SAPC  C312 3507   6.293  -0.133   8.311 -0.0375 -0.5591  0.0550
   26SAPC  H12X 3508   6.253  -0.032   8.333  1.1586 -0.1314  0.3255
   26SAPC  H12Y 3509   6.395  -0.139   8.355 -0.1626 -0.3351  0.3784
   26SAPC  C313 3510   6.192  -0.228   8.384  0.2194  0.2526 -0.7199
   26SAPC  H13X 3511   6.230  -0.333   8.383 -0.2887  0.0489  0.5356
   26SAPC  H13Y 3512   6.094  -0.231   8.332  0.6288  1.8114 -1.6146
   26SAPC  C314 3513   6.175  -0.178   8.525 -0.0642 -0.1384 -0.0387
   26SAPC  H14X 3514   6.130  -0.076   8.523 -0.2415 -0.2183 -0.2729
   26SAPC  H14Y 3515   6.268  -0.164   8.583 -0.0393  1.5930 -0.4576
   26SAPC  C315 3516   6.082  -0.268   8.607 -0.2196 -0.0089  0.0035
   26SAPC  H15X 3517   5.995  -0.294   8.543 -1.1320  0.3611  1.0876
   26SAPC  H15Y 3518   6.042  -0.214   8.695  1.7925 -1.4308  1.8394
   26SAPC  C316 3519   6.156  -0.389   8.666 -0.1941 -0.0613  0.1811
   26SAPC  H16X 3520   6.252  -0.352   8.709  0.2633 -2.4040  1.2147
   26SAPC  H16Y 3521   6.193  -0.448   8.579 -0.7063  0.4634 -0.4045
   26SAPC  C317 3522   6.081  -0.477   8.763  0.0777 -0.4487 -0.1601
   26SAPC  H17X 3523   6.075  -0.425   8.861  1.1192 -0.7621  0.0789
   26SAPC  H17Y 3524   6.142  -0.569   8.779  1.6474  0.7806  1.0923
   26SAPC  C318 3525   5.933  -0.505   8.732 -0.1752 -0.7191  0.4076
   26SAPC  H18X 3526   5.918  -0.561   8.637  2.6655 -1.8937  0.6147
   26SAPC  H18Y 3527   5.871  -0.413   8.740  2.6139  1.4127 -1.6423
   26SAPC  H18Z 3528   5.898  -0.578   8.809 -2.2777 -0.3822 -0.1967
   27SAPC     N 3529   3.452   0.523   6.275 -0.4738 -0.5187  0.2806
   27SAPC   C12 3530   3.478   0.416   6.380 -0.4597 -0.2214 -0.1166
   27SAPC  H12A 3531   3.570   0.365   6.356 -0.5203  0.5697 -2.1920
   27SAPC  H12B 3532   3.401   0.342   6.370 -0.6494  0.0739 -0.9324
   27SAPC   C13 3533   3.322   0.596   6.297  0.6520  0.4446 -0.1070
   27SAPC  H13A 3534   3.237   0.534   6.271  1.7391 -1.5791  1.0294
   27SAPC  H13B 3535   3.310   0.633   6.397 -0.5542  0.5464 -0.2842
   27SAPC  H13C 3536   3.319   0.676   6.224  0.0672  2.2647  1.8743
   27SAPC   C14 3537   3.562   0.630   6.282 -0.0431 -0.0625 -0.0742
   27SAPC  H14A 3538   3.535   0.700   6.203  1.1646  1.3443  0.7288
   27SAPC  H14B 3539   3.568   0.682   6.376  1.3399 -0.1321 -0.1070
   27SAPC  H14C 3540   3.661   0.593   6.259 -0.6568 -1.7128 -0.1028
   27SAPC   C15 3541   3.455   0.465   6.140 -0.2128  0.5820 -0.7198
   27SAPC  H15A 3542   3.389   0.382   6.117 -4.4046  3.0187  1.8919
   27SAPC  H15B 3543   3.420   0.540   6.071  0.1762  0.3623 -1.1625
   27SAPC  H15C 3544   3.552   0.426   6.114 -0.6864 -0.7797 -0.5317
   27SAPC   C11 3545   3.469   0.464   6.522 -0.4886  0.0044 -0.3426
   27SAPC  H11A 3546   3.520   0.560   6.546 -1.4948  0.4164  0.1825
   27SAPC  H11B 3547   3.515   0.399   6.598 -0.8272 -0.2091 -0.3200
   27SAPC     P 3548   3.230   0.358   6.572 -0.0575 -0.0646 -0.0250
   27SAPC   O13 3549   3.114   0.414   6.644  0.1476 -0.0569  0.3041
   27SAPC   O14 3550   3.206   0.291   6.443 -0.1717  0.3406 -0.0597
   27SAPC   O12 3551   3.330   0.481   6.554  0.2999  0.3444  0.5995
   27SAPC   O11 3552   3.304   0.258   6.666  0.1227  0.3300 -0.1670
   27SAPC    C1 3553   3.315   0.290   6.805  0.0147 -0.3822 -0.0038
   27SAPC    HA 3554   3.378   0.380   6.816 -1.5849  0.6429  0.9512
   27SAPC    HB 3555   3.216   0.299   6.855  0.6045  1.9826  0.7724
   27SAPC    C2 3556   3.394   0.175   6.872  0.0504 -0.3490 -0.1595
   27SAPC    HS 3557   3.341   0.081   6.845 -0.5034  0.2053 -1.0151
   27SAPC   O21 3558   3.398   0.194   7.015 -0.2235  0.3549 -0.1966
   27SAPC   C21 3559   3.368   0.097   7.099  1.0855 -0.7588 -0.4147
   27SAPC   O22 3560   3.332  -0.017   7.066 -0.1575 -0.2283 -0.0849
   27SAPC   C22 3561   3.384   0.152   7.238  0.6212  0.0984 -0.0206
   27SAPC   H2R 3562   3.485   0.198   7.253 -0.3041  2.1326  0.2142
   27SAPC   H2S 3563   3.304   0.229   7.249  0.5341 -0.1026  0.7379
   27SAPC    C3 3564   3.543   0.171   6.829 -0.0410 -0.2200  0.1183
   27SAPC    HX 3565   3.582   0.270   6.861  0.2418 -0.8917  1.8872
   27SAPC    HY 3566   3.561   0.174   6.720  0.9971 -0.9876  0.2676
   27SAPC   O31 3567   3.607   0.055   6.899  0.1586 -0.0477 -0.3732
   27SAPC   C31 3568   3.740   0.065   6.903  0.3702  0.6831  0.2975
   27SAPC   O32 3569   3.806   0.157   6.853 -0.3281  0.1145 -0.0023
   27SAPC   C32 3570   3.803  -0.056   6.974  0.0157 -0.4155  0.1928
   27SAPC   H2X 3571   3.880  -0.084   6.898 -1.3275 -0.9573 -0.9966
   27SAPC   H2Y 3572   3.727  -0.136   6.988  0.7088 -1.1617 -0.2330
   27SAPC   C23 3573   3.365   0.056   7.351 -0.3481 -0.8094  0.0272
   27SAPC   H3R 3574   3.434  -0.031   7.346 -0.9022 -1.2740  0.3401
   27SAPC   H3S 3575   3.257   0.030   7.354 -0.8839  1.3301 -0.0346
   27SAPC   C24 3576   3.385   0.137   7.482  0.2776  0.3782 -0.1510
   27SAPC   H4R 3577   3.297   0.205   7.492  1.2904  1.7617 -0.5816
   27SAPC   H4S 3578   3.474   0.203   7.479 -1.2615  2.4978 -1.0648
   27SAPC   C25 3579   3.390   0.034   7.593  0.3205  0.3032  0.0910
   27SAPC   H5R 3580   3.487  -0.018   7.588  0.0808 -0.3619  1.9379
   27SAPC   C26 3581   3.309   0.024   7.700  0.9435 -0.5113  0.0137
   27SAPC   H6R 3582   3.319  -0.068   7.759  2.5669  0.0629  0.6732
   27SAPC   C27 3583   3.186   0.112   7.727 -0.6697  0.2141 -0.1116
   27SAPC   H7R 3584   3.148   0.154   7.632  1.0528 -0.5622 -1.1650
   27SAPC   H7S 3585   3.222   0.192   7.795  1.2098 -1.4276  0.9081
   27SAPC   C28 3586   3.075   0.043   7.809  0.3910  0.3200  0.3265
   27SAPC   H8R 3587   3.004  -0.013   7.747  1.4093 -1.0956  0.4149
   27SAPC   C29 3588   3.059   0.043   7.944  0.7198 -0.9184 -0.7284
   27SAPC   H9R 3589   2.962   0.012   7.985 -0.3516  1.0326 -1.6886
   27SAPC  C210 3590   3.142   0.117   8.049 -0.2606 -0.4451  0.1630
   27SAPC  H10R 3591   3.237   0.147   8.000 -0.8241  1.2957  0.1132
   27SAPC  H10S 3592   3.167   0.044   8.128 -0.1911 -1.4590 -0.7763
   27SAPC  C211 3593   3.062   0.237   8.094 -0.2576 -0.7801  0.2670
   27SAPC  H11R 3594   3.041   0.319   8.023 -1.8728 -0.6389  0.8982
   27SAPC  C212 3595   3.027   0.271   8.217  0.7892 -0.2706  0.2538
   27SAPC  H12R 3596   2.968   0.362   8.236 -0.8040 -0.8654 -1.6716
   27SAPC  C213 3597   3.066   0.197   8.342  0.3018  0.8526  0.8724
   27SAPC  H13R 3598   3.155   0.132   8.325 -1.1189 -1.1488  0.9505
   27SAPC  H13S 3599   2.987   0.129   8.381  0.8880  1.6681  3.6260
   27SAPC  C214 3600   3.102   0.306   8.448 -0.6200  0.1150  0.7368
   27SAPC  H14R 3601   3.152   0.394   8.405 -0.3790 -0.6199 -0.5192
   27SAPC  C215 3602   3.087   0.293   8.580  0.0041 -0.6760 -0.1040
   27SAPC  H15R 3603   3.114   0.377   8.647 -1.3662  0.2457 -0.6866
   27SAPC  C216 3604   3.031   0.171   8.648  0.3017  0.1795 -0.1444
   27SAPC  H16R 3605   3.092   0.079   8.636  0.6150  0.6561 -2.6849
   27SAPC  H16S 3606   2.926   0.152   8.615 -0.1986 -0.3082  1.6961
   27SAPC  C217 3607   3.032   0.191   8.800  0.0772  0.4535 -0.1479
   27SAPC  H17R 3608   2.989   0.098   8.844  0.6594  0.3923  0.3049
   27SAPC  H17S 3609   2.973   0.279   8.832 -0.0697  0.9312 -1.7316
   27SAPC  C218 3610   3.174   0.215   8.854 -0.1265 -0.5234  0.4728
   27SAPC  H18R 3611   3.209   0.308   8.804  3.4110 -1.7519  0.5363
   27SAPC  H18S 3612   3.250   0.140   8.825 -0.5051 -0.9470  0.5682
   27SAPC  C219 3613   3.174   0.250   9.001 -0.0546  0.3938 -0.3532
   27SAPC  H19R 3614   3.086   0.312   9.028  1.3587  2.3458 -0.1459
   27SAPC  H19S 3615   3.260   0.311   9.037 -0.4773 -0.2679  1.8704
   27SAPC  C220 3616   3.176   0.122   9.088 -0.0108  0.8641  0.5807
   27SAPC  H20R 3617   3.273   0.072   9.071 -1.1807 -2.3511  2.8788
   27SAPC  H20S 3618   3.084   0.064   9.066  0.7652 -0.9313  1.9499
   27SAPC  H20T 3619   3.168   0.150   9.195  0.3577  2.9946  0.0672
   27SAPC   C33 3620   3.871  -0.032   7.109 -0.0272 -0.7149  0.4861
   27SAPC   H3X 3621   3.957   0.036   7.092  2.1617 -3.2363  1.0985
   27SAPC   H3Y 3622   3.905  -0.135   7.134  1.2657 -0.5848 -0.6680
   27SAPC   C34 3623   3.770   0.013   7.222  0.6033 -0.1451 -0.5859
   27SAPC   H4X 3624   3.690  -0.064   7.225 -0.3132  0.8316  0.9278
   27SAPC   H4Y 3625   3.717   0.109   7.202  0.8403  0.3973  1.2838
   27SAPC   C35 3626   3.841   0.014   7.359  0.0021  0.0848  0.3735
   27SAPC   H5X 3627   3.930   0.080   7.347  0.7820 -1.2423 -1.4741
   27SAPC   H5Y 3628   3.889  -0.084   7.377  1.6381  0.4074 -2.0101
   27SAPC   C36 3629   3.760   0.051   7.484  0.4761 -0.1218  0.8015
   27SAPC   H6X 3630   3.683  -0.026   7.465  0.1191  0.0264  1.6454
   27SAPC   H6Y 3631   3.706   0.148   7.493 -1.9839 -1.3359 -0.3532
   27SAPC   C37 3632   3.824   0.007   7.613 -0.0309  0.1953 -0.8372
   27SAPC   H7X 3633   3.894   0.087   7.647 -0.7786  0.2199  0.6912
   27SAPC   H7Y 3634   3.884  -0.086   7.605 -0.5383  0.0277 -2.8664
   27SAPC   C38 3635   3.727   0.002   7.741  0.0582 -0.7522  0.2333
   27SAPC   H8X 3636   3.786  -0.029   7.830  0.7552  1.6064  0.6242
   27SAPC   H8Y 3637   3.638  -0.063   7.726 -0.7338  0.2532  0.5301
   27SAPC   C39 3638   3.672   0.143   7.776 -0.0154 -0.1767  0.3340
   27SAPC   H9X 3639   3.619   0.169   7.682  1.3063 -0.5417 -0.5168
   27SAPC   H9Y 3640   3.754   0.215   7.796  0.2658 -0.7797  1.3873
   27SAPC  C310 3641   3.577   0.147   7.896 -0.5335  0.1059  0.2483
   27SAPC  H10X 3642   3.478   0.106   7.866 -0.0056 -2.4098  1.8350
   27SAPC  H10Y 3643   3.571   0.256   7.919  1.1428  0.8172 -2.5140
   27SAPC  C311 3644   3.622   0.077   8.023 -0.7292 -0.1609  0.3597
   27SAPC  H11X 3645   3.724   0.117   8.041 -1.3811  1.4421  0.6079
   27SAPC  H11Y 3646   3.622  -0.034   8.030  2.2893 -0.1002  2.4635
   27SAPC  C312 3647   3.527   0.118   8.138 -1.4993 -0.1848 -0.8940
   27SAPC  H12X 3648   3.425   0.085   8.109 -1.8625 -0.7835  0.9692
   27SAPC  H12Y 3649   3.530   0.225   8.169  1.9901 -0.4206 -0.2166
   27SAPC  C313 3650   3.566   0.051   8.275 -0.1348 -0.1002  0.1743
   27SAPC  H13X 3651   3.639   0.125   8.316 -0.9078  1.3759 -1.0385
   27SAPC  H13Y 3652   3.624  -0.040   8.248  0.6245  0.0425  1.2647
   27SAPC  C314 3653   3.456   0.017   8.373  0.2989  0.5587 -0.1428
   27SAPC  H14X 3654   3.399   0.100   8.420  0.4966  0.7460 -0.2309
   27SAPC  H14Y 3655   3.510  -0.039   8.453 -2.1181  0.5290  1.4954
   27SAPC  C315 3656   3.353  -0.083   8.318  0.2714 -0.3721  0.6365
   27SAPC  H15X 3657   3.413  -0.158   8.262 -0.9742 -1.1717  0.3578
   27SAPC  H15Y 3658   3.287  -0.023   8.251  0.5457 -0.0061  0.6945
   27SAPC  C316 3659   3.254  -0.134   8.423  0.9105  0.5517  0.2255
   27SAPC  H16X 3660   3.168  -0.181   8.371  1.8374  2.2907 -3.0810
   27SAPC  H16Y 3661   3.212  -0.054   8.488 -1.8292 -0.6636  0.0232
   27SAPC  C317 3662   3.326  -0.236   8.517 -0.0439 -0.2226 -0.0575
   27SAPC  H17X 3663   3.398  -0.169   8.570 -0.5240  1.4166 -1.4326
   27SAPC  H17Y 3664   3.379  -0.317   8.464 -1.7081 -1.9541  0.8144
   27SAPC  C318 3665   3.244  -0.307   8.629 -0.3297  0.5298 -0.1603
   27SAPC  H18X 3666   3.323  -0.348   8.695  0.0327 -0.4656 -1.1912
   27SAPC  H18Y 3667   3.185  -0.391   8.586  1.5786 -0.2449 -1.3015
   27SAPC  H18Z 3668   3.182  -0.236   8.688  1.6249  1.2836  1.0288
   28SAPC     N 3669   2.684   3.956   5.858  0.0099 -0.4822 -0.4387
   28SAPC   C12 3670   2.636   3.808   5.870  0.1410 -0.4796 -0.1628
   28SAPC  H12A 3671   2.674   3.754   5.785  0.9697 -3.2157  1.8809
   28SAPC  H12B 3672   2.530   3.814   5.850  0.5186  1.9655 -1.6523
   28SAPC   C13 3673   2.662   4.001   5.719  0.2528  0.1432 -0.3197
   28SAPC  H13A 3674   2.734   3.944   5.662 -1.2198 -2.6067  0.4963
   28SAPC  H13B 3675   2.561   3.991   5.681  0.0033 -2.1893  0.8326
   28SAPC  H13C 3676   2.692   4.103   5.704 -0.0020  0.2295 -0.2529
   28SAPC   C14 3677   2.603   4.039   5.942 -0.5327  0.1423  0.9125
   28SAPC  H14A 3678   2.502   4.043   5.904  0.0233 -1.5549 -0.8252
   28SAPC  H14B 3679   2.599   3.996   6.041 -1.7252 -2.7983 -0.3211
   28SAPC  H14C 3680   2.640   4.140   5.941 -3.0455  1.1336 -2.9654
   28SAPC   C15 3681   2.834   3.958   5.896 -0.0615  0.0547 -0.8524
   28SAPC  H15A 3682   2.871   4.059   5.905  0.3829 -0.1562 -0.2789
   28SAPC  H15B 3683   2.851   3.896   5.983 -0.5438  0.5431 -0.4068
   28SAPC  H15C 3684   2.887   3.908   5.817  1.0569 -0.1208 -0.0042
   28SAPC   C11 3685   2.670   3.729   5.997 -0.2035 -0.2047  0.0117
   28SAPC  H11A 3686   2.779   3.711   5.988  0.1964  2.2514 -0.2753
   28SAPC  H11B 3687   2.618   3.631   6.005  0.6806 -0.8680 -2.0814
   28SAPC     P 3688   2.726   3.816   6.239 -0.3253 -0.4001  0.1099
   28SAPC   O13 3689   2.866   3.852   6.211 -0.5317 -0.2709  0.5282
   28SAPC   O14 3690   2.647   3.905   6.330 -0.0121 -0.1635 -0.3054
   28SAPC   O12 3691   2.643   3.813   6.109  0.1669  0.7672 -0.0596
   28SAPC   O11 3692   2.726   3.672   6.302  1.1568  0.1033 -0.1476
   28SAPC    C1 3693   2.606   3.597   6.319 -0.3291 -0.6739  0.0224
   28SAPC    HA 3694   2.515   3.657   6.298  0.0545 -1.3396 -3.7649
   28SAPC    HB 3695   2.615   3.506   6.256 -0.5952 -1.8956  1.7234
   28SAPC    C2 3696   2.583   3.539   6.462  0.1069 -0.0499  0.2689
   28SAPC    HS 3697   2.505   3.460   6.453 -1.7018  1.8395 -0.9912
   28SAPC   O21 3698   2.548   3.655   6.547  0.2173  0.8379  0.4999
   28SAPC   C21 3699   2.505   3.609   6.661  0.5911  0.0057 -0.2585
   28SAPC   O22 3700   2.453   3.500   6.686  0.3577 -0.3063  0.0544
   28SAPC   C22 3701   2.509   3.722   6.760 -0.0794  0.1503 -0.3703
   28SAPC   H2R 3702   2.571   3.808   6.725  0.2161 -0.3487 -1.0789
   28SAPC   H2S 3703   2.406   3.760   6.779  0.7375  0.6082  3.6147
   28SAPC    C3 3704   2.716   3.480   6.517 -0.8351 -0.2310  0.1938
   28SAPC    HX 3705   2.787   3.559   6.551  0.5818 -1.3613 -0.0891
   28SAPC    HY 3706   2.752   3.418   6.432 -0.3742  0.6662 -0.2756
   28SAPC   O31 3707   2.707   3.404   6.636  0.3071 -0.2184 -0.3970
   28SAPC   C31 3708   2.659   3.272   6.619  0.4134 -0.1826  0.7766
   28SAPC   O32 3709   2.642   3.223   6.511  0.6167  0.0652 -0.0386
   28SAPC   C32 3710   2.651   3.211   6.762 -0.6662  0.1255  0.7808
   28SAPC   H2X 3711   2.658   3.101   6.747  1.2950  0.3724 -0.3268
   28SAPC   H2Y 3712   2.549   3.234   6.800 -0.6585  2.2420 -0.3992
   28SAPC   C23 3713   2.556   3.678   6.901 -0.2481 -0.1241  0.1381
   28SAPC   H3R 3714   2.610   3.581   6.892  0.1091  0.1969 -1.2399
   28SAPC   H3S 3715   2.468   3.649   6.962  1.6365 -2.8028  1.7019
   28SAPC   C24 3716   2.622   3.794   6.968 -0.1821  0.1577  0.0973
   28SAPC   H4R 3717   2.677   3.757   7.057  0.8579 -1.7343 -1.3084
   28SAPC   H4S 3718   2.698   3.830   6.896 -0.1567  2.4727  1.2379
   28SAPC   C25 3719   2.527   3.902   7.019  0.0759 -0.1598 -0.1592
   28SAPC   H5R 3720   2.480   3.967   6.944 -2.4646  0.5501  1.9392
   28SAPC   C26 3721   2.500   3.929   7.151  0.6386  0.4571  1.1358
   28SAPC   H6R 3722   2.417   3.999   7.166  0.5233  1.0209 -1.7044
   28SAPC   C27 3723   2.562   3.860   7.269 -0.0145  0.2193 -0.7273
   28SAPC   H7R 3724   2.574   3.934   7.351 -2.1684  0.3896 -0.5388
   28SAPC   H7S 3725   2.665   3.819   7.258  0.1914  0.2693  0.8122
   28SAPC   C28 3726   2.467   3.758   7.320 -0.2639 -0.9157  0.0347
   28SAPC   H8R 3727   2.361   3.783   7.309 -0.4751 -1.5335  0.6327
   28SAPC   C29 3728   2.482   3.648   7.388  0.1977  0.1245  0.0016
   28SAPC   H9R 3729   2.392   3.589   7.412  0.7498 -1.9910 -2.9021
   28SAPC  C210 3730   2.615   3.583   7.430  0.4028 -0.2543 -0.5344
   28SAPC  H10R 3731   2.634   3.591   7.539 -0.2798  0.6950 -0.4805
   28SAPC  H10S 3732   2.691   3.647   7.381  1.2498  1.8941  3.4499
   28SAPC  C211 3733   2.636   3.450   7.369 -0.9167 -0.4229 -0.2693
   28SAPC  H11R 3734   2.582   3.420   7.278 -0.2315 -0.1573 -0.7688
   28SAPC  C212 3735   2.710   3.347   7.419  0.3702 -0.3324 -0.4997
   28SAPC  H12R 3736   2.708   3.251   7.365  1.1137 -1.2873  1.1218
   28SAPC  C213 3737   2.782   3.352   7.549 -0.7405  0.1040  0.3109
   28SAPC  H13R 3738   2.713   3.388   7.629  1.1503  0.1121  1.9784
   28SAPC  H13S 3739   2.860   3.432   7.547  0.5504 -1.0918  1.6139
   28SAPC  C214 3740   2.854   3.226   7.586  0.1181  0.7764  0.2861
   28SAPC  H14R 3741   2.943   3.212   7.523 -0.2630  0.8515 -0.2833
   28SAPC  C215 3742   2.819   3.147   7.682 -0.8214 -0.1497  0.2209
   28SAPC  H15R 3743   2.875   3.054   7.700 -0.9897  0.1976  2.6866
   28SAPC  C216 3744   2.718   3.163   7.791 -0.5424 -0.2586  1.0571
   28SAPC  H16R 3745   2.642   3.084   7.771 -0.6243  0.1914 -0.3967
   28SAPC  H16S 3746   2.659   3.257   7.790  0.3955  0.3379  1.2339
   28SAPC  C217 3747   2.785   3.134   7.925  0.4992 -0.7125 -0.0010
   28SAPC  H17R 3748   2.845   3.224   7.952  0.3063 -0.4604 -0.4096
   28SAPC  H17S 3749   2.853   3.046   7.912 -0.5239 -1.3253 -1.3065
   28SAPC  C218 3750   2.671   3.109   8.028 -0.8398 -0.1255  1.0215
   28SAPC  H18R 3751   2.662   3.004   8.063 -0.0027 -0.3667  0.5155
   28SAPC  H18S 3752   2.573   3.137   7.985  0.8833  1.1696 -2.2322
   28SAPC  C219 3753   2.672   3.197   8.156 -0.4220 -0.9813  0.4928
   28SAPC  H19R 3754   2.761   3.175   8.219 -0.5388  0.9246  1.3598
   28SAPC  H19S 3755   2.578   3.172   8.209 -0.5446 -2.6348 -0.4880
   28SAPC  C220 3756   2.683   3.350   8.133 -0.1456 -0.4602  0.0121
   28SAPC  H20R 3757   2.595   3.390   8.078 -0.7841  3.2923  3.5030
   28SAPC  H20S 3758   2.774   3.377   8.074  0.0254 -0.8747  0.0831
   28SAPC  H20T 3759   2.686   3.408   8.227  3.0860 -1.6717  0.7319
   28SAPC   C33 3760   2.752   3.266   6.871  0.0772  0.3371 -0.0897
   28SAPC   H3X 3761   2.727   3.373   6.885  0.6962  0.6431 -1.2637
   28SAPC   H3Y 3762   2.852   3.251   6.824  0.6253 -0.5415  1.3209
   28SAPC   C34 3763   2.746   3.184   6.994  0.3973  0.4726 -0.0406
   28SAPC   H4X 3764   2.785   3.083   6.971 -1.4782 -0.1947 -0.3734
   28SAPC   H4Y 3765   2.646   3.173   7.042 -0.5171 -2.1586 -2.3947
   28SAPC   C35 3766   2.830   3.231   7.104 -0.0262  0.5945  0.1451
   28SAPC   H5X 3767   2.809   3.156   7.183  0.3308  0.3614  0.0212
   28SAPC   H5Y 3768   2.809   3.337   7.129 -0.2118  0.6294 -0.1613
   28SAPC   C36 3769   2.976   3.219   7.065  0.5070 -0.1985 -0.8576
   28SAPC   H6X 3770   3.008   3.261   6.967  1.5819  0.7692 -0.1032
   28SAPC   H6Y 3771   2.994   3.110   7.067 -2.3561 -0.6980  0.6677
   28SAPC   C37 3772   3.070   3.278   7.175  0.2295  0.4498 -0.0827
   28SAPC   H7X 3773   3.034   3.258   7.278 -1.9826 -0.4912 -1.0130
   28SAPC   H7Y 3774   3.060   3.388   7.166 -2.4425  0.0742 -2.4824
   28SAPC   C38 3775   3.212   3.237   7.153  0.3420  0.6467  0.1530
   28SAPC   H8X 3776   3.278   3.323   7.131  0.9617 -0.2742 -1.6955
   28SAPC   H8Y 3777   3.223   3.184   7.056  0.8833  1.4147 -0.2099
   28SAPC   C39 3778   3.287   3.152   7.263  0.7448  0.1114  0.4370
   28SAPC   H9X 3779   3.357   3.083   7.211 -3.6382 -1.8486 -3.1803
   28SAPC   H9Y 3780   3.209   3.089   7.309 -0.8640  1.3055 -0.5738
   28SAPC  C310 3781   3.350   3.230   7.373 -0.2494 -0.0024 -0.5224
   28SAPC  H10X 3782   3.393   3.323   7.329 -0.5297 -0.2267 -1.2656
   28SAPC  H10Y 3783   3.438   3.165   7.395 -0.6487 -0.2061  0.4952
   28SAPC  C311 3784   3.261   3.270   7.491 -0.7104  1.0710 -0.1282
   28SAPC  H11X 3785   3.163   3.222   7.473 -0.0572 -0.7076  0.8954
   28SAPC  H11Y 3786   3.265   3.381   7.493 -0.5826  1.1145 -1.6675
   28SAPC  C312 3787   3.312   3.217   7.628 -0.6730 -0.2413 -0.5129
   28SAPC  H12X 3788   3.406   3.275   7.645 -1.4497  1.6312 -2.2780
   28SAPC  H12Y 3789   3.327   3.108   7.614 -3.8746 -0.6544 -1.0826
   28SAPC  C313 3790   3.217   3.232   7.745 -0.4391 -0.9164 -0.3913
   28SAPC  H13X 3791   3.108   3.221   7.727 -0.9332  0.5669  1.4778
   28SAPC  H13Y 3792   3.228   3.340   7.772 -0.2105 -1.2982  1.1096
   28SAPC  C314 3793   3.252   3.133   7.860 -0.2812 -0.4021 -0.2262
   28SAPC  H14X 3794   3.356   3.157   7.890 -0.1224 -0.3887 -0.7836
   28SAPC  H14Y 3795   3.252   3.027   7.827  0.6117 -0.1231 -1.1264
   28SAPC  C315 3796   3.151   3.155   7.978 -0.6557  1.0304 -0.7510
   28SAPC  H15X 3797   3.062   3.095   7.950 -0.6674  1.8281 -2.4950
   28SAPC  H15Y 3798   3.111   3.259   7.980  0.5882  1.4987  0.4702
   28SAPC  C316 3799   3.201   3.104   8.107 -0.5830  0.4875  0.5765
   28SAPC  H16X 3800   3.294   3.153   8.144  0.7651 -1.2685 -0.3687
   28SAPC  H16Y 3801   3.230   2.996   8.101 -1.2964  0.3889 -1.5625
   28SAPC  C317 3802   3.088   3.119   8.215  0.0036  0.0532  0.8873
   28SAPC  H17X 3803   2.998   3.071   8.171  0.1024  1.7329 -1.2390
   28SAPC  H17Y 3804   3.063   3.226   8.199  0.4585 -0.2637 -2.4009
   28SAPC  C318 3805   3.129   3.077   8.353  0.1719 -0.3834 -0.1629
   28SAPC  H18X 3806   3.215   3.129   8.402 -0.2924  0.8715 -0.6475
   28SAPC  H18Y 3807   3.136   2.966   8.358 -2.2103 -0.4742  2.1229
   28SAPC  H18Z 3808   3.046   3.113   8.417 -0.0463  0.5739 -0.9659
   29SAPC     N 3809   5.430   6.677   6.593 -0.1073 -0.5669 -0.0681
   29SAPC   C12 3810   5.442   6.826   6.578 -0.3747  0.2787 -0.4094
   29SAPC  H12A 3811   5.523   6.862   6.639  0.1448 -1.4706 -0.0463
   29SAPC  H12B 3812   5.351   6.878   6.602 -0.3000  0.1995  0.0351
   29SAPC   C13 3813   5.303   6.638   6.521 -0.4478  0.0945 -0.4174
   29SAPC  H13A 3814   5.212   6.661   6.574 -0.3440  1.1216 -0.6799
   29SAPC  H13B 3815   5.304   6.693   6.428  0.2650  3.0224  1.2718
   29SAPC  H13C 3816   5.306   6.536   6.487 -2.9118 -0.2631  0.2975
   29SAPC   C14 3817   5.549   6.606   6.536  0.2211 -0.6681  0.8518
   29SAPC  H14A 3818   5.546   6.499   6.550  2.7236 -0.7436  1.0296
   29SAPC  H14B 3819   5.541   6.617   6.428 -1.0901  1.3479  1.1336
   29SAPC  H14C 3820   5.647   6.639   6.566  0.4949 -1.3019  0.6693
   29SAPC   C15 3821   5.434   6.643   6.735 -0.4011  0.3873  0.4806
   29SAPC  H15A 3822   5.442   6.537   6.754  0.2632 -0.0092 -1.7886
   29SAPC  H15B 3823   5.522   6.684   6.782  0.4217  0.6177 -1.1870
   29SAPC  H15C 3824   5.343   6.682   6.778 -0.8826  1.7544 -1.6827
   29SAPC   C11 3825   5.479   6.887   6.439  0.7970 -0.0608 -0.4026
   29SAPC  H11A 3826   5.569   6.836   6.399 -0.0170 -1.6830 -0.2367
   29SAPC  H11B 3827   5.506   6.993   6.455 -0.0031  0.7875 -4.2682
   29SAPC     P 3828   5.260   6.972   6.319 -0.0965  0.2905  0.0319
   29SAPC   O13 3829   5.287   7.085   6.230  0.4273  0.0684  0.5481
   29SAPC   O14 3830   5.140   6.887   6.290 -0.4037  0.5945  0.3406
   29SAPC   O12 3831   5.387   6.880   6.332  0.7376  0.0601 -0.0230
   29SAPC   O11 3832   5.247   7.026   6.469 -0.2656  0.0828  0.5660
   29SAPC    C1 3833   5.106   7.041   6.507 -0.7015  0.0479 -0.0084
   29SAPC    HA 3834   5.041   7.115   6.456 -1.3506 -0.8280 -0.4670
   29SAPC    HB 3835   5.056   6.942   6.501 -1.4269  0.4711 -1.0887
   29SAPC    C2 3836   5.101   7.090   6.663 -0.4324 -0.5505  1.2292
   29SAPC    HS 3837   5.124   7.198   6.649 -1.9598 -0.4692 -0.9124
   29SAPC   O21 3838   5.209   7.026   6.736  0.2184 -0.6720 -0.6846
   29SAPC   C21 3839   5.279   7.107   6.808  0.6621 -0.5741  0.8019
   29SAPC   O22 3840   5.259   7.230   6.811  0.2287 -0.7635  0.0492
   29SAPC   C22 3841   5.382   7.041   6.890 -0.1067  0.0149  0.1003
   29SAPC   H2R 3842   5.428   6.962   6.827 -0.8571  0.4055 -0.9377
   29SAPC   H2S 3843   5.456   7.121   6.913  0.8206 -0.0582 -2.4872
   29SAPC    C3 3844   4.964   7.082   6.740  0.2758 -0.1914  0.2153
   29SAPC    HX 3845   4.959   6.972   6.757 -1.1779 -0.1366  0.2222
   29SAPC    HY 3846   4.882   7.106   6.669  1.0059 -2.1331 -1.3437
   29SAPC   O31 3847   4.974   7.164   6.859 -0.5428 -0.4781 -0.6467
   29SAPC   C31 3848   4.947   7.288   6.841 -0.1345 -0.6488  0.7431
   29SAPC   O32 3849   4.911   7.339   6.734  0.1513 -0.0577 -0.2379
   29SAPC   C32 3850   4.967   7.356   6.969 -0.0212  0.2885 -0.3403
   29SAPC   H2X 3851   4.900   7.445   6.974  1.1386  1.2395 -1.3484
   29SAPC   H2Y 3852   5.071   7.395   6.979 -0.5011  1.6925 -0.7024
   29SAPC   C23 3853   5.324   6.983   7.029  0.6436 -0.2863  0.0894
   29SAPC   H3R 3854   5.285   6.879   7.022  0.5867 -0.1617 -1.5541
   29SAPC   H3S 3855   5.232   7.036   7.062  2.0785  0.8362  2.4718
   29SAPC   C24 3856   5.419   6.983   7.144  0.0532 -0.2885 -0.0759
   29SAPC   H4R 3857   5.520   6.952   7.109  0.3810 -0.3393  0.8807
   29SAPC   H4S 3858   5.392   6.900   7.213  1.3189 -0.5958  0.0623
   29SAPC   C25 3859   5.416   7.121   7.205  0.6367 -0.4058 -1.5230
   29SAPC   H5R 3860   5.467   7.201   7.150 -0.4176  2.7559  1.8454
   29SAPC   C26 3861   5.343   7.147   7.319 -0.5348  0.0999 -0.5059
   29SAPC   H6R 3862   5.346   7.247   7.364  0.8161 -0.2814  0.2741
   29SAPC   C27 3863   5.273   7.032   7.393  1.0808  0.3285 -0.0278
   29SAPC   H7R 3864   5.351   6.962   7.429  1.8183  0.5481 -1.1795
   29SAPC   H7S 3865   5.209   6.974   7.323  1.3519  1.2075 -1.0106
   29SAPC   C28 3866   5.184   7.102   7.497 -0.1350 -0.2781  0.1945
   29SAPC   H8R 3867   5.116   7.180   7.458  0.0628 -1.4507 -2.6092
   29SAPC   C29 3868   5.184   7.070   7.627  0.0063  0.3058  0.2586
   29SAPC   H9R 3869   5.112   7.123   7.690 -0.3660  4.0537 -3.1327
   29SAPC  C210 3870   5.269   6.960   7.692 -0.7431 -0.5180 -0.0253
   29SAPC  H10R 3871   5.281   6.875   7.621 -0.6605 -1.3038  0.9105
   29SAPC  H10S 3872   5.219   6.922   7.784  0.9038 -0.8338  0.7479
   29SAPC  C211 3873   5.407   7.011   7.725 -0.5803 -0.2772  0.3871
   29SAPC  H11R 3874   5.458   7.041   7.632  1.0624 -1.8007  0.7734
   29SAPC  C212 3875   5.468   7.023   7.841  0.0392  0.0718  0.3828
   29SAPC  H12R 3876   5.572   7.058   7.844  0.1868  0.0376 -2.7181
   29SAPC  C213 3877   5.407   6.989   7.975  0.0886 -0.4588  0.2553
   29SAPC  H13R 3878   5.299   6.967   7.963  0.4368 -2.6207  0.9790
   29SAPC  H13S 3879   5.413   7.077   8.044 -3.8359  0.4451 -0.4613
   29SAPC  C214 3880   5.471   6.866   8.041  0.2604  0.2760  0.3283
   29SAPC  H14R 3881   5.532   6.796   7.982 -0.4323 -0.0084 -0.0552
   29SAPC  C215 3882   5.457   6.830   8.173  0.0024  0.2570  0.0981
   29SAPC  H15R 3883   5.512   6.739   8.202 -0.2901 -0.2091 -0.8127
   29SAPC  C216 3884   5.388   6.908   8.286  0.4326  0.4964  0.4115
   29SAPC  H16R 3885   5.335   7.001   8.255 -1.3917 -0.9549 -0.9147
   29SAPC  H16S 3886   5.473   6.942   8.349  1.0036 -1.9726  1.0379
   29SAPC  C217 3887   5.297   6.821   8.366 -0.1056 -0.6189 -0.1306
   29SAPC  H17R 3888   5.331   6.717   8.385  1.7062 -0.3300 -1.7167
   29SAPC  H17S 3889   5.208   6.806   8.300 -1.0058  1.6596  0.5342
   29SAPC  C218 3890   5.264   6.887   8.502 -0.1072  0.9942 -0.6663
   29SAPC  H18R 3891   5.214   6.985   8.487 -0.9961  0.6772  0.1672
   29SAPC  H18S 3892   5.354   6.928   8.553  0.8252 -2.2614  0.4392
   29SAPC  C219 3893   5.180   6.809   8.603 -0.1507  0.7028  0.0255
   29SAPC  H19R 3894   5.074   6.815   8.571 -0.0493 -1.9244 -0.8936
   29SAPC  H19S 3895   5.181   6.853   8.705  0.7489  1.6335 -0.3744
   29SAPC  C220 3896   5.212   6.659   8.633 -0.1049  0.1774 -0.3149
   29SAPC  H20R 3897   5.191   6.616   8.532  0.4892 -0.9926  0.0464
   29SAPC  H20S 3898   5.138   6.610   8.699 -0.1270  0.3173 -0.2374
   29SAPC  H20T 3899   5.311   6.617   8.664  0.1353  0.3713 -0.7973
   29SAPC   C33 3900   4.920   7.279   7.097 -0.4686 -0.8768  0.3282
   29SAPC   H3X 3901   4.981   7.186   7.097 -0.0378 -0.5954 -1.4587
   29SAPC   H3Y 3902   4.812   7.252   7.091 -0.3333 -0.9864 -1.8406
   29SAPC   C34 3903   4.945   7.370   7.219  0.0800 -0.2057  0.0144
   29SAPC   H4X 3904   4.899   7.468   7.195  1.7704  0.6358  0.1175
   29SAPC   H4Y 3905   5.054   7.382   7.239  0.5104 -0.2018 -2.2412
   29SAPC   C35 3906   4.890   7.308   7.348 -0.3340 -0.3900  0.7462
   29SAPC   H5X 3907   4.935   7.208   7.361  0.4878 -0.1541 -0.1421
   29SAPC   H5Y 3908   4.780   7.306   7.334 -0.0958 -0.6561 -1.2483
   29SAPC   C36 3909   4.929   7.404   7.461  0.0757  0.3211 -0.0772
   29SAPC   H6X 3910   4.895   7.506   7.437  1.8428  1.5031  2.1950
   29SAPC   H6Y 3911   5.039   7.405   7.476 -0.0181  3.3319  0.6329
   29SAPC   C37 3912   4.870   7.361   7.593  0.1331 -0.2893  0.0915
   29SAPC   H7X 3913   4.920   7.268   7.627 -1.5447 -0.8042  1.2306
   29SAPC   H7Y 3914   4.764   7.330   7.576  0.0368  0.4535 -0.7244
   29SAPC   C38 3915   4.890   7.456   7.704 -0.8159  0.3587 -0.1003
   29SAPC   H8X 3916   4.808   7.529   7.720  0.1427  1.7032 -1.2411
   29SAPC   H8Y 3917   4.980   7.514   7.675 -1.9510  1.0350 -2.3103
   29SAPC   C39 3918   4.903   7.381   7.839  0.5297  0.0740 -0.2150
   29SAPC   H9X 3919   4.985   7.307   7.832 -0.1706 -0.8673  1.4528
   29SAPC   H9Y 3920   4.810   7.323   7.855  0.9941  0.0530  2.4864
   29SAPC  C310 3921   4.917   7.479   7.953 -0.5043  0.3673 -0.5643
   29SAPC  H10X 3922   4.833   7.528   8.006  1.5999  2.0610  1.3294
   29SAPC  H10Y 3923   4.965   7.567   7.904 -1.3723  1.2153  0.0869
   29SAPC  C311 3924   5.013   7.432   8.058 -0.4061  0.1243 -0.0501
   29SAPC  H11X 3925   4.974   7.332   8.087 -1.7114  0.6727  0.1172
   29SAPC  H11Y 3926   5.004   7.500   8.145 -1.2832 -0.7946  0.5859
   29SAPC  C312 3927   5.159   7.427   8.020  0.0261 -0.3360 -0.0279
   29SAPC  H12X 3928   5.205   7.527   8.005 -2.1936  0.7779  0.4348
   29SAPC  H12Y 3929   5.171   7.381   7.920 -1.0779  0.2050 -0.4070
   29SAPC  C313 3930   5.238   7.348   8.126  0.4482  0.8775  0.4186
   29SAPC  H13X 3931   5.346   7.334   8.103  1.1721  2.2540  2.7475
   29SAPC  H13Y 3932   5.199   7.245   8.118 -1.0352  1.3584  1.1301
   29SAPC  C314 3933   5.223   7.403   8.277  0.5475 -0.3670 -0.6323
   29SAPC  H14X 3934   5.118   7.408   8.312  0.5835 -4.0687  0.1771
   29SAPC  H14Y 3935   5.273   7.501   8.290 -0.3113 -0.0661  0.5396
   29SAPC  C315 3936   5.315   7.325   8.375  0.1685  0.2890 -0.0378
   29SAPC  H15X 3937   5.417   7.305   8.338 -0.5770 -0.0213 -2.0105
   29SAPC  H15Y 3938   5.261   7.229   8.389 -1.8879  1.4584  0.2967
   29SAPC  C316 3939   5.333   7.393   8.511  1.0497  0.4106 -0.2450
   29SAPC  H16X 3940   5.261   7.478   8.518 -2.2860 -2.5440  3.1076
   29SAPC  H16Y 3941   5.437   7.429   8.531  1.0705 -0.1601  0.6926
   29SAPC  C317 3942   5.291   7.298   8.627  0.4196 -0.2775  0.7403
   29SAPC  H17X 3943   5.198   7.246   8.594 -1.2319  1.8505  1.9003
   29SAPC  H17Y 3944   5.266   7.366   8.711  2.2354  0.7979  0.4326
   29SAPC  C318 3945   5.394   7.205   8.667  0.0136 -0.2482 -0.3937
   29SAPC  H18X 3946   5.464   7.268   8.725 -0.0621 -1.6600  1.2583
   29SAPC  H18Y 3947   5.445   7.147   8.586 -1.5066 -3.0081  0.5573
   29SAPC  H18Z 3948   5.361   7.124   8.736 -2.7545  1.0651 -0.1441
   30SAPC     N 3949   6.217   1.092   5.718 -0.1881 -0.0376 -0.4326
   30SAPC   C12 3950   6.253   1.133   5.858 -0.4003  0.0630 -0.5341
   30SAPC  H12A 3951   6.330   1.208   5.856  0.1921 -0.4285  2.6111
   30SAPC  H12B 3952   6.301   1.053   5.912 -2.8062 -0.3316  1.1131
   30SAPC   C13 3953   6.126   0.978   5.726  0.7437  0.1487 -0.1748
   30SAPC  H13A 3954   6.076   0.960   5.631  0.7497  0.8386 -0.3063
   30SAPC  H13B 3955   6.180   0.886   5.744  1.7199  0.7490 -0.0193
   30SAPC  H13C 3956   6.056   0.991   5.807 -0.5050  0.1317 -1.2345
   30SAPC   C14 3957   6.142   1.201   5.640  0.4926 -0.4210 -0.0355
   30SAPC  H14A 3958   6.106   1.170   5.543 -1.5968 -0.7735  0.8211
   30SAPC  H14B 3959   6.057   1.227   5.702  0.5048 -0.4036 -0.0260
   30SAPC  H14C 3960   6.211   1.283   5.629 -0.1659  0.2879  0.9665
   30SAPC   C15 3961   6.332   1.043   5.643 -0.2577 -0.3174 -0.3101
   30SAPC  H15A 3962   6.409   1.115   5.619 -0.2935 -0.7113 -1.6949
   30SAPC  H15B 3963   6.374   0.953   5.685  1.2243  0.7712  0.5900
   30SAPC  H15C 3964   6.286   1.012   5.550 -1.2288  2.1600 -0.6751
   30SAPC   C11 3965   6.134   1.170   5.951 -0.2806  0.0419  0.2396
   30SAPC  H11A 3966   6.071   1.244   5.897  1.4597  3.1575  2.3078
   30SAPC  H11B 3967   6.170   1.226   6.040  0.6565 -0.0639 -0.0687
   30SAPC     P 3968   6.108   0.963   6.104  0.0387  0.2714  0.4909
   30SAPC   O13 3969   5.995   0.894   6.172  0.1001  0.8526 -0.9567
   30SAPC   O14 3970   6.205   0.880   6.031 -0.4384 -0.4794 -0.2570
   30SAPC   O12 3971   6.048   1.061   6.000 -0.0562 -0.8705  0.4295
   30SAPC   O11 3972   6.182   1.056   6.207  0.3497 -0.2599  0.0495
   30SAPC    C1 3973   6.319   1.064   6.233 -0.7877 -0.4267 -0.5075
   30SAPC    HA 3974   6.368   0.983   6.174 -0.6982 -1.4356  0.9341
   30SAPC    HB 3975   6.361   1.160   6.196  1.6862 -1.5503 -0.7311
   30SAPC    C2 3976   6.365   1.016   6.381  0.6310 -0.0570  0.6168
   30SAPC    HS 3977   6.474   1.000   6.389  0.5900 -1.1286 -0.8516
   30SAPC   O21 3978   6.298   0.895   6.427  0.2773  0.1681  0.2598
   30SAPC   C21 3979   6.371   0.787   6.466 -0.1158  0.1180 -0.7043
   30SAPC   O22 3980   6.490   0.773   6.453 -0.2511 -0.1910  0.2609
   30SAPC   C22 3981   6.286   0.682   6.544  0.1560 -0.7085  0.2330
   30SAPC   H2R 3982   6.204   0.727   6.604 -0.2245  0.3177 -1.0269
   30SAPC   H2S 3983   6.226   0.625   6.470 -1.9148 -1.2939  2.3035
   30SAPC    C3 3984   6.338   1.140   6.462  0.8517 -0.3001  0.3997
   30SAPC    HX 3985   6.241   1.132   6.516  0.4818 -1.3039 -0.3910
   30SAPC    HY 3986   6.335   1.231   6.398  0.0870 -0.7353 -0.1860
   30SAPC   O31 3987   6.439   1.154   6.566 -0.0022  0.2882 -0.3830
   30SAPC   C31 3988   6.549   1.203   6.527 -0.2875 -0.7695 -0.2853
   30SAPC   O32 3989   6.573   1.248   6.417  0.7882 -0.2869 -0.3098
   30SAPC   C32 3990   6.655   1.183   6.634 -0.0410 -0.5081 -0.5669
   30SAPC   H2X 3991   6.725   1.268   6.624 -1.4807  1.2502  3.4024
   30SAPC   H2Y 3992   6.707   1.089   6.606 -0.2249 -0.4692 -1.0470
   30SAPC   C23 3993   6.387   0.607   6.640  0.0102  0.1542  0.3606
   30SAPC   H3R 3994   6.463   0.549   6.584 -0.0498  0.6317 -0.2077
   30SAPC   H3S 3995   6.328   0.527   6.692  1.0124 -1.9891 -1.6941
   30SAPC   C24 3996   6.450   0.694   6.751 -0.1304  0.4702  0.0683
   30SAPC   H4R 3997   6.523   0.769   6.715  1.7929 -1.4950 -0.2152
   30SAPC   H4S 3998   6.517   0.629   6.811 -0.3287 -0.2920 -0.5252
   30SAPC   C25 3999   6.334   0.753   6.831  0.5856 -0.3606  0.3550
   30SAPC   H5R 4000   6.254   0.797   6.769 -1.0521  1.0208  3.3407
   30SAPC   C26 4001   6.322   0.777   6.962 -0.0993 -0.2279  0.3254
   30SAPC   H6R 4002   6.227   0.826   6.988  1.4944  1.2638  3.5259
   30SAPC   C27 4003   6.413   0.759   7.081 -1.0336 -0.1003  0.4906
   30SAPC   H7R 4004   6.504   0.697   7.064 -1.2494 -0.7095  1.5349
   30SAPC   H7S 4005   6.358   0.703   7.159 -2.6720  0.5974 -0.1470
   30SAPC   C28 4006   6.456   0.892   7.137  0.4799  0.3740  0.2151
   30SAPC   H8R 4007   6.496   0.964   7.064 -0.9692 -0.2801 -1.2642
   30SAPC   C29 4008   6.471   0.912   7.270 -0.0584  1.0530  0.2608
   30SAPC   H9R 4009   6.506   1.013   7.297  0.8337  1.3296 -1.8078
   30SAPC  C210 4010   6.444   0.822   7.390  0.1136  0.2552 -0.4800
   30SAPC  H10R 4011   6.543   0.789   7.430  0.3490  1.3629 -0.1438
   30SAPC  H10S 4012   6.386   0.732   7.361  0.8861  0.3807 -2.4666
   30SAPC  C211 4013   6.362   0.885   7.503  0.2506  0.1239  1.0406
   30SAPC  H11R 4014   6.423   0.903   7.593 -0.5965  1.0770  1.4273
   30SAPC  C212 4015   6.236   0.931   7.503 -0.3516  0.2605 -0.7192
   30SAPC  H12R 4016   6.190   0.978   7.591  2.5286  1.3758  0.2286
   30SAPC  C213 4017   6.135   0.924   7.388 -0.1873 -0.3138  0.1199
   30SAPC  H13R 4018   6.099   0.819   7.399 -2.6222  0.6087  1.2056
   30SAPC  H13S 4019   6.189   0.944   7.293 -1.1573 -1.8682 -0.7825
   30SAPC  C214 4020   6.010   1.013   7.399 -0.2793  0.3292  0.4261
   30SAPC  H14R 4021   6.004   1.071   7.493  0.1919 -0.0625  0.7030
   30SAPC  C215 4022   5.924   1.041   7.296 -0.7173 -0.1702  0.0840
   30SAPC  H15R 4023   5.842   1.113   7.310 -0.7760  0.3486 -2.6480
   30SAPC  C216 4024   5.925   0.985   7.161 -0.3803  0.0277  0.1981
   30SAPC  H16R 4025   5.821   0.978   7.123  0.1646 -0.7223 -1.1781
   30SAPC  H16S 4026   5.970   0.884   7.168 -0.1255  0.2213  1.5231
   30SAPC  C217 4027   6.014   1.050   7.049  0.3438  0.0787  0.3802
   30SAPC  H17R 4028   6.117   1.055   7.090 -0.1131 -2.5268  1.9858
   30SAPC  H17S 4029   5.978   1.154   7.033 -1.4576 -0.1826  2.5955
   30SAPC  C218 4030   6.005   0.969   6.922  0.3983  0.1463  0.0405
   30SAPC  H18R 4031   5.896   0.963   6.899  1.0863 -0.9410 -3.1331
   30SAPC  H18S 4032   6.043   0.867   6.945 -1.1738 -0.2341  1.0938
   30SAPC  C219 4033   6.063   1.019   6.796  0.1666 -0.4930  0.1942
   30SAPC  H19R 4034   5.987   1.090   6.758  1.7404  0.7908 -0.6422
   30SAPC  H19S 4035   6.067   0.934   6.724  1.0307 -0.8587  0.6662
   30SAPC  C220 4036   6.198   1.087   6.808  0.3749  0.1750 -0.0885
   30SAPC  H20R 4037   6.265   1.022   6.869  0.8270 -1.2096 -2.0331
   30SAPC  H20S 4038   6.206   1.188   6.852  2.3716  0.1622 -0.3667
   30SAPC  H20T 4039   6.240   1.098   6.706 -2.4270 -0.3587 -1.3608
   30SAPC   C33 4040   6.606   1.169   6.786 -0.2422  0.4013  0.2110
   30SAPC   H3X 4041   6.678   1.094   6.826  1.2103  1.4384 -0.4237
   30SAPC   H3Y 4042   6.505   1.123   6.792 -0.3913  0.9891  2.5994
   30SAPC   C34 4043   6.607   1.304   6.861  0.1694 -0.0258  0.5768
   30SAPC   H4X 4044   6.551   1.383   6.808  1.4152 -0.5293 -1.5319
   30SAPC   H4Y 4045   6.711   1.344   6.857  0.9501 -1.8187  1.8685
   30SAPC   C35 4046   6.551   1.289   7.003  0.3251  0.6056  0.3538
   30SAPC   H5X 4047   6.618   1.219   7.058 -0.4333 -0.9712 -0.7107
   30SAPC   H5Y 4048   6.449   1.247   6.994  0.2877  1.0711 -1.4183
   30SAPC   C36 4049   6.539   1.422   7.078  0.6008  0.1454 -0.9823
   30SAPC   H6X 4050   6.472   1.491   7.022 -2.1940 -1.4640  0.2855
   30SAPC   H6Y 4051   6.635   1.478   7.079  0.6005  0.1949  2.5652
   30SAPC   C37 4052   6.478   1.407   7.225 -0.2142  0.1314  0.3450
   30SAPC   H7X 4053   6.373   1.378   7.203  0.3478 -1.1368 -0.7785
   30SAPC   H7Y 4054   6.490   1.495   7.291 -0.9938 -0.2965  1.0761
   30SAPC   C38 4055   6.521   1.285   7.307  0.7048  0.0211 -1.0973
   30SAPC   H8X 4056   6.627   1.301   7.334 -0.0718  1.3354  1.3488
   30SAPC   H8Y 4057   6.510   1.198   7.238  5.0398 -0.3789 -1.3749
   30SAPC   C39 4058   6.445   1.265   7.430 -0.0996  0.2729  0.0579
   30SAPC   H9X 4059   6.450   1.159   7.462 -1.3201 -0.0918 -0.9282
   30SAPC   H9Y 4060   6.336   1.277   7.410 -1.4348 -5.0287  3.3102
   30SAPC  C310 4061   6.503   1.352   7.543 -0.3670 -0.0349 -0.1827
   30SAPC  H10X 4062   6.486   1.461   7.532  1.5198  0.5945  2.5208
   30SAPC  H10Y 4063   6.608   1.328   7.572  0.4233  1.2605 -1.9103
   30SAPC  C311 4064   6.427   1.307   7.673  0.2636 -1.1511 -0.5653
   30SAPC  H11X 4065   6.459   1.204   7.703 -3.7475 -2.3336 -0.0497
   30SAPC  H11Y 4066   6.316   1.308   7.669  0.2537 -1.5952 -0.4862
   30SAPC  C312 4067   6.452   1.407   7.785 -0.0660  0.0626  0.3278
   30SAPC  H12X 4068   6.398   1.501   7.761  0.5979 -0.1185 -2.0585
   30SAPC  H12Y 4069   6.562   1.424   7.786 -0.1416  0.4907  2.1344
   30SAPC  C313 4070   6.413   1.348   7.921  0.3835 -0.6091 -0.2058
   30SAPC  H13X 4071   6.464   1.255   7.954  1.0713 -0.1924 -0.0867
   30SAPC  H13Y 4072   6.304   1.327   7.926  0.7071 -2.0608  0.9251
   30SAPC  C314 4073   6.432   1.443   8.036 -0.1742  0.4825  0.0302
   30SAPC  H14X 4074   6.390   1.546   8.024 -0.5134  0.0189 -2.9901
   30SAPC  H14Y 4075   6.539   1.470   8.040 -0.3989  1.4969 -0.5954
   30SAPC  C315 4076   6.411   1.385   8.179 -0.2651  0.0578  0.1949
   30SAPC  H15X 4077   6.430   1.457   8.261  1.7977  0.1103 -0.3135
   30SAPC  H15Y 4078   6.486   1.309   8.209  0.0936  0.7381  1.0461
   30SAPC  C316 4079   6.271   1.322   8.201 -0.3887  0.9597  0.6506
   30SAPC  H16X 4080   6.261   1.223   8.151 -1.8372  2.1147 -1.4546
   30SAPC  H16Y 4081   6.195   1.383   8.147 -0.0306  0.8926  0.0736
   30SAPC  C317 4082   6.222   1.310   8.346 -0.1983  0.3392  0.4553
   30SAPC  H17X 4083   6.199   1.410   8.388 -0.6512  0.4911 -0.1360
   30SAPC  H17Y 4084   6.296   1.248   8.401  0.9546 -1.0365 -2.4970
   30SAPC  C318 4085   6.097   1.221   8.354  0.2934  0.1024  0.3416
   30SAPC  H18X 4086   6.118   1.119   8.316 -0.2833  0.4001 -0.8173
   30SAPC  H18Y 4087   6.011   1.269   8.301 -0.1855 -2.1748 -1.0003
   30SAPC  H18Z 4088   6.071   1.213   8.462 -0.7246 -1.8301 -0.0336
   31SAPC     N 4089   0.955   1.854   6.245 -0.2959 -0.2109  0.1393
   31SAPC   C12 4090   1.069   1.770   6.296  0.1505 -0.7738 -0.0658
   31SAPC  H12A 4091   1.138   1.850   6.319 -0.4096 -0.7217  1.4680
   31SAPC  H12B 4092   1.117   1.716   6.216  1.6566 -2.9757  2.2622
   31SAPC   C13 4093   0.867   1.787   6.152 -0.6608 -0.3013  0.2212
   31SAPC  H13A 4094   0.779   1.843   6.123 -2.2395 -1.5368  2.4857
   31SAPC  H13B 4095   0.922   1.755   6.065  0.1657  2.3305 -0.2645
   31SAPC  H13C 4096   0.827   1.701   6.204  1.0135 -0.1482  1.7814
   31SAPC   C14 4097   0.871   1.900   6.367 -0.8490 -0.0444 -0.3866
   31SAPC  H14A 4098   0.928   1.957   6.439  0.4086 -2.3676  0.5014
   31SAPC  H14B 4099   0.782   1.958   6.345 -0.3890  2.5530  3.9567
   31SAPC  H14C 4100   0.829   1.819   6.424 -0.2869 -1.0619 -1.3994
   31SAPC   C15 4101   1.011   1.971   6.174 -0.5330 -0.5307 -0.2235
   31SAPC  H15A 4102   1.077   2.029   6.236  2.2669 -2.0407 -1.7099
   31SAPC  H15B 4103   1.066   1.929   6.092  1.9061 -1.2329  1.7192
   31SAPC  H15C 4104   0.937   2.031   6.123 -0.2941 -0.5569 -0.5986
   31SAPC   C11 4105   1.059   1.683   6.422 -0.0993 -0.3115 -0.1111
   31SAPC  H11A 4106   1.050   1.741   6.516  0.0624 -1.8590  0.8844
   31SAPC  H11B 4107   1.154   1.627   6.437 -0.2635 -0.8263 -0.9636
   31SAPC     P 4108   0.962   1.454   6.345  0.0096  0.0150  0.4740
   31SAPC   O13 4109   0.901   1.466   6.213 -0.1891  0.4593 -0.0108
   31SAPC   O14 4110   1.087   1.378   6.360  0.1232 -0.4164  0.4997
   31SAPC   O12 4111   0.950   1.594   6.422  0.0763  0.3719  0.4115
   31SAPC   O11 4112   0.853   1.369   6.420 -0.0701 -0.0663 -0.1259
   31SAPC    C1 4113   0.750   1.427   6.499  0.5359 -0.4614  0.5751
   31SAPC    HA 4114   0.698   1.512   6.450  1.3259  0.1091  0.7133
   31SAPC    HB 4115   0.667   1.354   6.514  0.8641 -1.2019 -1.1909
   31SAPC    C2 4116   0.795   1.466   6.639 -0.2722  0.0285  0.1026
   31SAPC    HS 4117   0.863   1.553   6.628 -0.5286  0.1259 -0.7171
   31SAPC   O21 4118   0.857   1.351   6.708 -0.0122  0.2578  0.0463
   31SAPC   C21 4119   0.963   1.376   6.784 -0.3437  0.6394 -0.0312
   31SAPC   O22 4120   1.011   1.489   6.795 -0.2571  0.2472  0.2247
   31SAPC   C22 4121   1.016   1.242   6.837  0.3739 -0.4748 -0.1847
   31SAPC   H2R 4122   0.936   1.209   6.907  0.6791  2.2316  1.5113
   31SAPC   H2S 4123   1.011   1.167   6.755 -0.3331  0.5784 -1.1125
   31SAPC    C3 4124   0.680   1.523   6.729  0.5232 -0.9328  0.4675
   31SAPC    HX 4125   0.600   1.450   6.756 -0.3979  0.7847  2.4820
   31SAPC    HY 4126   0.639   1.606   6.668  1.2409 -2.2964 -1.9596
   31SAPC   O31 4127   0.725   1.574   6.855  0.5137  0.0424 -0.5235
   31SAPC   C31 4128   0.750   1.702   6.864 -0.4322 -0.1624  0.1189
   31SAPC   O32 4129   0.741   1.785   6.778 -0.4333  0.5831 -0.0839
   31SAPC   C32 4130   0.794   1.731   7.011  0.1120  0.9526 -0.2918
   31SAPC   H2X 4131   0.759   1.834   7.034 -2.6887  0.2437 -1.1530
   31SAPC   H2Y 4132   0.905   1.733   7.012  0.1939 -1.3181 -0.3186
   31SAPC   C23 4133   1.164   1.234   6.888 -0.3821 -0.4549 -0.1156
   31SAPC   H3R 4134   1.216   1.320   6.841 -0.1846 -0.1648  0.6203
   31SAPC   H3S 4135   1.203   1.139   6.846  0.8144 -1.1192  2.3752
   31SAPC   C24 4136   1.174   1.241   7.044 -0.1708 -0.1304 -0.1716
   31SAPC   H4R 4137   1.284   1.228   7.056 -0.1196  1.8633  1.7913
   31SAPC   H4S 4138   1.117   1.151   7.076  0.0600  0.4523  1.9582
   31SAPC   C25 4139   1.122   1.361   7.108 -0.2607 -0.2499  0.6056
   31SAPC   H5R 4140   1.084   1.449   7.054 -0.1940 -0.2867  0.4980
   31SAPC   C26 4141   1.140   1.383   7.236 -0.3695  0.9240 -0.2785
   31SAPC   H6R 4142   1.104   1.479   7.276 -2.2850  0.5150 -0.9731
   31SAPC   C27 4143   1.219   1.300   7.338 -0.2163 -0.7663 -0.1698
   31SAPC   H7R 4144   1.286   1.353   7.408 -0.0107  1.5401 -2.0584
   31SAPC   H7S 4145   1.285   1.222   7.295  0.1725 -2.1043  2.7220
   31SAPC   C28 4146   1.104   1.239   7.417  0.2681 -0.1944 -0.0524
   31SAPC   H8R 4147   1.027   1.195   7.351  1.1168 -2.2092  0.2696
   31SAPC   C29 4148   1.085   1.213   7.547  0.3395  1.5953  0.6321
   31SAPC   H9R 4149   0.992   1.160   7.573 -0.0066  1.1374 -1.4271
   31SAPC  C210 4150   1.182   1.219   7.658 -0.1252 -0.8356  0.4090
   31SAPC  H10R 4151   1.282   1.249   7.621  0.1026  1.0763  2.5324
   31SAPC  H10S 4152   1.187   1.118   7.705  0.2611 -2.0540 -2.1687
   31SAPC  C211 4153   1.128   1.310   7.758 -0.0715  0.1839 -0.0194
   31SAPC  H11R 4154   1.050   1.381   7.727 -1.4223 -1.0083  0.6184
   31SAPC  C212 4155   1.154   1.312   7.888  0.5357  0.8324 -0.7053
   31SAPC  H12R 4156   1.104   1.394   7.942 -0.2319 -0.4099  0.5107
   31SAPC  C213 4157   1.244   1.228   7.970  0.0034  0.7482 -0.1959
   31SAPC  H13R 4158   1.257   1.126   7.928 -0.5056  0.2225  0.9021
   31SAPC  H13S 4159   1.183   1.206   8.060  3.1946 -0.3092  1.8088
   31SAPC  C214 4160   1.377   1.295   8.004  0.8026  0.3967 -0.0441
   31SAPC  H14R 4161   1.453   1.301   7.925 -1.2877  1.7116 -2.0191
   31SAPC  C215 4162   1.409   1.336   8.127  0.2440  0.1971  0.8065
   31SAPC  H15R 4163   1.498   1.398   8.134  1.2977 -0.9770 -1.5385
   31SAPC  C216 4164   1.311   1.326   8.250 -0.2983 -0.0717  0.0246
   31SAPC  H16R 4165   1.203   1.314   8.229 -0.3409 -0.4916  0.4848
   31SAPC  H16S 4166   1.322   1.422   8.305  0.7035 -0.0984 -0.1156
   31SAPC  C217 4167   1.338   1.218   8.357  1.0021  0.3235 -0.5272
   31SAPC  H17R 4168   1.321   1.116   8.315  3.1649  0.7589 -2.4949
   31SAPC  H17S 4169   1.259   1.238   8.433  0.6125 -0.0180 -0.8386
   31SAPC  C218 4170   1.481   1.224   8.415  1.3741 -0.0961 -0.2645
   31SAPC  H18R 4171   1.525   1.323   8.438  1.6469 -0.5320  1.0936
   31SAPC  H18S 4172   1.553   1.185   8.340  2.1606 -2.8408  1.8553
   31SAPC  C219 4173   1.492   1.132   8.536 -0.1819  0.3455  0.9450
   31SAPC  H19R 4174   1.529   1.032   8.506 -0.5305  0.1512  1.1669
   31SAPC  H19S 4175   1.396   1.127   8.591  0.2850 -0.9287  1.6633
   31SAPC  C220 4176   1.596   1.188   8.631  0.3582  0.1555  0.3851
   31SAPC  H20R 4177   1.700   1.197   8.595  0.8488 -2.6297  1.0329
   31SAPC  H20S 4178   1.598   1.130   8.725  0.8400 -1.1495 -0.4227
   31SAPC  H20T 4179   1.582   1.296   8.652 -1.4982 -0.0115  0.1227
   31SAPC   C33 4180   0.738   1.630   7.119 -0.1619  0.0450 -0.4021
   31SAPC   H3X 4181   0.789   1.532   7.118 -1.4019 -0.6133 -1.2384
   31SAPC   H3Y 4182   0.628   1.618   7.110 -0.0945 -0.3015 -0.7752
   31SAPC   C34 4183   0.766   1.701   7.258 -0.2124  0.7755  0.9613
   31SAPC   H4X 4184   0.712   1.796   7.275 -1.6076  0.5656 -2.0748
   31SAPC   H4Y 4185   0.871   1.736   7.258  0.7444 -1.8180  4.2285
   31SAPC   C35 4186   0.735   1.613   7.377 -0.8175 -0.4532  0.0094
   31SAPC   H5X 4187   0.763   1.508   7.354  0.2599 -0.3218  0.6717
   31SAPC   H5Y 4188   0.627   1.626   7.398 -1.4980 -1.9534 -2.4491
   31SAPC   C36 4189   0.812   1.660   7.505  0.6687 -0.5329  0.3241
   31SAPC   H6X 4190   0.774   1.751   7.556  0.1622  0.2189 -1.3613
   31SAPC   H6Y 4191   0.918   1.678   7.476  0.9601  0.9486  2.2154
   31SAPC   C37 4192   0.819   1.553   7.615 -0.1687 -0.5661 -0.2885
   31SAPC   H7X 4193   0.863   1.600   7.705 -0.2781 -0.4948 -0.2718
   31SAPC   H7Y 4194   0.903   1.486   7.588  0.6508  0.7613 -1.1035
   31SAPC   C38 4195   0.679   1.499   7.657  0.4746  0.7683  0.1143
   31SAPC   H8X 4196   0.638   1.435   7.576 -1.4738  3.3851 -1.0246
   31SAPC   H8Y 4197   0.616   1.590   7.663 -0.6522  0.0600 -0.7230
   31SAPC   C39 4198   0.671   1.424   7.789  1.3284 -0.0617  0.3245
   31SAPC   H9X 4199   0.688   1.319   7.756 -0.5889 -0.6750  1.1788
   31SAPC   H9Y 4200   0.571   1.437   7.837  0.3155 -0.9761 -1.4589
   31SAPC  C310 4201   0.770   1.451   7.898 -0.8483 -1.0363 -0.0684
   31SAPC  H10X 4202   0.739   1.541   7.955 -3.2063 -2.2551  0.6434
   31SAPC  H10Y 4203   0.873   1.470   7.861 -1.3736  0.3267 -0.8690
   31SAPC  C311 4204   0.773   1.346   8.006 -0.1650 -0.7894 -0.6721
   31SAPC  H11X 4205   0.820   1.263   7.949  0.0992 -0.3193 -1.1424
   31SAPC  H11Y 4206   0.674   1.310   8.041  0.0530 -0.6080  0.1483
   31SAPC  C312 4207   0.870   1.376   8.130 -0.0936 -0.2526  0.2499
   31SAPC  H12X 4208   0.963   1.412   8.080 -0.2304 -1.0783 -0.6098
   31SAPC  H12Y 4209   0.880   1.278   8.181  0.1283 -0.8760 -0.9815
   31SAPC  C313 4210   0.806   1.478   8.219  0.0586  0.0949  0.3341
   31SAPC  H13X 4211   0.710   1.449   8.266 -0.1815  0.8235  0.2915
   31SAPC  H13Y 4212   0.766   1.551   8.146 -0.8815  1.6863  2.3949
   31SAPC  C314 4213   0.884   1.548   8.333 -0.3984  0.7140 -0.0855
   31SAPC  H14X 4214   0.974   1.600   8.295  1.3052 -1.1902  1.2345
   31SAPC  H14Y 4215   0.916   1.469   8.404 -0.1941  1.4591  0.6697
   31SAPC  C315 4216   0.794   1.653   8.401  0.6683 -0.0795 -0.1956
   31SAPC  H15X 4217   0.694   1.606   8.412  0.9735 -0.5506  0.5972
   31SAPC  H15Y 4218   0.766   1.749   8.354 -2.0071 -0.1481  1.1930
   31SAPC  C316 4219   0.847   1.691   8.542  0.4964  1.1209 -0.8111
   31SAPC  H16X 4220   0.838   1.800   8.563 -1.9918  0.5253  1.4925
   31SAPC  H16Y 4221   0.957   1.680   8.532  0.2295  1.4285 -4.4844
   31SAPC  C317 4222   0.787   1.614   8.661 -0.5538 -0.0416 -0.0513
   31SAPC  H17X 4223   0.814   1.507   8.669  2.2770  0.7546  1.5162
   31SAPC  H17Y 4224   0.677   1.615   8.676 -0.2851 -1.2632  2.0674
   31SAPC  C318 4225   0.822   1.660   8.808 -0.1180  0.5179  0.5277
   31SAPC  H18X 4226   0.788   1.586   8.884  0.0953  1.6134  1.7040
   31SAPC  H18Y 4227   0.768   1.754   8.830 -0.4777 -0.0571  2.1815
   31SAPC  H18Z 4228   0.930   1.682   8.816 -0.1540  0.6545  0.6363
   32SAPC     N 4229   2.900   2.027   6.243 -0.1728 -0.2429 -0.7468
   32SAPC   C12 4230   2.747   2.023   6.243 -0.0031 -0.1761 -1.0884
   32SAPC  H12A 4231   2.715   1.920   6.230 -2.4517  0.5943 -1.3499
   32SAPC  H12B 4232   2.706   2.086   6.166 -1.2194  1.2453  0.6927
   32SAPC   C13 4233   2.962   1.974   6.372  0.7539 -0.2097 -0.6182
   32SAPC  H13A 4234   3.065   2.007   6.378  0.7175 -0.4795  1.8792
   32SAPC  H13B 4235   2.908   2.019   6.453  1.9113 -0.0872  0.1050
   32SAPC  H13C 4236   2.960   1.867   6.386 -2.3127 -0.1137 -0.0827
   32SAPC   C14 4237   2.960   1.956   6.120  0.0148  0.0528 -0.6646
   32SAPC  H14A 4238   2.921   1.855   6.118 -3.5708  1.3953 -2.3077
   32SAPC  H14B 4239   2.933   2.000   6.025 -2.3002  0.9475  0.3659
   32SAPC  H14C 4240   3.067   1.960   6.132 -0.0585  2.8221 -0.7559
   32SAPC   C15 4241   2.944   2.165   6.242 -0.5736  0.5067  0.5677
   32SAPC  H15A 4242   3.051   2.163   6.226 -0.5892 -1.5893  0.5550
   32SAPC  H15B 4243   2.903   2.218   6.157 -0.8478  0.3464  0.5989
   32SAPC  H15C 4244   2.913   2.217   6.331 -1.3669 -0.8052  1.0707
   32SAPC   C11 4245   2.680   2.061   6.368  0.0760  0.0859 -0.2887
   32SAPC  H11A 4246   2.720   1.990   6.444 -3.6959 -1.4308  0.4045
   32SAPC  H11B 4247   2.571   2.037   6.370 -0.0535  0.7394  1.4009
   32SAPC     P 4248   2.604   2.313   6.393  0.3365  0.2363 -0.1839
   32SAPC   O13 4249   2.666   2.438   6.437 -0.1451  0.1637 -0.1992
   32SAPC   O14 4250   2.542   2.307   6.257  0.3317 -0.7876  0.0987
   32SAPC   O12 4251   2.704   2.195   6.408  0.7260 -0.3873  0.6274
   32SAPC   O11 4252   2.500   2.261   6.501 -0.0364 -0.3730  0.6000
   32SAPC    C1 4253   2.545   2.241   6.636 -0.3294  0.1511  0.2668
   32SAPC    HA 4254   2.562   2.132   6.651 -1.8726 -0.1787 -0.3002
   32SAPC    HB 4255   2.638   2.295   6.664 -1.4371  1.4009  1.6510
   32SAPC    C2 4256   2.445   2.285   6.739 -0.0061  0.1948  0.2291
   32SAPC    HS 4257   2.433   2.394   6.721 -1.4237  0.2182  1.2413
   32SAPC   O21 4258   2.505   2.258   6.866 -0.9790 -0.3710 -0.4856
   32SAPC   C21 4259   2.514   2.355   6.955 -0.0473 -0.4076 -0.2575
   32SAPC   O22 4260   2.468   2.473   6.945 -0.3406  0.3876 -0.7197
   32SAPC   C22 4261   2.596   2.304   7.069 -0.4954  0.8622  0.4495
   32SAPC   H2R 4262   2.532   2.243   7.137 -0.1983 -1.1288 -1.0352
   32SAPC   H2S 4263   2.672   2.227   7.044 -1.2520 -1.1360  3.8908
   32SAPC    C3 4264   2.306   2.227   6.730  0.6607 -0.0638 -0.4146
   32SAPC    HX 4265   2.310   2.130   6.784 -0.5278 -0.1284 -0.4323
   32SAPC    HY 4266   2.296   2.197   6.624 -0.6803 -1.4837  0.0815
   32SAPC   O31 4267   2.194   2.303   6.785 -0.2035  0.2587 -0.5487
   32SAPC   C31 4268   2.083   2.290   6.715 -0.3258 -1.0216  0.5706
   32SAPC   O32 4269   2.065   2.223   6.619 -0.6658 -0.0019  0.1690
   32SAPC   C32 4270   1.969   2.368   6.795 -0.6971 -0.5788 -0.5017
   32SAPC   H2X 4271   1.868   2.329   6.773 -1.2099  1.2783 -1.5410
   32SAPC   H2Y 4272   1.978   2.475   6.769 -0.1395 -0.3607  0.5468
   32SAPC   C23 4273   2.670   2.422   7.130 -0.3434 -0.5739  0.4404
   32SAPC   H3R 4274   2.690   2.508   7.062 -5.2383  0.8266  0.5994
   32SAPC   H3S 4275   2.771   2.393   7.167 -0.4522  0.2154  1.3746
   32SAPC   C24 4276   2.582   2.488   7.236  0.5180 -0.4555 -0.3546
   32SAPC   H4R 4277   2.529   2.421   7.307 -0.6153 -0.4363 -1.1748
   32SAPC   H4S 4278   2.494   2.518   7.174  0.2603 -2.1243 -0.8316
   32SAPC   C25 4279   2.660   2.599   7.301  0.2052 -0.2800  0.4056
   32SAPC   H5R 4280   2.699   2.672   7.229  2.0636  0.4711  2.1205
   32SAPC   C26 4281   2.688   2.619   7.431 -0.2920 -0.0332 -0.0084
   32SAPC   H6R 4282   2.748   2.704   7.466 -0.1592 -0.8700  1.8982
   32SAPC   C27 4283   2.653   2.542   7.554 -0.0658 -0.3395  0.0765
   32SAPC   H7R 4284   2.546   2.512   7.548 -0.4359  1.3955 -2.8123
   32SAPC   H7S 4285   2.650   2.609   7.642  0.9298 -1.3804  0.9240
   32SAPC   C28 4286   2.722   2.409   7.587  0.1270 -0.0655 -0.2621
   32SAPC   H8R 4287   2.752   2.352   7.498 -0.7209 -0.5159 -0.2624
   32SAPC   C29 4288   2.731   2.347   7.709  0.4311 -0.2864 -0.0409
   32SAPC   H9R 4289   2.798   2.262   7.729  1.6979  0.6011 -0.4919
   32SAPC  C210 4290   2.670   2.420   7.832 -0.3373  0.4113  0.3698
   32SAPC  H10R 4291   2.561   2.436   7.817 -0.2409  1.0327  0.3298
   32SAPC  H10S 4292   2.722   2.518   7.843 -1.0641  0.6677  1.6129
   32SAPC  C211 4293   2.694   2.352   7.965 -0.4990 -0.2870 -0.6253
   32SAPC  H11R 4294   2.758   2.263   7.965 -0.8634 -0.5509 -0.9635
   32SAPC  C212 4295   2.658   2.413   8.079  0.1743  0.6872  0.1849
   32SAPC  H12R 4296   2.676   2.347   8.165  0.2357 -0.8494 -0.9982
   32SAPC  C213 4297   2.585   2.546   8.095  0.1794  0.0699 -0.4867
   32SAPC  H13R 4298   2.486   2.520   8.050 -0.2046  0.8920 -0.1381
   32SAPC  H13S 4299   2.617   2.633   8.033  0.6374  0.6587  0.5818
   32SAPC  C214 4300   2.567   2.576   8.246  0.3755  0.3875  0.2973
   32SAPC  H14R 4301   2.627   2.513   8.314  0.7074 -0.1374 -0.4749
   32SAPC  C215 4302   2.474   2.662   8.299  0.4366  0.2131  0.0004
   32SAPC  H15R 4303   2.466   2.671   8.408 -2.0794 -0.6482 -0.0950
   32SAPC  C216 4304   2.374   2.746   8.220  0.3521  0.2874 -0.0652
   32SAPC  H16R 4305   2.299   2.774   8.297  0.4434  1.8582 -0.5341
   32SAPC  H16S 4306   2.321   2.693   8.139  0.8321 -0.5345  0.1517
   32SAPC  C217 4307   2.430   2.885   8.168 -0.4535  0.4802 -0.1673
   32SAPC  H17R 4308   2.501   2.875   8.083  2.3445 -0.9577  2.2589
   32SAPC  H17S 4309   2.488   2.931   8.250 -2.4049  1.9642  0.4150
   32SAPC  C218 4310   2.315   2.987   8.138 -0.1820 -0.6503  0.0976
   32SAPC  H18R 4311   2.359   3.088   8.124 -0.4643 -0.6540 -0.8670
   32SAPC  H18S 4312   2.265   3.001   8.236 -0.1116 -1.4810  0.2572
   32SAPC  C219 4313   2.224   2.944   8.022  0.0842  0.2426  0.6870
   32SAPC  H19R 4314   2.149   3.023   8.002 -0.4417 -0.3726  0.1853
   32SAPC  H19S 4315   2.171   2.853   8.055 -0.1841 -0.2253 -0.9673
   32SAPC  C220 4316   2.301   2.904   7.890 -0.0571 -0.2715 -0.2748
   32SAPC  H20R 4317   2.225   2.915   7.809 -1.0782  0.0250  0.7128
   32SAPC  H20S 4318   2.346   2.805   7.912 -1.3867 -0.2493  2.7176
   32SAPC  H20T 4319   2.381   2.977   7.865  0.5156 -0.5251  0.8145
   32SAPC   C33 4320   1.979   2.344   6.946 -0.4703 -0.3998  0.2683
   32SAPC   H3X 4321   2.081   2.368   6.980 -0.0956 -1.2347 -0.2489
   32SAPC   H3Y 4322   1.976   2.235   6.967 -0.8367 -0.6577 -1.0753
   32SAPC   C34 4323   1.865   2.413   7.017 -0.2490  0.3566  1.0139
   32SAPC   H4X 4324   1.767   2.371   6.986  1.3580 -1.4959 -1.7925
   32SAPC   H4Y 4325   1.874   2.516   6.976  1.0500 -0.5689 -1.1095
   32SAPC   C35 4326   1.896   2.434   7.164  0.6245  0.2676 -0.2323
   32SAPC   H5X 4327   1.816   2.500   7.204  2.3165  1.6406  1.0098
   32SAPC   H5Y 4328   1.997   2.474   7.189  0.8869 -1.2557  1.2454
   32SAPC   C36 4329   1.874   2.306   7.254 -0.2645  0.2624  0.6000
   32SAPC   H6X 4330   1.962   2.244   7.226 -1.0236 -0.0936 -1.1240
   32SAPC   H6Y 4331   1.782   2.254   7.219  0.8228 -1.1721 -0.2027
   32SAPC   C37 4332   1.875   2.321   7.407 -0.1754  0.5445 -0.7074
   32SAPC   H7X 4333   1.830   2.413   7.452 -2.6882 -1.5649  1.3177
   32SAPC   H7Y 4334   1.984   2.327   7.427 -0.2907  0.6346 -0.0971
   32SAPC   C38 4335   1.811   2.200   7.474  0.1049 -0.0281  0.5349
   32SAPC   H8X 4336   1.858   2.118   7.416  0.9256  0.7140  0.1432
   32SAPC   H8Y 4337   1.701   2.202   7.460  0.2761 -0.3022 -0.8486
   32SAPC   C39 4338   1.840   2.193   7.626 -0.3391 -0.2572 -0.0895
   32SAPC   H9X 4339   1.769   2.254   7.685 -1.0212 -0.5571 -0.5897
   32SAPC   H9Y 4340   1.944   2.218   7.657  0.4679 -3.9872  0.4480
   32SAPC  C310 4341   1.805   2.056   7.684 -0.0241 -0.4981 -0.2392
   32SAPC  H10X 4342   1.871   1.973   7.649  2.5183  0.6010  1.8491
   32SAPC  H10Y 4343   1.703   2.021   7.655 -0.8485  1.7574 -0.1243
   32SAPC  C311 4344   1.821   2.056   7.835  0.6637 -0.5800  0.3998
   32SAPC  H11X 4345   1.910   2.115   7.865  1.3107 -1.4413  0.1789
   32SAPC  H11Y 4346   1.844   1.955   7.876  0.5426  0.0216  1.9922
   32SAPC  C312 4347   1.694   2.113   7.905  0.0692 -0.2192 -0.6184
   32SAPC  H12X 4348   1.611   2.051   7.864 -1.3746  0.5479  1.0675
   32SAPC  H12Y 4349   1.664   2.215   7.875 -1.4200 -0.1844  0.8668
   32SAPC  C313 4350   1.698   2.111   8.058 -0.0640 -0.2576 -0.2635
   32SAPC  H13X 4351   1.730   2.009   8.090 -3.1767 -1.7824 -1.7853
   32SAPC  H13Y 4352   1.593   2.110   8.096  0.1774  1.5459  0.5208
   32SAPC  C314 4353   1.779   2.219   8.124 -0.8619  0.3845 -0.3746
   32SAPC  H14X 4354   1.725   2.315   8.138 -1.1239 -0.0786  2.0233
   32SAPC  H14Y 4355   1.865   2.238   8.056 -0.0910  1.4640  0.8885
   32SAPC  C315 4356   1.836   2.186   8.260 -0.0493 -0.4799  0.5183
   32SAPC  H15X 4357   1.931   2.242   8.274  0.0154 -0.5914  0.5227
   32SAPC  H15Y 4358   1.859   2.078   8.263 -2.1177 -0.9559 -0.1049
   32SAPC  C316 4359   1.742   2.233   8.374 -1.0737  0.1914  0.5125
   32SAPC  H16X 4360   1.751   2.341   8.394  0.5387 -0.0162  1.0202
   32SAPC  H16Y 4361   1.790   2.207   8.471  1.6821  2.8503 -0.0641
   32SAPC  C317 4362   1.599   2.184   8.371 -0.2999  0.5391  0.4164
   32SAPC  H17X 4363   1.592   2.073   8.368  0.4069  0.4898  0.4262
   32SAPC  H17Y 4364   1.546   2.237   8.289 -0.2210 -0.1361 -0.0741
   32SAPC  C318 4365   1.515   2.222   8.485 -0.6599 -0.0744 -0.3368
   32SAPC  H18X 4366   1.554   2.185   8.582 -2.0413 -0.1827  0.1883
   32SAPC  H18Y 4367   1.408   2.191   8.482  0.1759 -3.2277  0.8601
   32SAPC  H18Z 4368   1.513   2.334   8.487  0.2935 -0.0609  0.1704
   33POPC     N 4369   5.645   3.613  10.828 -0.3278  0.2002  0.2788
   33POPC   C12 4370   5.784   3.572  10.780  0.3478  0.9318  0.9088
   33POPC  H12A 4371   5.801   3.474  10.822  1.9414 -0.1500 -2.0444
   33POPC  H12B 4372   5.868   3.634  10.808  0.1393  0.6980  2.0790
   33POPC   C13 4373   5.677   3.656  10.968  0.3756 -0.3828 -0.8239
   33POPC  H13A 4374   5.770   3.711  10.968 -0.2844  0.7586 -1.2531
   33POPC  H13B 4375   5.598   3.721  11.005  1.7875 -0.4312  2.3991
   33POPC  H13C 4376   5.682   3.563  11.021 -1.3797 -0.3692 -0.6023
   33POPC   C14 4377   5.590   3.729  10.752  0.3919  0.4836  0.0575
   33POPC  H14A 4378   5.663   3.807  10.739 -0.4262  1.4006  0.9059
   33POPC  H14B 4379   5.562   3.704  10.651 -0.8725  1.1307  0.2284
   33POPC  H14C 4380   5.503   3.781  10.791 -0.8123  0.7400 -2.8388
   33POPC   C15 4381   5.551   3.501  10.814  0.2124  0.4446  0.3710
   33POPC  H15A 4382   5.456   3.528  10.859 -0.8121  1.5877 -2.3550
   33POPC  H15B 4383   5.581   3.409  10.861  2.4072 -0.4141 -2.5752
   33POPC  H15C 4384   5.527   3.486  10.710  0.5916 -1.0090  0.4918
   33POPC   C11 4385   5.800   3.562  10.621 -0.4208 -0.0389 -1.4119
   33POPC  H11A 4386   5.722   3.499  10.574  0.3939 -0.3348 -2.4093
   33POPC  H11B 4387   5.892   3.506  10.593  1.0755  0.8167  1.5803
   33POPC     P 4388   5.916   3.794  10.579 -0.1004 -0.1646 -0.2082
   33POPC   O13 4389   5.995   3.750  10.697  0.0670 -0.2449 -0.9354
   33POPC   O14 4390   5.875   3.936  10.576  0.4979 -0.2861 -0.8107
   33POPC   O12 4391   5.794   3.693  10.559 -0.6089 -0.0551 -0.0117
   33POPC   O11 4392   6.001   3.770  10.454 -0.3616 -0.6506  0.0940
   33POPC    C1 4393   5.963   3.691  10.336 -0.0746 -0.1254  0.1383
   33POPC    HA 4394   6.030   3.603  10.332  0.3675  0.1110  1.7575
   33POPC    HB 4395   5.862   3.646  10.348 -0.4913  0.8834  0.5154
   33POPC    C2 4396   5.962   3.773  10.214  0.1721 -0.2372 -0.5152
   33POPC    HS 4397   5.935   3.714  10.124 -1.6372 -1.7780  1.0068
   33POPC   O21 4398   6.092   3.827  10.185 -0.0781  0.2991 -0.0284
   33POPC   C21 4399   6.182   3.736  10.158 -0.3065 -0.6798 -0.2759
   33POPC   O22 4400   6.173   3.616  10.160  0.2281 -0.0594 -0.3305
   33POPC   C22 4401   6.303   3.808  10.099  0.2077 -0.8434  0.1897
   33POPC   H2R 4402   6.384   3.738  10.069  0.9851  0.1861 -0.1440
   33POPC   H2S 4403   6.348   3.876  10.175 -0.7134  0.0088 -0.0160
   33POPC    C3 4404   5.852   3.888  10.215  0.2070  0.0840 -0.0984
   33POPC    HX 4405   5.872   3.970  10.287 -0.9401 -1.0644  1.5606
   33POPC    HY 4406   5.757   3.838  10.245 -1.4338  2.0071 -1.9452
   33POPC   O31 4407   5.817   3.944  10.085 -0.2116  0.4407 -0.8048
   33POPC   C31 4408   5.897   4.038  10.037 -1.0691 -0.0788  0.2339
   33POPC   O32 4409   5.992   4.095  10.089  0.4129  0.4512  0.1697
   33POPC   C32 4410   5.856   4.063   9.891  0.0059  0.5057 -0.6869
   33POPC   H2X 4411   5.750   4.097   9.900 -0.4627 -0.6300 -1.9269
   33POPC   H2Y 4412   5.870   3.971   9.832 -0.5528  0.4829 -0.7827
   33POPC   C23 4413   6.271   3.904   9.981  0.0232 -0.0378  0.3089
   33POPC   H3R 4414   6.359   3.968   9.956 -1.7418  2.0762 -0.6397
   33POPC   H3S 4415   6.207   3.988  10.015  1.5180  2.0224 -1.7758
   33POPC   C24 4416   6.210   3.833   9.858  0.6035 -0.4532  0.4144
   33POPC   H4R 4417   6.177   3.917   9.793  0.2787  0.1872  1.3852
   33POPC   H4S 4418   6.111   3.794   9.891 -0.1396  0.8819 -0.2283
   33POPC   C25 4419   6.283   3.728   9.777  0.3711 -1.2737 -0.2222
   33POPC   H5R 4420   6.318   3.645   9.842 -1.4945 -1.4506  0.5836
   33POPC   H5S 4421   6.374   3.769   9.728 -1.5228  0.7592 -2.2132
   33POPC   C26 4422   6.195   3.677   9.658  0.0378 -0.5015  0.5499
   33POPC   H6R 4423   6.141   3.758   9.605  0.0990 -1.2285 -0.6611
   33POPC   H6S 4424   6.111   3.614   9.695 -0.0559 -1.5008 -1.3113
   33POPC   C27 4425   6.265   3.599   9.547  0.3277  0.1347 -0.3103
   33POPC   H7R 4426   6.334   3.533   9.604 -0.3468  0.1402  0.5240
   33POPC   H7S 4427   6.321   3.663   9.475  2.0939  0.9417  1.7387
   33POPC   C28 4428   6.182   3.499   9.463  0.3029 -0.1055  0.0066
   33POPC   H8R 4429   6.156   3.422   9.539 -0.2657 -0.1910 -0.2733
   33POPC   H8S 4430   6.253   3.458   9.388 -0.4459  0.7957 -1.1976
   33POPC   C29 4431   6.061   3.570   9.402  0.8437 -0.5602 -0.1677
   33POPC   H91 4432   5.978   3.588   9.472  0.2416  0.6148 -1.1579
   33POPC  C210 4433   6.058   3.632   9.285  0.0237 -0.5405  0.1690
   33POPC  H101 4434   5.961   3.675   9.256 -0.7515 -3.5595 -1.8290
   33POPC  C211 4435   6.166   3.654   9.179 -0.1216  0.5364 -0.1859
   33POPC  H11R 4436   6.249   3.580   9.190  2.7088  3.0378 -3.5276
   33POPC  H11S 4437   6.205   3.758   9.183  0.7187  0.2182 -0.0630
   33POPC  C212 4438   6.109   3.639   9.032  0.0232  0.2186  0.3386
   33POPC  H12R 4439   6.023   3.707   9.017 -0.1597 -0.6890 -2.9896
   33POPC  H12S 4440   6.057   3.542   9.026  0.5274 -0.0703  0.5640
   33POPC  C213 4441   6.220   3.628   8.928 -0.0268  0.2131 -0.0349
   33POPC  H13R 4442   6.304   3.565   8.961 -0.4147 -0.3786 -0.1758
   33POPC  H13S 4443   6.257   3.729   8.899 -0.5996 -0.2799 -2.6789
   33POPC  C214 4444   6.173   3.557   8.800 -0.7381  0.9761  0.1003
   33POPC  H14R 4445   6.079   3.608   8.769 -0.4045  0.7017 -1.3626
   33POPC  H14S 4446   6.146   3.451   8.822  0.0712  0.8359  0.4206
   33POPC  C215 4447   6.275   3.546   8.694 -0.4509  0.1301  0.5796
   33POPC  H15R 4448   6.351   3.469   8.721 -1.2441 -0.4352  1.2126
   33POPC  H15S 4449   6.330   3.642   8.686 -1.6161  0.7453 -0.2749
   33POPC  C216 4450   6.212   3.536   8.555  0.4592 -0.3414  0.4537
   33POPC  H16R 4451   6.268   3.603   8.485 -1.6908  0.6833 -0.3353
   33POPC  H16S 4452   6.111   3.581   8.556  1.4259  1.9823 -0.1996
   33POPC  C217 4453   6.211   3.394   8.493  0.1296 -0.3460  0.2997
   33POPC  H17R 4454   6.170   3.394   8.390  1.7825  1.5285 -0.3781
   33POPC  H17S 4455   6.150   3.334   8.564 -2.6647  0.8637 -0.9690
   33POPC  C218 4456   6.340   3.322   8.483 -0.6595 -0.2675  0.3602
   33POPC  H18R 4457   6.388   3.296   8.580  0.1817  0.6243  0.1824
   33POPC  H18S 4458   6.423   3.381   8.440  1.4844 -3.1389  0.4339
   33POPC  H18T 4459   6.324   3.228   8.425  1.7905  0.7227 -2.0063
   33POPC   C33 4460   5.951   4.168   9.820 -0.3927  0.0221  0.7730
   33POPC   H3X 4461   6.055   4.148   9.854 -0.6153  0.2550  1.6024
   33POPC   H3Y 4462   5.928   4.260   9.877 -0.5727  0.1756  0.4533
   33POPC   C34 4463   5.926   4.173   9.675 -0.2259 -0.5966  0.1496
   33POPC   H4X 4464   5.960   4.272   9.638 -0.2286 -1.3008 -1.8006
   33POPC   H4Y 4465   5.819   4.157   9.650 -0.7048  1.0160  1.0984
   33POPC   C35 4466   6.015   4.077   9.588 -0.3267  0.0007  0.5445
   33POPC   H5X 4467   5.997   3.968   9.606 -1.0531 -0.0676 -0.6066
   33POPC   H5Y 4468   6.123   4.085   9.615 -1.1522  2.4082  3.3637
   33POPC   C36 4469   5.984   4.100   9.443 -0.5382  0.1723  0.0693
   33POPC   H6X 4470   5.969   4.207   9.417  1.7709  0.2725 -0.9603
   33POPC   H6Y 4471   5.892   4.045   9.413 -0.6991  0.8126 -0.6401
   33POPC   C37 4472   6.098   4.050   9.349  0.7218 -0.0750  0.3355
   33POPC   H7X 4473   6.117   3.945   9.381  0.3672 -1.1028 -2.6175
   33POPC   H7Y 4474   6.190   4.110   9.358 -0.0793  1.5484 -1.7158
   33POPC   C38 4475   6.050   4.039   9.202  0.5513 -0.1109  0.2382
   33POPC   H8X 4476   5.942   4.014   9.194  1.1827 -1.6988 -5.0977
   33POPC   H8Y 4477   6.118   3.959   9.167  1.2627  0.0045  1.3244
   33POPC   C39 4478   6.081   4.175   9.120 -0.1607  0.6173 -0.4863
   33POPC   H9X 4479   6.189   4.172   9.096 -0.5751 -3.3960 -2.1710
   33POPC   H9Y 4480   6.049   4.266   9.175 -0.2134 -1.7730  3.6586
   33POPC  C310 4481   6.017   4.175   8.975  0.7056 -0.0862  0.1530
   33POPC  H10X 4482   6.053   4.262   8.917  1.9075 -0.4358  0.3546
   33POPC  H10Y 4483   5.906   4.165   8.977  0.5406  1.0701 -1.8813
   33POPC  C311 4484   6.070   4.063   8.885 -0.1372 -0.3830 -0.1832
   33POPC  H11X 4485   6.049   3.961   8.925 -1.0623 -0.6138 -1.2609
   33POPC  H11Y 4486   6.179   4.080   8.900  0.0534 -1.8638  0.2288
   33POPC  C312 4487   6.042   4.067   8.733 -0.1932 -0.4110  0.0338
   33POPC  H12X 4488   6.070   4.170   8.703 -0.7430  0.0282  1.0280
   33POPC  H12Y 4489   5.931   4.061   8.735 -0.3312  1.8270 -0.0004
   33POPC  C313 4490   6.120   3.962   8.665  1.0226 -0.7031  0.1152
   33POPC  H13X 4491   6.055   3.893   8.606  0.7882 -0.0901 -0.3427
   33POPC  H13Y 4492   6.178   3.898   8.735  2.1602  2.3090  2.0086
   33POPC  C314 4493   6.213   4.025   8.561  0.0206 -0.0194  0.0091
   33POPC  H14X 4494   6.280   4.105   8.600  1.2411 -1.0028 -0.0588
   33POPC  H14Y 4495   6.149   4.079   8.488 -1.5955  0.9885  2.1371
   33POPC  C315 4496   6.285   3.918   8.473  0.3844 -0.2209  0.0870
   33POPC  H15X 4497   6.213   3.841   8.438 -0.4004  0.0245  1.1193
   33POPC  H15Y 4498   6.356   3.860   8.535 -0.7014 -3.9093 -1.9671
   33POPC  C316 4499   6.360   3.976   8.355  0.0819  0.5134 -0.4695
   33POPC  H16X 4500   6.397   4.079   8.376 -2.4372  1.2714  0.5196
   33POPC  H16Y 4501   6.290   3.971   8.269 -2.9139 -0.0393  1.8977
   33POPC  H16Z 4502   6.456   3.921   8.351  1.0679  2.0902  0.9482
   34POPC     N 4503   6.172   5.803  10.587 -0.3255  0.1214  0.8471
   34POPC   C12 4504   6.109   5.687  10.512  0.1108 -0.3912  1.0949
   34POPC  H12A 4505   6.104   5.601  10.577 -1.4648 -2.2049 -1.3552
   34POPC  H12B 4506   6.175   5.665  10.429  0.2948 -2.5694  1.7850
   34POPC   C13 4507   6.106   5.837  10.713 -0.0259 -0.0431  0.2977
   34POPC  H13A 4508   6.005   5.806  10.690  0.3594  0.1030 -1.6671
   34POPC  H13B 4509   6.152   5.788  10.797 -1.0197 -1.0120  0.2932
   34POPC  H13C 4510   6.112   5.941  10.741 -1.7202  0.4109 -0.9301
   34POPC   C14 4511   6.315   5.765  10.608 -0.3687  0.7236  0.0870
   34POPC  H14A 4512   6.367   5.745  10.516  1.3638  3.3963  0.4031
   34POPC  H14B 4513   6.373   5.841  10.659 -0.0511 -1.2229  2.7603
   34POPC  H14C 4514   6.324   5.678  10.670 -0.7636  1.1697  0.7785
   34POPC   C15 4515   6.177   5.926  10.493 -0.0113  0.2921 -0.8713
   34POPC  H15A 4516   6.232   5.899  10.404 -1.1622  0.2608 -1.5817
   34POPC  H15B 4517   6.218   6.016  10.538  2.5894 -0.8718 -0.8478
   34POPC  H15C 4518   6.074   5.938  10.463 -0.4834  0.9534  0.9441
   34POPC   C11 4519   5.974   5.711  10.450 -0.5892 -0.4559 -0.2543
   34POPC  H11A 4520   5.950   5.630  10.378 -3.5822 -0.4093  0.6135
   34POPC  H11B 4521   5.977   5.805  10.389  1.7120 -1.7983 -2.3199
   34POPC     P 4522   5.813   5.611  10.625 -0.1720 -0.2779  0.0399
   34POPC   O13 4523   5.691   5.664  10.691 -0.5179  0.1489 -0.0329
   34POPC   O14 4524   5.910   5.555  10.715 -0.0370 -0.2450 -0.0693
   34POPC   O12 4525   5.873   5.740  10.549 -0.2165 -0.1151  0.6422
   34POPC   O11 4526   5.766   5.502  10.519  0.4005 -0.0368 -0.1392
   34POPC    C1 4527   5.632   5.457  10.505  0.7039  0.6566  0.4787
   34POPC    HA 4528   5.564   5.525  10.560 -1.0945 -0.9687  0.2872
   34POPC    HB 4529   5.613   5.353  10.538  2.9497  0.0981  0.1016
   34POPC    C2 4530   5.582   5.488  10.362 -0.3383  0.3900  0.0034
   34POPC    HS 4531   5.475   5.461  10.349  0.0587 -0.6871 -1.1498
   34POPC   O21 4532   5.658   5.423  10.258 -0.1198 -0.9517 -0.1448
   34POPC   C21 4533   5.687   5.297  10.284 -0.3779  0.1565  0.5166
   34POPC   O22 4534   5.630   5.212  10.357 -0.4319 -0.1543 -0.0244
   34POPC   C22 4535   5.812   5.260  10.201 -0.0566 -0.3968  0.0468
   34POPC   H2R 4536   5.811   5.150  10.217 -0.3581 -0.4109 -0.0555
   34POPC   H2S 4537   5.900   5.309  10.247 -0.5705  1.1479 -0.6044
   34POPC    C3 4538   5.592   5.634  10.316 -0.0940 -0.7106  0.4064
   34POPC    HX 4539   5.696   5.670  10.299 -0.0689 -2.1840 -2.8696
   34POPC    HY 4540   5.547   5.692  10.400  0.7208 -2.1980  1.8962
   34POPC   O31 4541   5.512   5.653  10.197 -0.3595 -0.2568 -0.0298
   34POPC   C31 4542   5.578   5.686  10.089 -0.0255  0.7416 -0.4045
   34POPC   O32 4543   5.683   5.749  10.082  0.2024 -0.6375 -0.5736
   34POPC   C32 4544   5.476   5.665   9.978 -0.8739 -0.1242 -0.1081
   34POPC   H2X 4545   5.391   5.731  10.004 -0.3862  1.1271 -1.5363
   34POPC   H2Y 4546   5.442   5.560   9.980  1.4437 -0.8895  1.4671
   34POPC   C23 4547   5.807   5.290  10.051  0.5408  0.2466  0.0616
   34POPC   H3R 4548   5.893   5.235  10.007  0.7985 -0.1426  1.0307
   34POPC   H3S 4549   5.819   5.398  10.030 -0.9378  0.3161 -0.4355
   34POPC   C24 4550   5.687   5.223   9.980 -0.7488  0.4403 -0.0250
   34POPC   H4R 4551   5.640   5.155  10.053  0.9896  2.0179  2.6572
   34POPC   H4S 4552   5.724   5.162   9.894  1.4592  1.4643  0.1546
   34POPC   C25 4553   5.599   5.326   9.918 -0.4828 -0.2928 -0.6863
   34POPC   H5R 4554   5.652   5.417   9.882  0.0830 -0.0326  0.7840
   34POPC   H5S 4555   5.522   5.366   9.986 -0.4589 -0.7421 -0.3924
   34POPC   C26 4556   5.525   5.267   9.798  0.3277  0.5271 -0.8577
   34POPC   H6R 4557   5.472   5.183   9.847  0.3449 -0.0567 -1.8090
   34POPC   H6S 4558   5.602   5.233   9.725  0.0051 -0.7232 -0.6274
   34POPC   C27 4559   5.415   5.344   9.740 -0.2112 -0.8628  0.3871
   34POPC   H7R 4560   5.439   5.451   9.725  1.0676 -1.0247  1.1919
   34POPC   H7S 4561   5.326   5.348   9.806  0.1331 -1.2739  0.8789
   34POPC   C28 4562   5.358   5.283   9.604  0.1098 -0.2204 -0.3008
   34POPC   H8R 4563   5.333   5.177   9.623 -0.7948  0.0694  0.1344
   34POPC   H8S 4564   5.439   5.286   9.527  0.4446 -1.9131 -0.0287
   34POPC   C29 4565   5.235   5.360   9.556 -0.2376 -0.0038  0.0429
   34POPC   H91 4566   5.159   5.393   9.627  0.5744  2.0167  0.0126
   34POPC  C210 4567   5.213   5.402   9.428  0.4486  0.2323 -0.6310
   34POPC  H101 4568   5.122   5.461   9.407  0.6244  0.2444 -1.3749
   34POPC  C211 4569   5.294   5.385   9.305 -1.0336  0.3337 -0.2522
   34POPC  H11R 4570   5.403   5.396   9.322 -1.0733  0.2013  0.1020
   34POPC  H11S 4571   5.269   5.460   9.227  1.7293  2.9349  1.2626
   34POPC  C212 4572   5.257   5.245   9.255 -0.3100  0.1112  0.1497
   34POPC  H12R 4573   5.147   5.232   9.248 -0.2066  0.1801 -2.0628
   34POPC  H12S 4574   5.297   5.169   9.325  0.6724  1.8807  1.5602
   34POPC  C213 4575   5.316   5.222   9.115  0.2634 -0.5894  0.2483
   34POPC  H13R 4576   5.425   5.244   9.109  0.0864 -0.2081 -2.1126
   34POPC  H13S 4577   5.256   5.299   9.062  1.4266  1.8966  2.3993
   34POPC  C214 4578   5.278   5.078   9.070  0.1980 -0.4360  0.5006
   34POPC  H14R 4579   5.168   5.069   9.083  0.0357  0.3367 -0.3119
   34POPC  H14S 4580   5.328   4.993   9.122  1.3170 -0.2179 -0.1972
   34POPC  C215 4581   5.303   5.064   8.919 -0.2863  0.1532  0.2178
   34POPC  H15R 4582   5.406   5.100   8.896 -0.8694  0.5622 -1.7915
   34POPC  H15S 4583   5.238   5.133   8.862  0.2317 -0.6085 -1.3167
   34POPC  C216 4584   5.269   4.919   8.872 -0.1167 -0.4678 -0.1713
   34POPC  H16R 4585   5.162   4.896   8.894  0.0934 -1.2570  0.0036
   34POPC  H16S 4586   5.331   4.853   8.936  0.5848 -0.3765 -0.7632
   34POPC  C217 4587   5.315   4.889   8.727  0.2892 -0.4216 -0.0811
   34POPC  H17R 4588   5.336   4.781   8.713 -1.8937 -0.8360 -0.4129
   34POPC  H17S 4589   5.417   4.932   8.716  0.3890 -1.0278 -1.7205
   34POPC  C218 4590   5.229   4.938   8.611 -0.7245 -0.2215  0.2076
   34POPC  H18R 4591   5.299   4.948   8.526 -1.0443  0.3174  0.0077
   34POPC  H18S 4592   5.192   5.041   8.633 -1.3471  0.1305 -2.3610
   34POPC  H18T 4593   5.147   4.870   8.583  0.2221 -1.8291  1.2671
   34POPC   C33 4594   5.509   5.734   9.845 -0.1671 -0.2546 -0.3786
   34POPC   H3X 4595   5.580   5.678   9.781 -0.0834 -1.0957  0.4247
   34POPC   H3Y 4596   5.532   5.842   9.859 -2.3012  0.3462 -1.2895
   34POPC   C34 4597   5.383   5.747   9.756 -0.0642 -0.2867  0.7304
   34POPC   H4X 4598   5.324   5.834   9.791 -1.6855 -0.4824 -1.4125
   34POPC   H4Y 4599   5.310   5.664   9.753  0.4211 -0.7852  2.5524
   34POPC   C35 4600   5.410   5.783   9.606  0.1022  0.1324  0.6042
   34POPC   H5X 4601   5.490   5.859   9.593  0.3008 -0.0671  0.6591
   34POPC   H5Y 4602   5.315   5.810   9.553 -0.9442 -1.4966  1.5966
   34POPC   C36 4603   5.463   5.666   9.521 -0.5167  0.1056 -0.5119
   34POPC   H6X 4604   5.390   5.582   9.523  2.0644 -2.2802 -2.3060
   34POPC   H6Y 4605   5.550   5.625   9.577 -1.4814  1.2380  1.8935
   34POPC   C37 4606   5.512   5.685   9.377  0.5182 -0.3545 -1.1044
   34POPC   H7X 4607   5.544   5.593   9.324  2.0281 -0.2041 -0.4823
   34POPC   H7Y 4608   5.601   5.753   9.379  1.6006 -1.7742  1.4095
   34POPC   C38 4609   5.402   5.754   9.294 -0.6924  0.0071 -0.9392
   34POPC   H8X 4610   5.405   5.856   9.340  0.2188  0.1915 -1.4119
   34POPC   H8Y 4611   5.312   5.696   9.324  0.7024 -1.7466 -0.0725
   34POPC   C39 4612   5.435   5.745   9.146 -0.2146  0.2951 -0.1429
   34POPC   H9X 4613   5.346   5.761   9.081 -0.0872 -1.9404 -0.9132
   34POPC   H9Y 4614   5.456   5.637   9.130  0.3973  0.6745 -1.9590
   34POPC  C310 4615   5.547   5.825   9.089  0.4861 -0.2350 -0.4694
   34POPC  H10X 4616   5.640   5.804   9.146 -0.1023 -1.8533 -0.0717
   34POPC  H10Y 4617   5.526   5.933   9.105 -0.8863 -0.5623  0.0045
   34POPC  C311 4618   5.568   5.800   8.938  0.1660 -0.0054 -0.2335
   34POPC  H11X 4619   5.546   5.694   8.914  3.1835 -1.2457  2.2024
   34POPC  H11Y 4620   5.675   5.825   8.918  0.3977 -0.2684  0.6368
   34POPC  C312 4621   5.494   5.899   8.851  0.1019  0.4022 -0.4766
   34POPC  H12X 4622   5.388   5.887   8.882 -0.5605  1.3484 -2.2966
   34POPC  H12Y 4623   5.503   5.858   8.749  0.1578  2.3084 -1.2588
   34POPC  C313 4624   5.546   6.039   8.851  0.6647 -0.0639 -0.0047
   34POPC  H13X 4625   5.649   6.033   8.809  0.3226 -0.0564 -0.8482
   34POPC  H13Y 4626   5.561   6.078   8.955  0.6727  1.0359 -0.4038
   34POPC  C314 4627   5.465   6.144   8.758 -0.2334  0.0012 -0.1063
   34POPC  H14X 4628   5.362   6.149   8.800  0.3232  0.1612  1.2900
   34POPC  H14Y 4629   5.457   6.092   8.660 -0.9134 -2.5802  1.2600
   34POPC  C315 4630   5.514   6.282   8.770  0.5571  0.6819 -0.3142
   34POPC  H15X 4631   5.623   6.294   8.748  1.3395 -2.8967  1.3311
   34POPC  H15Y 4632   5.505   6.328   8.871 -1.3885  0.6460 -0.4608
   34POPC  C316 4633   5.446   6.374   8.674  0.5626  0.3952  0.0888
   34POPC  H16X 4634   5.335   6.378   8.677  0.6621  2.6097  1.7767
   34POPC  H16Y 4635   5.477   6.342   8.572  2.7889  1.0499  0.5382
   34POPC  H16Z 4636   5.475   6.479   8.691  2.9539 -0.5483  2.1541
   35POPC     N 4637   5.449   1.727  11.155 -0.1324 -0.0732  0.1492
   35POPC   C12 4638   5.403   1.835  11.246  0.6071 -0.0223  0.2130
   35POPC  H12A 4639   5.469   1.833  11.332 -0.0881 -4.2202  0.7632
   35POPC  H12B 4640   5.303   1.809  11.277  0.7822 -0.8706  0.0668
   35POPC   C13 4641   5.424   1.591  11.201 -0.3572  0.0737 -0.4625
   35POPC  H13A 4642   5.488   1.571  11.285 -1.7275 -2.2485  0.0701
   35POPC  H13B 4643   5.319   1.576  11.222  0.2216 -0.9865  1.7522
   35POPC  H13C 4644   5.450   1.513  11.132  0.2437 -2.3316  2.3856
   35POPC   C14 4645   5.378   1.750  11.025 -0.3076  0.7525  0.2295
   35POPC  H14A 4646   5.429   1.697  10.946  0.1938  0.0451  1.0130
   35POPC  H14B 4647   5.273   1.724  11.027  0.0836 -1.0325 -1.4480
   35POPC  H14C 4648   5.368   1.856  11.008  0.6328  1.1646  2.0918
   35POPC   C15 4649   5.600   1.746  11.142  0.0823 -0.0664  0.3624
   35POPC  H15A 4650   5.634   1.680  11.063  0.2323  0.8723 -0.3670
   35POPC  H15B 4651   5.645   1.724  11.238 -1.3224  1.2172  1.3323
   35POPC  H15C 4652   5.627   1.848  11.118 -2.5746  0.3601 -0.9561
   35POPC   C11 4653   5.412   1.979  11.194  0.4137 -0.2716 -0.3350
   35POPC  H11A 4654   5.507   1.991  11.137  0.7844 -1.3117  0.0569
   35POPC  H11B 4655   5.406   2.050  11.279  0.9745 -0.5757 -0.0419
   35POPC     P 4656   5.150   2.021  11.141 -0.2513  0.2939 -0.3791
   35POPC   O13 4657   5.134   2.129  11.240  0.0649  0.1288  0.6939
   35POPC   O14 4658   5.093   1.889  11.169  0.4394  0.5193 -0.0456
   35POPC   O12 4659   5.300   2.007  11.104  0.1037  0.2543 -0.2193
   35POPC   O11 4660   5.088   2.074  11.007 -0.1057  0.2343 -0.0606
   35POPC    C1 4661   5.080   2.000  10.889  0.1061 -0.0327  0.6581
   35POPC    HA 4662   5.000   1.923  10.893  0.5628 -0.6339 -1.1741
   35POPC    HB 4663   5.175   1.951  10.861 -0.1531  0.9525 -2.0506
   35POPC    C2 4664   5.054   2.085  10.756 -0.2049  0.5087 -0.9119
   35POPC    HS 4665   5.055   2.009  10.675 -0.4969 -0.5494  0.0551
   35POPC   O21 4666   5.171   2.171  10.733 -0.2671 -0.1425 -0.0638
   35POPC   C21 4667   5.259   2.119  10.645 -0.3254  0.8203 -0.6677
   35POPC   O22 4668   5.269   2.000  10.617  0.1150  0.2022 -0.2489
   35POPC   C22 4669   5.355   2.229  10.607 -0.2185  0.8679 -0.1095
   35POPC   H2R 4670   5.436   2.212  10.681  1.2891 -0.1029 -1.9386
   35POPC   H2S 4671   5.297   2.324  10.614 -0.5340  0.4991  2.6084
   35POPC    C3 4672   4.925   2.159  10.749  0.3271 -0.2776 -0.1488
   35POPC    HX 4673   4.911   2.217  10.843  1.2713  1.6237 -1.1495
   35POPC    HY 4674   4.846   2.082  10.756  1.0434 -0.8425  2.0042
   35POPC   O31 4675   4.924   2.236  10.625  0.2514  0.1328 -0.0634
   35POPC   C31 4676   4.922   2.366  10.635  0.0727 -0.7363  0.4807
   35POPC   O32 4677   4.916   2.438  10.731  0.3028 -0.1369 -0.2217
   35POPC   C32 4678   4.941   2.412  10.487  1.0535 -0.0569  0.3220
   35POPC   H2X 4679   4.853   2.380  10.426 -1.4943  2.2305  2.6781
   35POPC   H2Y 4680   5.034   2.360  10.458  1.5241  0.1163  1.5090
   35POPC   C23 4681   5.420   2.217  10.468  0.2096 -0.0804  0.0443
   35POPC   H3R 4682   5.461   2.115  10.450 -1.4058 -1.0701  1.7132
   35POPC   H3S 4683   5.520   2.264  10.463  0.2015 -0.0242  0.3533
   35POPC   C24 4684   5.327   2.254  10.355  0.1679 -0.1826 -0.0136
   35POPC   H4R 4685   5.222   2.218  10.358 -0.0287  0.4267  1.0337
   35POPC   H4S 4686   5.368   2.207  10.264 -1.4958  0.5859 -1.1922
   35POPC   C25 4687   5.303   2.404  10.337 -0.9355  0.4968 -0.5728
   35POPC   H5R 4688   5.404   2.448  10.325 -1.6112  2.0652 -0.7122
   35POPC   H5S 4689   5.245   2.443  10.423 -1.6445  0.1462 -0.8834
   35POPC   C26 4690   5.227   2.418  10.204 -0.1728 -0.2386 -0.2072
   35POPC   H6R 4691   5.119   2.402  10.226 -0.5610  1.3110 -0.9393
   35POPC   H6S 4692   5.258   2.332  10.142 -0.8492 -2.1142  1.9602
   35POPC   C27 4693   5.250   2.549  10.133 -0.0470  0.3063  0.5239
   35POPC   H7R 4694   5.358   2.544  10.111 -0.7138 -3.2068 -2.3552
   35POPC   H7S 4695   5.233   2.631  10.207 -3.6339 -0.1945  0.3548
   35POPC   C28 4696   5.162   2.574  10.011 -0.0285 -0.2530 -0.1309
   35POPC   H8R 4697   5.056   2.550  10.033  0.3203 -1.0110  0.7511
   35POPC   H8S 4698   5.194   2.503   9.932  3.6711 -0.6438  1.6076
   35POPC   C29 4699   5.172   2.722   9.958 -0.0407 -0.3355 -0.4278
   35POPC   H91 4700   5.138   2.786  10.041  1.3238 -1.5645  1.1193
   35POPC  C210 4701   5.192   2.769   9.834 -0.0923  0.3261  0.4289
   35POPC  H101 4702   5.228   2.870   9.809  2.9656 -1.0636 -1.0519
   35POPC  C211 4703   5.210   2.670   9.718  0.6894  0.2385  0.4930
   35POPC  H11R 4704   5.129   2.595   9.704 -0.4704  1.3538  1.1414
   35POPC  H11S 4705   5.303   2.610   9.725 -1.3656 -3.0801  0.1709
   35POPC  C212 4706   5.213   2.741   9.576  0.6089 -0.5972 -0.7239
   35POPC  H12R 4707   5.309   2.796   9.564  1.0127 -1.8293 -3.4388
   35POPC  H12S 4708   5.134   2.819   9.570  2.1879  0.9784 -1.2983
   35POPC  C213 4709   5.198   2.650   9.454 -0.3507  0.7444 -0.3224
   35POPC  H13R 4710   5.110   2.586   9.477 -1.7345  2.8342  0.3487
   35POPC  H13S 4711   5.291   2.589   9.451  0.6969  2.3459 -1.3436
   35POPC  C214 4712   5.183   2.710   9.316 -0.0188 -0.1699 -0.0189
   35POPC  H14R 4713   5.277   2.731   9.261 -0.5210 -0.2099 -0.9046
   35POPC  H14S 4714   5.124   2.804   9.317  1.4663  0.7667  0.4720
   35POPC  C215 4715   5.101   2.618   9.223 -0.3893  0.2542 -0.7697
   35POPC  H15R 4716   5.004   2.589   9.268  0.4827 -0.7344  0.5119
   35POPC  H15S 4717   5.153   2.520   9.216 -0.9982 -0.0044 -1.7181
   35POPC  C216 4718   5.074   2.671   9.086 -0.6946 -0.2366  0.1134
   35POPC  H16R 4719   5.169   2.714   9.047 -1.3078  2.3314  1.3848
   35POPC  H16S 4720   4.994   2.746   9.099 -0.3568  0.1320  0.0644
   35POPC  C217 4721   5.030   2.554   8.995  0.1052 -0.5610  0.1848
   35POPC  H17R 4722   4.979   2.595   8.905 -0.0801  0.6118  0.8080
   35POPC  H17S 4723   4.951   2.490   9.040 -3.0057  4.0687  1.7346
   35POPC  C218 4724   5.155   2.470   8.960 -0.0475 -0.1203  0.1446
   35POPC  H18R 4725   5.238   2.531   8.918 -0.9146 -0.3234 -1.9420
   35POPC  H18S 4726   5.143   2.398   8.877 -0.6752 -1.9234  1.7838
   35POPC  H18T 4727   5.187   2.414   9.050 -2.7786 -2.3994 -0.2484
   35POPC   C33 4728   4.945   2.568  10.461  0.0311  0.1284  0.2307
   35POPC   H3X 4729   5.053   2.593  10.459  0.0235  0.3762  2.0179
   35POPC   H3Y 4730   4.900   2.628  10.543 -1.0017  0.2024 -0.3840
   35POPC   C34 4731   4.876   2.610  10.329  0.6571 -0.3680  0.8601
   35POPC   H4X 4732   4.770   2.576  10.321  0.3133  0.5885  1.2703
   35POPC   H4Y 4733   4.931   2.563  10.245 -2.2504 -0.2132 -1.1807
   35POPC   C35 4734   4.868   2.755  10.296  0.7027 -0.0338 -0.5588
   35POPC   H5X 4735   4.965   2.804  10.319  0.8735 -1.4539  2.0102
   35POPC   H5Y 4736   4.793   2.789  10.371  0.3140 -3.0040  0.4689
   35POPC   C36 4737   4.832   2.794  10.158 -0.0235  0.0913 -0.3604
   35POPC   H6X 4738   4.908   2.753  10.087 -1.8058 -0.6885 -1.8720
   35POPC   H6Y 4739   4.846   2.903  10.140  0.0379  0.1916  0.2797
   35POPC   C37 4740   4.698   2.745  10.104  0.7100  0.5482  0.1787
   35POPC   H7X 4741   4.608   2.766  10.165  1.2858 -0.4532  1.3919
   35POPC   H7Y 4742   4.716   2.635  10.099  2.6002  0.8638 -0.4930
   35POPC   C38 4743   4.673   2.788   9.955  0.2162  0.3039 -0.3932
   35POPC   H8X 4744   4.641   2.894   9.955  1.0598  0.5640 -0.3941
   35POPC   H8Y 4745   4.585   2.725   9.929 -0.6952  0.4969  2.0420
   35POPC   C39 4746   4.781   2.743   9.857 -0.3835  0.5770 -0.0178
   35POPC   H9X 4747   4.805   2.637   9.880 -0.7606  0.9859  2.4745
   35POPC   H9Y 4748   4.873   2.803   9.873 -0.1756 -0.3898  2.6965
   35POPC  C310 4749   4.733   2.772   9.709  0.4751  0.2492 -0.4339
   35POPC  H10X 4750   4.718   2.880   9.689  0.0571  0.2819  0.0317
   35POPC  H10Y 4751   4.640   2.711   9.703 -0.0538  0.6520  2.7684
   35POPC  C311 4752   4.836   2.720   9.610  0.3274 -0.4981  0.0345
   35POPC  H11X 4753   4.849   2.610   9.622  1.1158 -0.4498 -0.3177
   35POPC  H11Y 4754   4.931   2.753   9.657 -1.5660  0.7784  3.0782
   35POPC  C312 4755   4.810   2.766   9.464  0.2539  0.3748 -0.1808
   35POPC  H12X 4756   4.708   2.734   9.436 -0.0452 -0.4835  1.7934
   35POPC  H12Y 4757   4.884   2.715   9.399  0.4144  2.5137 -1.7347
   35POPC  C313 4758   4.819   2.913   9.431 -0.3247 -0.1297  0.4740
   35POPC  H13X 4759   4.907   2.959   9.481 -1.2789  2.8820 -0.5256
   35POPC  H13Y 4760   4.733   2.963   9.481 -1.6616 -2.8687  1.0678
   35POPC  C314 4761   4.831   2.954   9.285  0.5604 -0.7706 -0.1439
   35POPC  H14X 4762   4.900   2.879   9.241 -2.1733 -3.0637 -0.6665
   35POPC  H14Y 4763   4.872   3.054   9.261 -0.0444 -0.6761 -0.8253
   35POPC  C315 4764   4.707   2.926   9.191  0.1031 -0.1884  0.6670
   35POPC  H15X 4765   4.611   2.974   9.218  0.5031  0.5615  0.7776
   35POPC  H15Y 4766   4.682   2.818   9.189 -1.7957  0.2486  0.1791
   35POPC  C316 4767   4.723   2.978   9.046  0.3066  1.1316 -0.4195
   35POPC  H16X 4768   4.748   3.085   9.056  0.0200  0.8985  4.0611
   35POPC  H16Y 4769   4.637   2.972   8.976 -0.8790 -0.1974  1.1019
   35POPC  H16Z 4770   4.806   2.917   9.004 -0.9866 -2.5495  2.0577
   36POPC     N 4771   4.941   1.044  11.232 -0.4403 -0.8748  0.6612
   36POPC   C12 4772   4.859   1.010  11.107  0.5474  0.3522 -0.0924
   36POPC  H12A 4773   4.752   1.018  11.117  0.6267 -0.2895  1.2901
   36POPC  H12B 4774   4.875   0.905  11.087 -0.1004  0.5864 -1.9730
   36POPC   C13 4775   4.949   1.188  11.264 -0.8153 -0.8484  0.6880
   36POPC  H13A 4776   4.977   1.210  11.366  2.2833 -1.0896 -0.0763
   36POPC  H13B 4777   5.012   1.243  11.197 -0.3584 -1.3063  0.7450
   36POPC  H13C 4778   4.846   1.221  11.251 -0.4261 -0.8664 -2.9141
   36POPC   C14 4779   4.888   0.987  11.356  0.9313  0.0467  0.4195
   36POPC  H14A 4780   4.895   0.879  11.360  0.7402  0.0291  0.2959
   36POPC  H14B 4781   4.941   1.019  11.444  0.8132 -0.4235  0.6695
   36POPC  H14C 4782   4.781   1.001  11.364  0.9586  0.8036 -0.3920
   36POPC   C15 4783   5.080   0.985  11.216  0.2499 -0.6364 -0.8675
   36POPC  H15A 4784   5.146   1.012  11.297 -1.7257 -0.9878  0.9101
   36POPC  H15B 4785   5.128   1.030  11.130  3.2246  1.2855  1.6975
   36POPC  H15C 4786   5.087   0.877  11.212  0.6054 -0.8490  3.1675
   36POPC   C11 4787   4.891   1.084  10.982  0.6521 -0.7821 -0.1825
   36POPC  H11A 4788   4.861   1.189  10.997  0.8852 -0.6901 -0.3495
   36POPC  H11B 4789   4.815   1.052  10.908  1.2621  2.7275 -2.4278
   36POPC     P 4790   5.049   0.923  10.855 -0.6639 -0.0309  0.3140
   36POPC   O13 4791   4.974   0.818  10.924 -0.8959  0.3095  0.3965
   36POPC   O14 4792   5.195   0.911  10.846  0.3352 -0.0671 -0.4528
   36POPC   O12 4793   5.024   1.058  10.931  0.1231  0.7610 -0.6050
   36POPC   O11 4794   4.986   0.951  10.711 -0.6319 -0.6283 -0.1347
   36POPC    C1 4795   5.022   1.081  10.660 -0.5322 -0.0839 -0.2243
   36POPC    HA 4796   5.128   1.111  10.675 -0.7045 -1.0657  3.5208
   36POPC    HB 4797   4.972   1.161  10.718  0.0368 -0.1389  0.3389
   36POPC    C2 4798   4.966   1.097  10.512 -0.1387  0.4663  0.0062
   36POPC    HS 4799   4.858   1.070  10.511 -0.3458  1.3141 -0.9183
   36POPC   O21 4800   5.041   1.021  10.416 -0.5850  0.0692 -0.9204
   36POPC   C21 4801   4.995   0.895  10.402  0.4381  0.3399 -0.6364
   36POPC   O22 4802   4.894   0.857  10.457  0.3365  0.1898  0.4448
   36POPC   C22 4803   5.098   0.808  10.323  0.1215  0.1148  0.3886
   36POPC   H2R 4804   5.187   0.780  10.383  1.1740  0.9084 -0.7564
   36POPC   H2S 4805   5.128   0.877  10.240  1.5533 -1.4939 -0.4521
   36POPC    C3 4806   4.969   1.247  10.481  0.4097  0.4689  0.5075
   36POPC    HX 4807   5.074   1.283  10.482 -0.0916  1.9696 -0.3431
   36POPC    HY 4808   4.903   1.300  10.552 -1.1241 -2.8677  1.6774
   36POPC   O31 4809   4.918   1.254  10.349 -0.3280  0.0493  0.2762
   36POPC   C31 4810   4.921   1.368  10.289 -0.2537  0.1166  0.3712
   36POPC   O32 4811   4.955   1.473  10.346  0.0790  0.0189  0.7332
   36POPC   C32 4812   4.880   1.353  10.142  0.0993  0.2213 -0.2770
   36POPC   H2X 4813   4.852   1.247  10.124 -0.6918 -0.0239  2.1264
   36POPC   H2Y 4814   4.968   1.374  10.079 -0.4601  0.3956 -1.0094
   36POPC   C23 4815   5.026   0.679  10.264  0.3366 -0.2445  0.4512
   36POPC   H3R 4816   4.970   0.627  10.345 -2.9677  1.2257 -0.8166
   36POPC   H3S 4817   5.103   0.615  10.215 -0.0641 -1.0601  0.8785
   36POPC   C24 4818   4.921   0.714  10.150 -0.0900 -0.8809  0.5184
   36POPC   H4R 4819   4.971   0.746  10.056 -0.7636  0.5828  0.6503
   36POPC   H4S 4820   4.843   0.783  10.189 -1.0681  0.3289 -3.3749
   36POPC   C25 4821   4.847   0.590  10.113 -0.0738  0.3168 -0.1605
   36POPC   H5R 4822   4.757   0.621  10.055 -0.3166 -2.7283 -1.5315
   36POPC   H5S 4823   4.811   0.539  10.204  0.7710 -0.0512 -0.0312
   36POPC   C26 4824   4.942   0.493  10.034  0.7559  0.2665  0.3724
   36POPC   H6R 4825   5.010   0.449  10.110 -1.0147  0.7874  2.3153
   36POPC   H6S 4826   5.000   0.563   9.970 -1.0290  0.6980 -0.8089
   36POPC   C27 4827   4.875   0.376   9.950  0.7302 -0.2580  0.6049
   36POPC   H7R 4828   4.815   0.305  10.010  3.1659 -2.4494  0.5188
   36POPC   H7S 4829   4.955   0.316   9.902  1.6747  0.8042  0.8200
   36POPC   C28 4830   4.795   0.434   9.827 -0.4648 -0.5799 -0.2695
   36POPC   H8R 4831   4.722   0.498   9.882  0.6902  1.1097 -0.6449
   36POPC   H8S 4832   4.739   0.348   9.785 -1.4198 -1.2149  2.1934
   36POPC   C29 4833   4.867   0.510   9.721  0.5053 -0.4103 -0.2892
   36POPC   H91 4834   4.930   0.587   9.768 -0.6403  0.2514  0.1622
   36POPC  C210 4835   4.881   0.465   9.600 -1.0423  0.6862 -0.0141
   36POPC  H101 4836   4.916   0.538   9.525 -2.3552  0.7076 -0.6273
   36POPC  C211 4837   4.831   0.343   9.533  0.1389 -0.5034 -0.6785
   36POPC  H11R 4838   4.751   0.376   9.463  0.6293  2.1877 -0.0227
   36POPC  H11S 4839   4.787   0.272   9.606  0.5911  1.4029  1.5016
   36POPC  C212 4840   4.929   0.269   9.443  0.1923  0.6554 -0.3611
   36POPC  H12R 4841   4.981   0.343   9.377  0.1188  1.2302  0.2197
   36POPC  H12S 4842   4.893   0.186   9.378  2.0877 -0.9409  0.5824
   36POPC  C213 4843   5.047   0.197   9.517  0.0494  0.3923  0.6020
   36POPC  H13R 4844   5.015   0.093   9.539  1.1023  0.2217  1.3699
   36POPC  H13S 4845   5.066   0.248   9.614 -0.6161 -0.0312  0.9566
   36POPC  C214 4846   5.182   0.198   9.439 -0.8284  0.1503 -0.5769
   36POPC  H14R 4847   5.224   0.300   9.438  1.3149 -0.7131 -0.5070
   36POPC  H14S 4848   5.167   0.174   9.331 -0.6905 -0.5738 -0.4358
   36POPC  C215 4849   5.284   0.108   9.508  0.2727  0.0198 -0.0944
   36POPC  H15R 4850   5.252   0.002   9.501  0.0579 -0.1394  2.6161
   36POPC  H15S 4851   5.279   0.138   9.615  1.6310  0.3460 -0.1081
   36POPC  C216 4852   5.432   0.132   9.470 -0.3332  0.1134  0.4180
   36POPC  H16R 4853   5.462   0.238   9.482 -1.6356  0.7283 -1.5036
   36POPC  H16S 4854   5.438   0.106   9.362  2.3318  0.2445  0.4919
   36POPC  C217 4855   5.532   0.039   9.542 -0.6205 -0.6722  0.5705
   36POPC  H17R 4856   5.531   0.076   9.647  1.1346  0.8591  0.0863
   36POPC  H17S 4857   5.636   0.048   9.504 -0.2770 -1.5919  1.2666
   36POPC  C218 4858   5.509  -0.110   9.542  0.4090  0.1916 -0.3735
   36POPC  H18R 4859   5.451  -0.140   9.632  0.9247  1.7500  0.5101
   36POPC  H18S 4860   5.598  -0.176   9.544 -0.6288 -1.2074  1.5578
   36POPC  H18T 4861   5.466  -0.127   9.441 -0.2035 -1.9943  0.2267
   36POPC   C33 4862   4.780   1.466  10.100  0.0944  0.1096 -0.4683
   36POPC   H3X 4863   4.822   1.569  10.105  2.5228 -0.8402 -0.7770
   36POPC   H3Y 4864   4.698   1.472  10.175  0.0718 -1.8989 -0.3038
   36POPC   C34 4865   4.708   1.452   9.967  0.0009  0.2647  0.4945
   36POPC   H4X 4866   4.634   1.534   9.975 -0.4073 -0.2663  2.7023
   36POPC   H4Y 4867   4.648   1.359   9.955 -1.1126  0.9368  0.7380
   36POPC   C35 4868   4.812   1.463   9.851 -0.4221 -0.4139  0.0898
   36POPC   H5X 4869   4.884   1.379   9.854  1.2465  0.8953 -1.9168
   36POPC   H5Y 4870   4.860   1.561   9.872  1.8415 -1.6731  0.9112
   36POPC   C36 4871   4.764   1.466   9.708  0.4828 -0.2164  0.0012
   36POPC   H6X 4872   4.703   1.559   9.702 -0.2967 -0.5655  2.3145
   36POPC   H6Y 4873   4.695   1.385   9.678  3.2022 -2.4471 -0.4430
   36POPC   C37 4874   4.888   1.494   9.616 -0.1861  0.1692  0.4959
   36POPC   H7X 4875   4.958   1.409   9.633  1.0896  1.0476 -0.2905
   36POPC   H7Y 4876   4.944   1.583   9.653  1.6833  0.6411 -3.1798
   36POPC   C38 4877   4.855   1.502   9.469  0.0886 -0.0630  0.6281
   36POPC   H8X 4878   4.951   1.516   9.414 -0.9597  1.8587 -0.8039
   36POPC   H8Y 4879   4.781   1.582   9.447  1.8873  1.2811 -0.7054
   36POPC   C39 4880   4.805   1.362   9.426 -0.2997  0.0631 -0.2820
   36POPC   H9X 4881   4.714   1.339   9.486  0.0904 -1.5317 -0.2860
   36POPC   H9Y 4882   4.889   1.293   9.452 -0.5826  0.5204  1.9662
   36POPC  C310 4883   4.771   1.349   9.271  0.2344 -0.1432  0.0444
   36POPC  H10X 4884   4.727   1.248   9.255 -0.5499  0.1921  0.0563
   36POPC  H10Y 4885   4.868   1.351   9.217  1.9471  0.7941  2.9826
   36POPC  C311 4886   4.674   1.465   9.231 -0.1492 -0.8658  0.0117
   36POPC  H11X 4887   4.730   1.551   9.188 -1.9388  0.5963  0.5175
   36POPC  H11Y 4888   4.624   1.503   9.323  1.6925 -1.7737  1.4319
   36POPC  C312 4889   4.585   1.405   9.128 -0.6213  0.6327 -0.0953
   36POPC  H12X 4890   4.523   1.490   9.093 -1.5038  0.2640  0.5569
   36POPC  H12Y 4891   4.520   1.335   9.185  1.6902 -0.3520  1.3888
   36POPC  C313 4892   4.641   1.316   9.010  0.1453  0.0271 -0.4486
   36POPC  H13X 4893   4.669   1.217   9.052 -0.2819  0.8943  1.9892
   36POPC  H13Y 4894   4.737   1.363   8.980 -0.2737  0.7303 -0.7118
   36POPC  C314 4895   4.556   1.313   8.883  0.4068 -0.5787 -1.0731
   36POPC  H14X 4896   4.609   1.259   8.801  1.3389  0.1090 -0.9373
   36POPC  H14Y 4897   4.538   1.419   8.854  1.0920  0.4826  2.1528
   36POPC  C315 4898   4.417   1.242   8.906 -0.6559  0.1703  0.0140
   36POPC  H15X 4899   4.383   1.282   9.004 -2.5624  1.8611 -1.3174
   36POPC  H15Y 4900   4.421   1.135   8.935  3.3692  1.2656  4.1929
   36POPC  C316 4901   4.324   1.273   8.788 -0.3106 -0.9154 -0.0638
   36POPC  H16X 4902   4.365   1.240   8.690  2.2117  1.4494  0.1412
   36POPC  H16Y 4903   4.300   1.381   8.794 -0.7835 -1.0329  0.1960
   36POPC  H16Z 4904   4.225   1.222   8.794 -1.6569  1.7766  1.8171
   37POPC     N 4905   4.209   2.245   6.724  0.6824  0.8864 -0.0020
   37POPC   C12 4906   4.146   2.373   6.776  0.5059  0.1809  0.7081
   37POPC  H12A 4907   4.093   2.413   6.690  0.7163 -1.9440 -0.4416
   37POPC  H12B 4908   4.224   2.441   6.808 -0.2821  1.7808 -0.6461
   37POPC   C13 4909   4.281   2.188   6.838 -0.7037 -0.8232  0.1277
   37POPC  H13A 4910   4.366   2.249   6.861 -2.1332  0.6029  1.7835
   37POPC  H13B 4911   4.227   2.180   6.931  0.0837 -1.6117  0.5229
   37POPC  H13C 4912   4.314   2.089   6.811  1.0967 -0.7428  1.9193
   37POPC   C14 4913   4.091   2.154   6.687 -0.6118  0.2019  0.6405
   37POPC  H14A 4914   4.043   2.181   6.594  1.3264 -1.9398 -1.0778
   37POPC  H14B 4915   4.120   2.052   6.664  1.9484  0.7397  1.2560
   37POPC  H14C 4916   4.020   2.157   6.768  0.7403 -3.0799  2.0299
   37POPC   C15 4917   4.301   2.268   6.607 -0.0714  0.4671 -0.5250
   37POPC  H15A 4918   4.358   2.179   6.584  0.9074  0.4702  1.7403
   37POPC  H15B 4919   4.381   2.338   6.628  1.0306 -0.8296 -0.3176
   37POPC  H15C 4920   4.249   2.300   6.518  0.0495 -1.3373 -1.2577
   37POPC   C11 4921   4.042   2.363   6.890 -0.2623 -0.9912  0.3956
   37POPC  H11A 4922   4.046   2.457   6.949  2.4628 -0.1758 -0.9963
   37POPC  H11B 4923   4.070   2.280   6.958 -2.2606 -2.0114  0.0024
   37POPC     P 4924   3.826   2.473   6.766 -0.4871  0.3194 -0.1469
   37POPC   O13 4925   3.692   2.432   6.730  0.1603 -0.4110 -0.5689
   37POPC   O14 4926   3.906   2.540   6.656 -0.1863 -0.0532  0.4442
   37POPC   O12 4927   3.914   2.355   6.834 -0.6950 -0.3607 -0.2139
   37POPC   O11 4928   3.809   2.581   6.892  0.3082  0.6478 -0.0090
   37POPC    C1 4929   3.698   2.563   6.977  0.6975  0.2624  0.2779
   37POPC    HA 4930   3.660   2.458   6.984 -0.4388  0.7086  1.0886
   37POPC    HB 4931   3.618   2.618   6.923  1.8768  0.5918 -1.1515
   37POPC    C2 4932   3.720   2.624   7.115 -0.5092  0.3813  0.1536
   37POPC    HS 4933   3.763   2.725   7.100  1.1630 -0.1822  0.9445
   37POPC   O21 4934   3.807   2.525   7.185 -0.4761  0.6223 -0.5658
   37POPC   C21 4935   3.932   2.553   7.184 -0.1205 -0.6579  0.3998
   37POPC   O22 4936   3.990   2.648   7.130  0.5081  0.0292  0.2781
   37POPC   C22 4937   4.004   2.446   7.260 -0.2957 -0.9498 -0.5504
   37POPC   H2R 4938   4.113   2.465   7.248  0.5298 -4.4422  0.9002
   37POPC   H2S 4939   3.992   2.346   7.213  0.3422 -0.2666 -2.1960
   37POPC    C3 4940   3.586   2.639   7.187 -0.4507 -0.2144  0.4395
   37POPC    HX 4941   3.536   2.540   7.190 -0.6703 -0.1329 -0.3958
   37POPC    HY 4942   3.515   2.690   7.119 -3.6406 -0.4557  3.4835
   37POPC   O31 4943   3.592   2.697   7.317  0.0321  0.0224  0.4646
   37POPC   C31 4944   3.596   2.823   7.333 -0.4258  0.1150 -0.1474
   37POPC   O32 4945   3.578   2.912   7.250 -1.1027  0.1440 -0.1568
   37POPC   C32 4946   3.626   2.861   7.483 -0.6398  0.5893  0.2464
   37POPC   H2X 4947   3.722   2.807   7.499 -0.7880 -0.0940 -1.0917
   37POPC   H2Y 4948   3.546   2.823   7.549  0.8670 -2.8726  0.1831
   37POPC   C23 4949   3.962   2.439   7.410 -0.7082  0.4043  0.8993
   37POPC   H3R 4950   4.023   2.360   7.459  3.0457  3.8575  2.0549
   37POPC   H3S 4951   3.854   2.413   7.417 -0.3112 -1.5225  0.1111
   37POPC   C24 4952   3.978   2.571   7.486  0.1798 -0.3240  0.0974
   37POPC   H4R 4953   3.915   2.657   7.454 -0.3168 -0.3522  0.9976
   37POPC   H4S 4954   4.083   2.600   7.461  0.7523  0.0573  2.8211
   37POPC   C25 4955   3.986   2.546   7.637  1.2119 -0.6618 -0.6720
   37POPC   H5R 4956   4.015   2.639   7.690  2.1167 -0.2791 -1.8155
   37POPC   H5S 4957   4.062   2.469   7.663 -1.7339 -3.7167 -0.7161
   37POPC   C26 4958   3.856   2.500   7.711  0.3168 -0.0741 -0.0444
   37POPC   H6R 4959   3.885   2.484   7.817  1.5539 -1.9302 -0.6389
   37POPC   H6S 4960   3.832   2.397   7.678 -0.0794 -0.6588  2.0040
   37POPC   C27 4961   3.735   2.593   7.689 -0.2112 -0.0043  0.8454
   37POPC   H7R 4962   3.683   2.586   7.591 -1.4768 -2.6040  1.6586
   37POPC   H7S 4963   3.768   2.699   7.688 -1.0555  0.2775 -0.9694
   37POPC   C28 4964   3.624   2.586   7.802 -0.5067 -0.5545  1.0149
   37POPC   H8R 4965   3.547   2.644   7.748 -1.5022 -2.3765  0.4263
   37POPC   H8S 4966   3.655   2.636   7.896 -0.2523  0.2862  0.4850
   37POPC   C29 4967   3.555   2.451   7.810 -0.0159  0.6340 -0.3382
   37POPC   H91 4968   3.505   2.421   7.717 -0.1455 -5.5149  1.5128
   37POPC  C210 4969   3.544   2.363   7.909 -0.3533  0.6077 -0.2399
   37POPC  H101 4970   3.488   2.270   7.891  0.5113 -0.1589  1.0228
   37POPC  C211 4971   3.604   2.368   8.046  0.5503 -0.2541  0.1131
   37POPC  H11R 4972   3.540   2.426   8.117 -2.0731 -3.5437  0.5977
   37POPC  H11S 4973   3.709   2.403   8.047  1.3140 -2.4114 -1.4208
   37POPC  C212 4974   3.626   2.230   8.115  0.1560 -0.2842 -0.5155
   37POPC  H12R 4975   3.702   2.175   8.056  0.6026  0.4380 -0.6238
   37POPC  H12S 4976   3.530   2.176   8.100 -0.4431  0.3106  1.1286
   37POPC  C213 4977   3.682   2.231   8.261  0.2108 -0.3834  0.5446
   37POPC  H13R 4978   3.785   2.272   8.263  0.1939 -0.3532  0.8172
   37POPC  H13S 4979   3.696   2.127   8.299 -0.2901 -1.9370 -3.2664
   37POPC  C214 4980   3.602   2.305   8.366 -0.5675 -0.1684 -0.2387
   37POPC  H14R 4981   3.498   2.267   8.376  0.0489 -2.1504 -1.0461
   37POPC  H14S 4982   3.601   2.407   8.323 -0.7465  0.5830  1.5038
   37POPC  C215 4983   3.671   2.303   8.500 -0.3198 -0.1909 -0.3173
   37POPC  H15R 4984   3.779   2.326   8.489 -0.7559  2.6753  1.0876
   37POPC  H15S 4985   3.663   2.204   8.550  0.2625 -0.0884 -0.0097
   37POPC  C216 4986   3.605   2.406   8.592  0.1423  0.5758  0.0798
   37POPC  H16R 4987   3.496   2.385   8.592 -0.3165  2.8093 -0.3687
   37POPC  H16S 4988   3.608   2.501   8.535  1.6653  1.2261  1.2072
   37POPC  C217 4989   3.660   2.408   8.729 -0.2377  0.1756 -0.4486
   37POPC  H17R 4990   3.615   2.498   8.776 -1.3842  0.9931 -3.0377
   37POPC  H17S 4991   3.770   2.424   8.728 -0.0963 -0.6863  0.5511
   37POPC  C218 4992   3.627   2.282   8.813  0.1496  0.3647  0.1829
   37POPC  H18R 4993   3.655   2.299   8.919 -2.0647  0.2718  0.8052
   37POPC  H18S 4994   3.690   2.197   8.779 -0.8474 -0.2831 -0.0620
   37POPC  H18T 4995   3.518   2.260   8.802 -0.3064  2.3642  0.4821
   37POPC   C33 4996   3.644   3.014   7.501 -0.0784  0.4374  0.1916
   37POPC   H3X 4997   3.559   3.054   7.560  0.7375  2.8128 -0.1738
   37POPC   H3Y 4998   3.665   3.067   7.406 -1.5291 -0.9441 -0.9202
   37POPC   C34 4999   3.760   3.042   7.595  0.1233  0.0080 -0.5983
   37POPC   H4X 5000   3.783   3.149   7.582  0.9092 -0.0348  0.4040
   37POPC   H4Y 5001   3.854   2.989   7.567  0.5506  1.9655 -3.0962
   37POPC   C35 5002   3.730   3.002   7.741 -0.2259  0.2702 -0.4714
   37POPC   H5X 5003   3.710   2.893   7.741  1.3300 -0.0266 -0.2289
   37POPC   H5Y 5004   3.634   3.046   7.776 -0.5554  2.2824 -3.6964
   37POPC   C36 5005   3.842   3.039   7.834  0.0532 -0.4811  0.1556
   37POPC   H6X 5006   3.830   3.139   7.881  1.5984  0.3371 -1.1361
   37POPC   H6Y 5007   3.934   3.059   7.776 -0.7445  2.4690 -0.1840
   37POPC   C37 5008   3.862   2.941   7.953 -0.4278 -0.4685  0.0628
   37POPC   H7X 5009   3.763   2.896   7.972 -0.8069  0.6617  0.8526
   37POPC   H7Y 5010   3.894   3.003   8.040 -0.4591 -0.9749  0.4332
   37POPC   C38 5011   3.959   2.830   7.928  0.4010 -0.4782 -0.2706
   37POPC   H8X 5012   4.060   2.876   7.931 -0.1043  0.7757 -1.7392
   37POPC   H8Y 5013   3.933   2.779   7.833 -0.9671 -0.0526 -0.1440
   37POPC   C39 5014   3.956   2.720   8.034 -0.4272 -0.0213 -0.2443
   37POPC   H9X 5015   4.037   2.653   7.999  1.1897  2.9044 -2.2551
   37POPC   H9Y 5016   3.855   2.674   8.022  0.3318 -1.4046 -1.4548
   37POPC  C310 5017   3.987   2.761   8.178 -0.0684 -0.9029  0.4359
   37POPC  H10X 5018   3.919   2.840   8.215 -0.2049 -1.0282  0.4535
   37POPC  H10Y 5019   4.088   2.808   8.175 -0.6980  0.4497  0.2369
   37POPC  C311 5020   3.976   2.644   8.277 -0.1599 -0.7955 -0.7258
   37POPC  H11X 5021   4.015   2.555   8.223  0.2565 -1.5459  0.7710
   37POPC  H11Y 5022   3.869   2.624   8.299 -0.4789  0.3160 -1.2384
   37POPC  C312 5023   4.059   2.667   8.403  0.1161 -0.1691  0.1451
   37POPC  H12X 5024   4.063   2.777   8.415 -0.0963 -0.1270 -0.1732
   37POPC  H12Y 5025   4.162   2.629   8.386  0.4974 -0.9245  3.6839
   37POPC  C313 5026   4.015   2.601   8.533  0.4445 -0.1160 -0.3625
   37POPC  H13X 5027   3.978   2.496   8.529 -2.6357  0.8548  1.6409
   37POPC  H13Y 5028   3.930   2.650   8.585  0.0497 -0.7601 -0.3928
   37POPC  C314 5029   4.120   2.615   8.644  0.2653  0.4189  0.5375
   37POPC  H14X 5030   4.161   2.718   8.657 -1.0605  1.0111  0.1546
   37POPC  H14Y 5031   4.205   2.545   8.633  0.5776  1.2114 -2.4823
   37POPC  C315 5032   4.066   2.577   8.775 -0.3213 -0.2913 -0.6544
   37POPC  H15X 5033   4.044   2.469   8.787  1.6864 -0.5511  0.8915
   37POPC  H15Y 5034   3.977   2.642   8.792  0.3471  1.2262 -2.6399
   37POPC  C316 5035   4.161   2.612   8.881 -0.0926 -0.2720  0.1800
   37POPC  H16X 5036   4.210   2.710   8.867 -0.5286  0.1141  1.2495
   37POPC  H16Y 5037   4.243   2.537   8.880 -0.5573 -0.7768 -0.5444
   37POPC  H16Z 5038   4.120   2.608   8.985  0.3283  3.4321  0.5473
   38POPC     N 5039   5.633   6.168   6.092  0.5033  0.0233 -0.1125
   38POPC   C12 5040   5.521   6.258   6.137  0.1463 -0.0747 -0.3633
   38POPC  H12A 5041   5.493   6.332   6.063 -0.9819  2.1225  2.1638
   38POPC  H12B 5042   5.554   6.317   6.221  0.2042 -1.1846  0.3928
   38POPC   C13 5043   5.660   6.065   6.198 -0.3695  0.1667 -0.0450
   38POPC  H13A 5044   5.715   6.105   6.282  1.4160  0.8663 -1.5107
   38POPC  H13B 5045   5.571   6.011   6.229 -0.7780  0.2927 -0.9796
   38POPC  H13C 5046   5.722   5.985   6.158 -0.6572 -0.4389  0.7016
   38POPC   C14 5047   5.598   6.089   5.967  0.5077 -0.0146  0.0459
   38POPC  H14A 5048   5.665   6.013   5.928 -0.8420 -0.6015 -1.2164
   38POPC  H14B 5049   5.500   6.049   5.987  0.6895 -1.6179 -2.0285
   38POPC  H14C 5050   5.589   6.155   5.882  0.1565  2.5629  2.0631
   38POPC   C15 5051   5.759   6.242   6.072 -0.0903 -0.2231  0.0895
   38POPC  H15A 5052   5.797   6.276   6.168 -1.3778  0.8017  0.2466
   38POPC  H15B 5053   5.735   6.324   6.006  0.8695  0.9707  1.1954
   38POPC  H15C 5054   5.847   6.191   6.036 -0.0572  0.2731 -0.5377
   38POPC   C11 5055   5.385   6.193   6.181 -0.0690 -0.3763 -1.0341
   38POPC  H11A 5056   5.355   6.112   6.111 -3.7263 -0.7709  0.8705
   38POPC  H11B 5057   5.307   6.270   6.169  0.3072  0.0208 -0.9452
   38POPC     P 5058   5.389   6.251   6.430  0.1042 -0.0732  0.0405
   38POPC   O13 5059   5.249   6.306   6.436  0.0520  0.9678 -0.1079
   38POPC   O14 5060   5.500   6.344   6.431 -0.6496  0.7793  0.4859
   38POPC   O12 5061   5.400   6.147   6.311 -0.2141 -0.0628  0.0298
   38POPC   O11 5062   5.402   6.155   6.553 -0.2305  0.5707 -0.0820
   38POPC    C1 5063   5.413   6.013   6.544  0.2074 -0.3672  0.2779
   38POPC    HA 5064   5.491   5.969   6.478 -0.6003 -1.5396  0.0751
   38POPC    HB 5065   5.319   5.964   6.510 -1.1854  0.1198  3.2847
   38POPC    C2 5066   5.467   5.942   6.673  1.4766  0.2294 -0.0252
   38POPC    HS 5067   5.462   5.834   6.648 -2.8892  0.2718  0.2596
   38POPC   O21 5068   5.389   5.978   6.782 -0.9256 -0.0316 -0.0739
   38POPC   C21 5069   5.264   5.932   6.794 -0.4211  0.4458  0.7745
   38POPC   O22 5070   5.219   5.846   6.720 -0.6244  0.0424 -0.0118
   38POPC   C22 5071   5.189   5.986   6.914 -0.4580 -0.5104 -0.3051
   38POPC   H2R 5072   5.119   5.907   6.951  1.6652 -2.1214  0.4081
   38POPC   H2S 5073   5.136   6.080   6.889 -1.0648 -0.7735 -0.0143
   38POPC    C3 5074   5.607   5.982   6.690 -0.6201 -0.0059  0.0363
   38POPC    HX 5075   5.592   6.091   6.674 -0.6700  0.1417  1.0119
   38POPC    HY 5076   5.670   5.956   6.602 -1.1254  1.1170 -0.6608
   38POPC   O31 5077   5.660   5.947   6.819  0.1861  0.3474  0.0898
   38POPC   C31 5078   5.678   6.051   6.898  0.1528 -0.4588  0.5747
   38POPC   O32 5079   5.656   6.166   6.868 -0.1492  0.5316  0.4163
   38POPC   C32 5080   5.730   5.999   7.039  0.2064  0.3070  0.0806
   38POPC   H2X 5081   5.836   6.032   7.047  0.3823  0.3610 -2.1900
   38POPC   H2Y 5082   5.728   5.888   7.032 -1.8361  0.2382  1.4600
   38POPC   C23 5083   5.279   6.012   7.041  0.0868 -0.0064  0.1408
   38POPC   H3R 5084   5.340   6.092   6.993 -0.8236 -0.2305 -1.4227
   38POPC   H3S 5085   5.347   5.924   7.050  0.5405  0.4356  1.1408
   38POPC   C24 5086   5.203   6.034   7.163  0.6434  0.0617  0.0310
   38POPC   H4R 5087   5.133   5.950   7.182  1.0090 -0.2966 -0.2021
   38POPC   H4S 5088   5.141   6.126   7.169  1.2260  0.4569  0.0085
   38POPC   C25 5089   5.291   6.020   7.286  0.0561  0.1290  0.3727
   38POPC   H5R 5090   5.364   6.104   7.295  1.1158 -0.8769  1.3424
   38POPC   H5S 5091   5.334   5.918   7.286 -0.1070  0.0598  1.5700
   38POPC   C26 5092   5.207   6.039   7.420  0.0692  0.8371  0.1792
   38POPC   H6R 5093   5.130   5.960   7.434  1.5439 -0.6188  0.3313
   38POPC   H6S 5094   5.161   6.139   7.412  0.6548  0.9297 -2.5326
   38POPC   C27 5095   5.304   6.033   7.539  0.5767  0.1459 -0.3476
   38POPC   H7R 5096   5.368   6.123   7.537 -0.7237  1.1441  1.3699
   38POPC   H7S 5097   5.355   5.935   7.546 -1.9720 -1.2278 -0.2550
   38POPC   C28 5098   5.225   6.039   7.670 -0.1505  0.5344 -0.1992
   38POPC   H8R 5099   5.163   6.131   7.677 -2.8335 -1.1577 -0.7937
   38POPC   H8S 5100   5.289   6.037   7.761  0.9782 -0.3748 -0.9939
   38POPC   C29 5101   5.116   5.933   7.684  0.6230 -0.5421  0.3478
   38POPC   H91 5102   5.025   5.943   7.623  0.8885  3.1271  0.4502
   38POPC  C210 5103   5.116   5.837   7.778 -0.0885  0.3904  0.1041
   38POPC  H101 5104   5.035   5.762   7.772  0.2795 -0.1500  1.5379
   38POPC  C211 5105   5.227   5.812   7.880  0.5427 -0.1542 -0.4400
   38POPC  H11R 5106   5.328   5.841   7.846  1.2130  0.0974  1.7053
   38POPC  H11S 5107   5.235   5.705   7.907 -2.4535 -0.0193  1.1900
   38POPC  C212 5108   5.184   5.886   8.008  0.5487  0.2671 -0.2256
   38POPC  H12R 5109   5.105   5.835   8.067  1.5174  0.3703  1.1773
   38POPC  H12S 5110   5.137   5.983   7.983 -0.7659 -0.6265 -1.3037
   38POPC  C213 5111   5.302   5.922   8.102  0.4182  0.9722  0.0706
   38POPC  H13R 5112   5.278   6.016   8.156 -0.4829  0.9350 -0.2474
   38POPC  H13S 5113   5.398   5.928   8.046  0.0853  0.7777 -0.5274
   38POPC  C214 5114   5.318   5.819   8.215 -0.1667 -0.2552  0.4392
   38POPC  H14R 5115   5.374   5.738   8.164 -1.8516 -0.4043 -1.2094
   38POPC  H14S 5116   5.216   5.783   8.240 -0.1090 -0.9625 -0.3146
   38POPC  C215 5117   5.407   5.868   8.329 -0.3780 -0.0100  0.9771
   38POPC  H15R 5118   5.345   5.939   8.388  1.3498  1.1267  1.4746
   38POPC  H15S 5119   5.496   5.920   8.287  0.1249  0.8086  2.9805
   38POPC  C216 5120   5.453   5.765   8.428 -0.4973  0.1366 -0.5059
   38POPC  H16R 5121   5.526   5.818   8.493 -2.4962  3.2412 -0.7200
   38POPC  H16S 5122   5.502   5.687   8.365 -0.7123 -0.2507 -0.2014
   38POPC  C217 5123   5.339   5.705   8.512 -0.2850 -0.0460  0.1618
   38POPC  H17R 5124   5.270   5.659   8.438  1.6877 -2.9580  0.0685
   38POPC  H17S 5125   5.293   5.796   8.557  0.1534  0.5980 -0.6864
   38POPC  C218 5126   5.394   5.604   8.614 -0.3178 -0.5927 -0.6608
   38POPC  H18R 5127   5.496   5.623   8.653  0.1357 -1.5137 -1.3866
   38POPC  H18S 5128   5.388   5.509   8.556  1.7343 -0.7097 -0.7033
   38POPC  H18T 5129   5.318   5.612   8.695 -1.1129  0.2501 -1.4881
   38POPC   C33 5130   5.650   6.031   7.165 -0.1349  0.6201  0.3193
   38POPC   H3X 5131   5.551   5.982   7.179 -0.6396  1.8059  0.9954
   38POPC   H3Y 5132   5.628   6.140   7.164  0.4415  0.7306 -1.3608
   38POPC   C34 5133   5.730   5.999   7.293  0.3191 -0.2134 -0.1399
   38POPC   H4X 5134   5.820   6.064   7.284  0.8307 -0.8548  0.2504
   38POPC   H4Y 5135   5.742   5.889   7.301 -0.2927 -0.3259 -0.7731
   38POPC   C35 5136   5.647   6.035   7.421 -0.0408 -0.1272 -0.8368
   38POPC   H5X 5137   5.546   5.989   7.419 -0.8682  1.6173 -0.2279
   38POPC   H5Y 5138   5.639   6.146   7.420 -1.0102 -0.1980 -1.4376
   38POPC   C36 5139   5.725   6.012   7.557  0.1950 -0.4809 -0.8843
   38POPC   H6X 5140   5.823   6.063   7.546 -0.0192  0.4941  1.4250
   38POPC   H6Y 5141   5.742   5.907   7.590  2.2619 -0.1094 -0.7126
   38POPC   C37 5142   5.647   6.080   7.673 -0.4954 -0.1380 -0.3051
   38POPC   H7X 5143   5.550   6.026   7.683 -1.7225  2.2809  1.4380
   38POPC   H7Y 5144   5.624   6.180   7.630 -0.5881 -0.3015 -0.6397
   38POPC   C38 5145   5.725   6.095   7.796 -0.2239 -0.4810 -0.0981
   38POPC   H8X 5146   5.659   6.148   7.867 -0.6973 -1.0208 -0.1289
   38POPC   H8Y 5147   5.826   6.140   7.785 -0.2605 -0.5444 -0.7249
   38POPC   C39 5148   5.755   5.956   7.851  0.4662 -0.3787 -0.2043
   38POPC   H9X 5149   5.851   5.932   7.800  1.3779  2.0220  0.3027
   38POPC   H9Y 5150   5.673   5.885   7.831  0.0414  0.2618 -0.7899
   38POPC  C310 5151   5.789   5.962   8.002  0.7365  0.1111  0.5869
   38POPC  H10X 5152   5.704   6.008   8.057  1.2639  0.9891  0.6860
   38POPC  H10Y 5153   5.875   6.033   8.003  1.0951 -0.2320 -1.8991
   38POPC  C311 5154   5.815   5.822   8.054  0.0120 -0.2623  0.0162
   38POPC  H11X 5155   5.902   5.778   8.001  1.3193 -1.0936  2.7295
   38POPC  H11Y 5156   5.726   5.759   8.032  0.9678 -1.1996 -1.2341
   38POPC  C312 5157   5.840   5.825   8.210  0.1497  0.3045  0.0523
   38POPC  H12X 5158   5.747   5.874   8.247 -2.3160 -2.4844 -2.0811
   38POPC  H12Y 5159   5.926   5.888   8.239  0.6684  0.3407 -1.5613
   38POPC  C313 5160   5.858   5.693   8.280  0.2439 -1.0950 -0.1448
   38POPC  H13X 5161   5.959   5.653   8.257 -0.2994 -0.9543 -2.9784
   38POPC  H13Y 5162   5.792   5.617   8.233  0.6150 -0.3428 -1.8995
   38POPC  C314 5163   5.832   5.704   8.434  0.1156  0.4902  0.7006
   38POPC  H14X 5164   5.728   5.742   8.446 -0.0237 -0.0613  1.2489
   38POPC  H14Y 5165   5.913   5.768   8.476  2.6958 -1.7147 -0.7709
   38POPC  C315 5166   5.847   5.576   8.517  0.3327 -0.3991 -0.6144
   38POPC  H15X 5167   5.948   5.534   8.498  1.6062  2.3638 -0.1134
   38POPC  H15Y 5168   5.766   5.505   8.490 -1.8387  2.5141 -2.0216
   38POPC  C316 5169   5.824   5.609   8.670  0.2589  0.2524  0.3533
   38POPC  H16X 5170   5.862   5.524   8.730  2.6984  0.2754 -1.1339
   38POPC  H16Y 5171   5.718   5.642   8.685 -0.0103 -0.3826 -0.1357
   38POPC  H16Z 5172   5.881   5.700   8.697 -0.4193  0.3629  1.4782
   39POPC     N 5173   1.506   3.321   6.247 -0.0091 -0.1831 -0.1656
   39POPC   C12 5174   1.644   3.258   6.254 -1.0291  0.0011 -0.3788
   39POPC  H12A 5175   1.701   3.284   6.166  0.0595 -0.5013  0.1676
   39POPC  H12B 5176   1.644   3.150   6.251  0.1479 -0.1289  2.4142
   39POPC   C13 5177   1.505   3.466   6.220 -0.0776  0.2923  0.9483
   39POPC  H13A 5178   1.406   3.507   6.229 -0.1051  0.5190 -0.2714
   39POPC  H13B 5179   1.569   3.522   6.287 -0.3660  1.8703 -0.0685
   39POPC  H13C 5180   1.538   3.490   6.120  0.2771 -0.0934  0.9738
   39POPC   C14 5181   1.426   3.270   6.132  0.5170 -0.2788 -0.4006
   39POPC  H14A 5182   1.417   3.162   6.130  0.1649 -0.3778  3.0183
   39POPC  H14B 5183   1.324   3.307   6.133  0.7703  0.4435 -1.0980
   39POPC  H14C 5184   1.468   3.307   6.040  0.2376 -2.4350 -1.4432
   39POPC   C15 5185   1.431   3.280   6.373  0.0416 -0.2553 -0.4209
   39POPC  H15A 5186   1.480   3.299   6.467  0.5995 -0.4814 -0.6581
   39POPC  H15B 5187   1.431   3.172   6.379 -1.3321 -0.2751 -0.6915
   39POPC  H15C 5188   1.332   3.321   6.385 -0.0654 -0.5968 -0.1114
   39POPC   C11 5189   1.730   3.296   6.374 -0.1771  0.1542 -0.9176
   39POPC  H11A 5190   1.817   3.229   6.393 -1.6286 -2.2482 -2.4329
   39POPC  H11B 5191   1.666   3.284   6.464  2.8623  0.2569  1.3354
   39POPC     P 5192   1.898   3.470   6.271 -0.0416  0.2772  0.2865
   39POPC   O13 5193   1.920   3.616   6.291  0.3582  0.2924  0.0949
   39POPC   O14 5194   1.890   3.422   6.133  0.0816  0.5120  0.0071
   39POPC   O12 5195   1.779   3.427   6.364 -0.2047 -0.4735 -0.6699
   39POPC   O11 5196   2.022   3.391   6.349  0.0741  0.0646 -0.8787
   39POPC    C1 5197   2.102   3.454   6.451 -0.1255 -0.6692  0.1775
   39POPC    HA 5198   2.096   3.563   6.431 -0.2741 -1.0000 -1.7191
   39POPC    HB 5199   2.209   3.427   6.445  0.5157  1.6667  0.5399
   39POPC    C2 5200   2.041   3.426   6.587  0.1627  0.2783 -0.3008
   39POPC    HS 5201   2.021   3.317   6.580  0.6695  0.0625  1.3059
   39POPC   O21 5202   1.917   3.506   6.612 -0.4443 -1.0243 -0.3195
   39POPC   C21 5203   1.812   3.428   6.648 -0.6721 -0.4579 -0.6319
   39POPC   O22 5204   1.821   3.309   6.671 -0.1575 -0.0474  0.0176
   39POPC   C22 5205   1.684   3.516   6.659  0.1644  0.0475 -0.5583
   39POPC   H2R 5206   1.652   3.510   6.553 -1.7092 -0.0246  0.0015
   39POPC   H2S 5207   1.709   3.619   6.693 -0.7020 -0.3777  1.4685
   39POPC    C3 5208   2.139   3.458   6.705  0.2433 -0.0909 -0.1932
   39POPC    HX 5209   2.159   3.567   6.714 -0.8855 -0.0310  1.6942
   39POPC    HY 5210   2.238   3.410   6.687 -0.4254 -1.3151 -0.5858
   39POPC   O31 5211   2.092   3.417   6.835  0.3298  0.5502  0.0147
   39POPC   C31 5212   2.120   3.297   6.874  0.0160  0.5740 -0.1175
   39POPC   O32 5213   2.167   3.209   6.807  0.0887  0.0179  0.0415
   39POPC   C32 5214   2.076   3.286   7.016 -0.6123  1.2624 -0.0580
   39POPC   H2X 5215   2.088   3.388   7.058 -1.7170  0.4087  2.4542
   39POPC   H2Y 5216   1.969   3.254   7.015 -0.4799  0.8244 -0.3760
   39POPC   C23 5217   1.577   3.459   6.745 -0.5422  0.1146  0.1416
   39POPC   H3R 5218   1.542   3.358   6.716  0.3780 -0.5262  1.2394
   39POPC   H3S 5219   1.491   3.529   6.733  0.2607  0.9413 -0.9332
   39POPC   C24 5220   1.623   3.447   6.891 -0.4573 -0.0784 -0.5488
   39POPC   H4R 5221   1.715   3.386   6.903 -0.8146 -0.7796 -1.3426
   39POPC   H4S 5222   1.538   3.402   6.948 -0.0240 -0.7476 -0.4284
   39POPC   C25 5223   1.639   3.584   6.954 -0.3562 -0.0417 -0.2884
   39POPC   H5R 5224   1.542   3.636   6.946 -0.6040 -0.5131 -0.3309
   39POPC   H5S 5225   1.712   3.646   6.897  0.4918 -1.8432 -1.2009
   39POPC   C26 5226   1.693   3.571   7.098  0.0248  0.3219  0.0307
   39POPC   H6R 5227   1.705   3.675   7.133  2.3736  0.7801 -2.0159
   39POPC   H6S 5228   1.794   3.524   7.093  0.9060  1.9065  2.1277
   39POPC   C27 5229   1.603   3.497   7.192  0.1634  0.7273  0.3576
   39POPC   H7R 5230   1.612   3.390   7.167  1.9358  1.1110 -0.7460
   39POPC   H7S 5231   1.498   3.531   7.175 -0.5647 -1.4336  0.4492
   39POPC   C28 5232   1.638   3.506   7.336 -0.5958  0.7625  0.0374
   39POPC   H8R 5233   1.589   3.426   7.395 -1.2136 -0.0443 -1.5208
   39POPC   H8S 5234   1.596   3.596   7.386 -0.5194  0.7272  0.1644
   39POPC   C29 5235   1.786   3.488   7.360  0.2258  0.5158 -0.2632
   39POPC   H91 5236   1.828   3.401   7.306  0.1813  0.5550 -0.3612
   39POPC  C210 5237   1.873   3.551   7.436 -1.2058 -0.1071 -0.5366
   39POPC  H101 5238   1.978   3.520   7.437 -1.4940 -1.1048  1.6311
   39POPC  C211 5239   1.846   3.670   7.523  0.1865 -0.4590 -0.6020
   39POPC  H11R 5240   1.781   3.630   7.604  2.0505 -3.4923 -0.5567
   39POPC  H11S 5241   1.787   3.735   7.454  0.1989 -1.2478 -1.3648
   39POPC  C212 5242   1.961   3.757   7.574  0.2003 -0.1915 -0.6654
   39POPC  H12R 5243   2.011   3.709   7.661  0.4862  0.6887 -0.3387
   39POPC  H12S 5244   1.923   3.851   7.619  1.3021 -1.1939  2.5157
   39POPC  C213 5245   2.072   3.799   7.473  0.0778 -0.1773  0.3460
   39POPC  H13R 5246   2.109   3.706   7.426 -1.2328 -0.4246 -0.2280
   39POPC  H13S 5247   2.155   3.835   7.537  0.4342 -0.9911  0.3498
   39POPC  C214 5248   2.021   3.898   7.368  0.0654 -0.0033 -0.3936
   39POPC  H14R 5249   1.974   3.990   7.409 -2.3056 -1.1656 -0.4217
   39POPC  H14S 5250   1.945   3.839   7.313  1.9260 -2.4077 -0.4411
   39POPC  C215 5251   2.129   3.934   7.269 -0.4859 -1.0862 -0.2556
   39POPC  H15R 5252   2.225   3.929   7.324 -0.6890  0.7354  0.2813
   39POPC  H15S 5253   2.108   4.033   7.222  1.9361  0.4681  1.7741
   39POPC  C216 5254   2.145   3.850   7.143 -0.4249  0.2907  0.9176
   39POPC  H16R 5255   2.182   3.747   7.165 -0.0542  0.8459  2.9176
   39POPC  H16S 5256   2.218   3.905   7.080  1.5348 -1.7026  1.3980
   39POPC  C217 5257   2.018   3.827   7.058 -0.7761  0.0394  0.4775
   39POPC  H17R 5258   1.960   3.921   7.045  0.7516  0.9005 -0.2233
   39POPC  H17S 5259   1.946   3.771   7.121 -0.5901 -0.7450  0.0001
   39POPC  C218 5260   2.043   3.767   6.915 -0.6166  0.5973 -0.3415
   39POPC  H18R 5261   2.106   3.676   6.910  2.8265  2.7474  1.6320
   39POPC  H18S 5262   2.089   3.842   6.848 -1.1442  0.4970 -0.8156
   39POPC  H18T 5263   1.942   3.738   6.880 -0.5376 -0.9177  0.6669
   39POPC   C33 5264   2.154   3.180   7.094 -1.0382  0.0131  0.2787
   39POPC   H3X 5265   2.172   3.081   7.046  2.8362  0.4116  0.7645
   39POPC   H3Y 5266   2.090   3.162   7.182 -0.6214 -1.4558  0.2914
   39POPC   C34 5267   2.293   3.233   7.143 -0.0262 -0.2031  0.2492
   39POPC   H4X 5268   2.283   3.331   7.194  0.8185 -0.0192  0.0599
   39POPC   H4Y 5269   2.354   3.251   7.053  0.7026 -0.2816  0.7196
   39POPC   C35 5270   2.369   3.144   7.238  0.1693 -0.1175 -0.1731
   39POPC   H5X 5271   2.464   3.198   7.258  0.5722 -0.8541 -0.0964
   39POPC   H5Y 5272   2.378   3.045   7.189 -0.4599 -0.1919 -0.1379
   39POPC   C36 5273   2.301   3.114   7.373  0.5240 -0.0477 -0.7038
   39POPC   H6X 5274   2.357   3.037   7.431 -0.4205  1.0735  1.7955
   39POPC   H6Y 5275   2.203   3.068   7.347  0.4511 -1.0008  1.1065
   39POPC   C37 5276   2.260   3.245   7.451  0.3263  0.6830 -0.0957
   39POPC   H7X 5277   2.176   3.294   7.398  1.0278  1.0791 -0.8529
   39POPC   H7Y 5278   2.341   3.320   7.441  0.6596  0.2143 -0.9573
   39POPC   C38 5279   2.219   3.212   7.606  0.4847 -0.0377  0.2464
   39POPC   H8X 5280   2.307   3.186   7.669 -0.4082 -0.8633  1.1798
   39POPC   H8Y 5281   2.158   3.120   7.594  0.3336 -0.0098  0.7539
   39POPC   C39 5282   2.132   3.315   7.677 -0.6194  0.1819  0.3252
   39POPC   H9X 5283   2.111   3.284   7.781 -0.7184  1.1714  0.5961
   39POPC   H9Y 5284   2.034   3.319   7.625 -0.3347 -1.4746 -0.3822
   39POPC  C310 5285   2.200   3.454   7.692  0.6636  0.6192 -0.1174
   39POPC  H10X 5286   2.125   3.528   7.727 -0.7166 -2.0362  2.8930
   39POPC  H10Y 5287   2.237   3.490   7.594 -1.2251  2.6479 -0.1285
   39POPC  C311 5288   2.318   3.450   7.797 -0.4557 -0.0155 -0.7462
   39POPC  H11X 5289   2.357   3.347   7.809 -1.9280 -0.4635  0.3444
   39POPC  H11Y 5290   2.273   3.464   7.897 -1.6714 -2.0241 -0.9859
   39POPC  C312 5291   2.441   3.535   7.776 -0.0670  0.0078  0.0683
   39POPC  H12X 5292   2.476   3.513   7.672  1.4068  2.1015  0.0919
   39POPC  H12Y 5293   2.524   3.529   7.849 -1.2298 -0.3083  1.3677
   39POPC  C313 5294   2.408   3.679   7.777  0.6701 -0.5167  0.4981
   39POPC  H13X 5295   2.370   3.703   7.879 -0.7293  1.1547 -0.3976
   39POPC  H13Y 5296   2.325   3.703   7.708  0.5251  0.5766  1.0459
   39POPC  C314 5297   2.534   3.761   7.737  0.2008  0.6369 -0.0499
   39POPC  H14X 5298   2.533   3.757   7.626 -0.9092  3.2585 -0.1803
   39POPC  H14Y 5299   2.627   3.712   7.773  0.1129  0.5420  0.0463
   39POPC  C315 5300   2.529   3.907   7.785 -0.8210  0.2451 -0.8909
   39POPC  H15X 5301   2.632   3.947   7.773 -0.2648 -0.3027  1.8268
   39POPC  H15Y 5302   2.518   3.907   7.895 -0.0122  0.0825 -0.8093
   39POPC  C316 5303   2.413   3.991   7.733 -0.2545  0.1547 -0.4764
   39POPC  H16X 5304   2.312   3.947   7.741  0.6610 -1.5513  2.5602
   39POPC  H16Y 5305   2.432   4.000   7.624  1.3933 -1.2019 -0.3272
   39POPC  H16Z 5306   2.404   4.091   7.781 -0.7329 -0.8777  1.6651
   40POPC     N 5307   0.766   0.496   6.319 -0.6212 -0.6430 -0.4408
   40POPC   C12 5308   0.849   0.372   6.350  0.2256  0.2292  0.5453
   40POPC  H12A 5309   0.859   0.305   6.267  1.2819 -0.1372  0.9504
   40POPC  H12B 5310   0.784   0.310   6.410  0.9759 -1.0702  0.0216
   40POPC   C13 5311   0.623   0.454   6.312 -0.2725 -0.7204  0.1089
   40POPC  H13A 5312   0.599   0.407   6.218 -1.7288 -0.7461  0.4808
   40POPC  H13B 5313   0.599   0.400   6.403  1.8628 -0.4130  0.8806
   40POPC  H13C 5314   0.575   0.550   6.309  2.9645  0.9209 -1.8504
   40POPC   C14 5315   0.761   0.589   6.436  0.3502 -0.2918 -0.3780
   40POPC  H14A 5316   0.854   0.633   6.469  2.6049 -5.3825  0.5872
   40POPC  H14B 5317   0.685   0.660   6.408  0.7457  0.3585  0.1794
   40POPC  H14C 5318   0.726   0.529   6.519  1.7710 -0.7056 -0.0693
   40POPC   C15 5319   0.805   0.576   6.206  0.2927 -0.0970 -0.2934
   40POPC  H15A 5320   0.788   0.530   6.110 -0.7852  0.4571 -0.3793
   40POPC  H15B 5321   0.912   0.593   6.216  0.2087 -0.2507  0.9280
   40POPC  H15C 5322   0.747   0.667   6.199 -0.2104 -0.3800  0.2045
   40POPC   C11 5323   0.992   0.385   6.404 -0.5707 -0.6651  0.0425
   40POPC  H11A 5324   1.031   0.283   6.421  2.6453  0.3208 -1.1298
   40POPC  H11B 5325   0.990   0.427   6.507 -0.3695 -2.3503  0.7386
   40POPC     P 5326   1.160   0.577   6.368 -0.2033 -0.3178 -0.5608
   40POPC   O13 5327   1.220   0.641   6.244 -0.2868  0.2094 -0.5534
   40POPC   O14 5328   1.258   0.542   6.473 -0.4328 -0.3849 -0.0581
   40POPC   O12 5329   1.078   0.459   6.314 -0.5205  1.1066 -0.0271
   40POPC   O11 5330   1.054   0.673   6.441 -0.1527 -0.0869  1.1375
   40POPC    C1 5331   1.062   0.742   6.563 -0.1632  0.0717  0.1362
   40POPC    HA 5332   0.977   0.813   6.571  0.4443  0.6786  1.2818
   40POPC    HB 5333   1.155   0.802   6.563 -0.1260  0.0157 -0.0610
   40POPC    C2 5334   1.065   0.653   6.691  0.7869  0.2012  0.5349
   40POPC    HS 5335   1.147   0.578   6.686 -0.5652 -1.3266  0.9002
   40POPC   O21 5336   0.933   0.600   6.716  0.4963 -0.2217 -0.3693
   40POPC   C21 5337   0.927   0.490   6.784 -0.2148 -0.6964 -0.6575
   40POPC   O22 5338   1.024   0.429   6.819 -0.4231 -0.4343  0.8217
   40POPC   C22 5339   0.790   0.443   6.816 -0.3778  0.0125 -0.0939
   40POPC   H2R 5340   0.762   0.377   6.731 -1.5586  0.7707 -0.3086
   40POPC   H2S 5341   0.719   0.528   6.804 -0.2263  0.1674  0.1053
   40POPC    C3 5342   1.115   0.736   6.817  0.4749  0.6039  0.0622
   40POPC    HX 5343   1.089   0.843   6.800 -1.1606 -0.4099 -4.8224
   40POPC    HY 5344   1.224   0.719   6.813  0.3192 -0.3515 -0.2037
   40POPC   O31 5345   1.078   0.676   6.942  0.3554 -0.4705  0.2053
   40POPC   C31 5346   1.163   0.694   7.045 -0.6735 -0.2190  0.8532
   40POPC   O32 5347   1.282   0.721   7.032  0.2876 -0.2402 -0.3306
   40POPC   C32 5348   1.083   0.667   7.173 -0.7257 -0.0911  1.0072
   40POPC   H2X 5349   1.069   0.559   7.194 -1.9327  0.3387  2.4920
   40POPC   H2Y 5350   0.983   0.716   7.165 -0.7611 -0.2697  0.2735
   40POPC   C23 5351   0.771   0.376   6.964  0.3935 -0.3177  0.1299
   40POPC   H3R 5352   0.838   0.289   6.982  1.4445 -0.2903 -3.3287
   40POPC   H3S 5353   0.669   0.332   6.968  0.8159 -1.3400 -0.2102
   40POPC   C24 5354   0.778   0.475   7.087 -0.4064 -0.3383  0.1644
   40POPC   H4R 5355   0.693   0.546   7.083  0.7760  1.1509  0.7978
   40POPC   H4S 5356   0.871   0.534   7.074  0.7360 -1.8116  1.4687
   40POPC   C25 5357   0.794   0.411   7.227  0.0093  0.2283 -0.5690
   40POPC   H5R 5358   0.905   0.397   7.227  0.0235  0.3405 -0.6853
   40POPC   H5S 5359   0.740   0.316   7.241  0.7516 -0.0358  0.6373
   40POPC   C26 5360   0.770   0.502   7.346 -0.1029 -0.3619 -0.6966
   40POPC   H6R 5361   0.660   0.520   7.348  0.0666  0.6856  3.1861
   40POPC   H6S 5362   0.822   0.598   7.326  2.5283 -1.3777  1.0369
   40POPC   C27 5363   0.816   0.429   7.476 -0.5223 -0.0447  0.1733
   40POPC   H7R 5364   0.923   0.403   7.458 -0.0147  1.2758  1.1972
   40POPC   H7S 5365   0.751   0.340   7.487  0.1367 -0.6103 -0.4245
   40POPC   C28 5366   0.796   0.508   7.600 -0.4160 -0.4271  0.3199
   40POPC   H8R 5367   0.689   0.532   7.610 -0.2583  0.2058  0.4957
   40POPC   H8S 5368   0.863   0.595   7.585 -0.0037 -0.7264  0.3891
   40POPC   C29 5369   0.842   0.419   7.709 -0.2664 -0.4973  0.2214
   40POPC   H91 5370   0.928   0.354   7.693  0.3913  0.2642  0.6348
   40POPC  C210 5371   0.776   0.398   7.823 -0.0637 -0.1139 -0.5253
   40POPC  H101 5372   0.836   0.329   7.885  1.3913  1.1953 -0.4443
   40POPC  C211 5373   0.639   0.449   7.872  0.0658 -0.5108  0.6138
   40POPC  H11R 5374   0.587   0.366   7.925 -1.6878  0.5030  0.5215
   40POPC  H11S 5375   0.574   0.480   7.787  0.9112 -2.9071 -0.9348
   40POPC  C212 5376   0.655   0.564   7.971  0.1725 -0.1996  0.7809
   40POPC  H12R 5377   0.553   0.607   7.967 -0.2376 -1.3114 -1.5047
   40POPC  H12S 5378   0.713   0.647   7.926 -0.6653  0.6474  1.2363
   40POPC  C213 5379   0.703   0.524   8.113  0.6241  1.0848  0.2335
   40POPC  H13R 5380   0.632   0.452   8.159  1.4510 -0.6643 -1.1961
   40POPC  H13S 5381   0.680   0.610   8.180 -0.0169 -0.4582  2.0288
   40POPC  C214 5382   0.854   0.493   8.125  0.0620  0.1722 -0.3226
   40POPC  H14R 5383   0.917   0.566   8.070  0.8835  0.0479  0.4522
   40POPC  H14S 5384   0.875   0.394   8.080 -2.5719  0.4022 -2.1768
   40POPC  C215 5385   0.915   0.500   8.267  0.6743  1.1576 -0.0584
   40POPC  H15R 5386   0.877   0.593   8.314 -1.6072 -0.5184  1.4629
   40POPC  H15S 5387   1.026   0.507   8.262  0.7835 -0.7786 -0.7929
   40POPC  C216 5388   0.873   0.385   8.370  0.1201  0.2454  0.4862
   40POPC  H16R 5389   0.890   0.284   8.327 -0.4839  0.8859 -1.3035
   40POPC  H16S 5390   0.763   0.384   8.381 -0.0558  0.8139 -0.9818
   40POPC  C217 5391   0.948   0.393   8.502 -0.3443  0.5872 -0.1783
   40POPC  H17R 5392   1.058   0.383   8.490 -0.6579 -1.6642 -1.5239
   40POPC  H17S 5393   0.914   0.304   8.559  1.2724  1.3367  2.0708
   40POPC  C218 5394   0.923   0.513   8.587  0.0274  0.3839  0.2011
   40POPC  H18R 5395   0.973   0.602   8.544  2.5661 -0.2390  1.7778
   40POPC  H18S 5396   0.967   0.498   8.688 -1.6265  3.1114  1.3812
   40POPC  H18T 5397   0.814   0.533   8.580 -0.1911  0.2069  2.8038
   40POPC   C33 5398   1.145   0.736   7.296 -0.9744  0.0142 -0.6507
   40POPC   H3X 5399   1.165   0.844   7.279  0.1714 -0.3226 -1.5272
   40POPC   H3Y 5400   1.240   0.688   7.328 -1.7416 -0.3811  1.0832
   40POPC   C34 5401   1.048   0.729   7.415  0.3929 -0.0489  0.2606
   40POPC   H4X 5402   1.051   0.624   7.452  0.2032  1.2292  4.2240
   40POPC   H4Y 5403   0.942   0.743   7.387  0.3418 -0.2487  0.3491
   40POPC   C35 5404   1.088   0.822   7.534  0.0835  0.5123  0.3356
   40POPC   H5X 5405   1.052   0.926   7.517  0.0076  0.2618 -1.0305
   40POPC   H5Y 5406   1.198   0.832   7.534  0.1941 -0.4950 -1.0737
   40POPC   C36 5407   1.052   0.779   7.673 -0.8538 -0.6622  0.2323
   40POPC   H6X 5408   1.098   0.678   7.686  2.9830  0.4938 -3.1411
   40POPC   H6Y 5409   0.942   0.772   7.686 -0.8902 -1.0271 -0.2140
   40POPC   C37 5410   1.085   0.880   7.784 -0.2269 -0.0749  0.3656
   40POPC   H7X 5411   1.041   0.981   7.769 -2.1081 -1.2507 -2.4587
   40POPC   H7Y 5412   1.193   0.877   7.809 -0.8914 -0.0403  3.4796
   40POPC   C38 5413   1.034   0.822   7.917 -0.4753 -0.3318 -0.4730
   40POPC   H8X 5414   1.072   0.718   7.920 -0.5132 -0.3524 -0.7432
   40POPC   H8Y 5415   0.923   0.817   7.917 -0.4595 -1.4708  2.1892
   40POPC   C39 5416   1.068   0.914   8.033  0.0111  0.1431 -0.0987
   40POPC   H9X 5417   1.078   1.020   8.002  0.7150  0.4751  1.2394
   40POPC   H9Y 5418   1.166   0.878   8.072 -0.1294  0.9559  1.0555
   40POPC  C310 5419   0.960   0.917   8.138 -0.1923  0.0719  0.5932
   40POPC  H10X 5420   0.936   0.818   8.183  1.3277 -1.6934 -2.3612
   40POPC  H10Y 5421   0.869   0.972   8.104 -0.6886 -0.0344  1.7242
   40POPC  C311 5422   1.006   0.986   8.268  0.2940  0.1898 -0.7828
   40POPC  H11X 5423   1.014   1.091   8.231 -0.7375  0.8450  0.7623
   40POPC  H11Y 5424   1.105   0.955   8.307  0.6301  1.4415 -0.6204
   40POPC  C312 5425   0.907   0.958   8.378 -0.0012 -0.1698 -0.9050
   40POPC  H12X 5426   0.909   0.852   8.413 -0.6942  0.3997  0.9347
   40POPC  H12Y 5427   0.808   0.991   8.338 -0.1656  1.9517  1.1148
   40POPC  C313 5428   0.941   1.037   8.505  0.9662  0.1505  0.4437
   40POPC  H13X 5429   0.983   1.134   8.471 -0.6574  0.3780 -0.9588
   40POPC  H13Y 5430   1.023   0.987   8.561  2.0196  1.4511  0.0843
   40POPC  C314 5431   0.823   1.056   8.595 -0.2373 -0.1151  0.0851
   40POPC  H14X 5432   0.843   1.072   8.703  0.2637 -2.5072  0.3804
   40POPC  H14Y 5433   0.759   0.966   8.604  1.3825 -1.1010  2.1739
   40POPC  C315 5434   0.740   1.176   8.556 -0.3781  0.2165 -0.2369
   40POPC  H15X 5435   0.717   1.162   8.448  2.6103 -0.4854 -0.8160
   40POPC  H15Y 5436   0.804   1.267   8.555 -0.4723  0.2894  0.2218
   40POPC  C316 5437   0.616   1.193   8.631 -0.0053  0.1211  0.0688
   40POPC  H16X 5438   0.646   1.234   8.730  0.3738  1.8810 -0.7551
   40POPC  H16Y 5439   0.563   1.100   8.663  0.1755 -0.2416 -0.6884
   40POPC  H16Z 5440   0.548   1.262   8.576  0.0519 -0.9019 -1.3058
   41CHL1    C3 5441   6.648   4.972   9.976 -0.3189 -0.6002 -0.2367
   41CHL1    H3 5442   6.733   5.040  10.000 -0.7742 -0.5920  1.4449
   41CHL1    O3 5443   6.586   4.923  10.101 -1.2201 -0.3619  0.9285
   41CHL1   H3' 5444   6.550   5.001  10.143  0.1324  1.8681 -1.8051
   41CHL1    C4 5445   6.540   5.054   9.907 -0.2003 -0.3898 -0.5065
   41CHL1   H4A 5446   6.456   4.982   9.901  0.0940 -0.8054  0.3367
   41CHL1   H4B 5447   6.514   5.136   9.978 -1.2415 -0.3408 -0.9259
   41CHL1    C5 5448   6.585   5.089   9.768  0.0839 -0.0572  0.1984
   41CHL1    C6 5449   6.562   5.215   9.721  0.3705  0.1300 -0.1582
   41CHL1    H6 5450   6.524   5.283   9.798 -1.1000 -1.2622  0.3659
   41CHL1    C7 5451   6.585   5.261   9.576 -0.2468  0.4332 -0.1576
   41CHL1   H7A 5452   6.487   5.307   9.547 -0.7931  0.3929  1.6051
   41CHL1   H7B 5453   6.670   5.331   9.566 -0.7121  1.3716  2.1830
   41CHL1    C8 5454   6.633   5.143   9.487  0.0422  0.3930  0.2012
   41CHL1    H8 5455   6.534   5.100   9.459  0.3552  0.2059 -0.6372
   41CHL1   C14 5456   6.704   5.197   9.365  0.2768  0.1353 -0.8463
   41CHL1   H14 5457   6.797   5.237   9.412 -1.0610  0.3026  1.7794
   41CHL1   C15 5458   6.637   5.317   9.291  0.1726  0.2357 -0.4645
   41CHL1  H15A 5459   6.527   5.313   9.277  0.0658 -0.4659  0.5248
   41CHL1  H15B 5460   6.658   5.416   9.337  2.1450  0.5402 -1.9538
   41CHL1   C16 5461   6.687   5.303   9.150 -0.3773 -0.4769 -0.2834
   41CHL1  H16A 5462   6.602   5.271   9.085  0.3294  0.4070 -1.6636
   41CHL1  H16B 5463   6.714   5.400   9.105 -3.5027  0.6573  0.1291
   41CHL1   C17 5464   6.789   5.186   9.142  0.4360 -0.0471 -0.5921
   41CHL1   H17 5465   6.888   5.228   9.169  1.1378 -0.8283 -1.8906
   41CHL1   C13 5466   6.740   5.093   9.256 -0.0813 -0.1461  0.2126
   41CHL1   C18 5467   6.604   5.033   9.213  0.6981  0.8520  0.3446
   41CHL1  H18A 5468   6.618   4.946   9.145  0.2247  1.4402 -0.5278
   41CHL1  H18B 5469   6.561   4.988   9.305 -1.5326  1.9013 -0.1470
   41CHL1  H18C 5470   6.523   5.094   9.168 -3.0222 -2.5785  2.0536
   41CHL1   C12 5471   6.844   4.999   9.320 -0.0490 -0.1551  0.1331
   41CHL1  H12A 5472   6.874   4.915   9.254  0.1060 -1.0120  1.2814
   41CHL1  H12B 5473   6.933   5.063   9.334 -0.6250  0.4776  0.9387
   41CHL1   C11 5474   6.777   4.931   9.446  0.1013 -0.0067 -0.4173
   41CHL1  H11A 5475   6.697   4.865   9.406  0.2655 -0.9888  0.8387
   41CHL1  H11B 5476   6.844   4.865   9.506 -0.7645  0.4804  1.1118
   41CHL1    C9 5477   6.719   5.032   9.552  0.6015  0.1328  0.1967
   41CHL1    H9 5478   6.814   5.077   9.588  0.9778  1.2602 -2.1189
   41CHL1   C10 5479   6.651   4.982   9.682 -0.4953  0.1121 -0.0919
   41CHL1   C19 5480   6.528   4.890   9.640 -0.8946 -0.2790  0.0746
   41CHL1  H19A 5481   6.556   4.820   9.559 -1.7750 -0.7213  0.1460
   41CHL1  H19B 5482   6.481   4.830   9.721  1.0595  1.3164  2.4378
   41CHL1  H19C 5483   6.449   4.953   9.593  0.1272 -0.5384 -2.0455
   41CHL1    C1 5484   6.752   4.902   9.762  0.6590 -0.7762  0.3188
   41CHL1   H1A 5485   6.796   4.818   9.704 -2.3138 -1.0300 -1.6608
   41CHL1   H1B 5486   6.836   4.974   9.776 -0.4832  0.9912 -1.5096
   41CHL1    C2 5487   6.697   4.856   9.900 -0.7494 -0.6905 -0.5135
   41CHL1   H2A 5488   6.776   4.799   9.953  0.6989  0.2671 -1.6281
   41CHL1   H2B 5489   6.618   4.781   9.876 -1.5303 -0.0643  0.0815
   41CHL1   C20 5490   6.816   5.120   9.001 -0.2447  0.7677 -1.0214
   41CHL1   H20 5491   6.737   5.046   8.975  0.8403  0.2521 -2.9611
   41CHL1   C21 5492   6.959   5.048   9.001  0.1397  0.8150  0.2801
   41CHL1  H21A 5493   7.044   5.114   9.026 -0.0549  1.0132  0.4148
   41CHL1  H21B 5494   6.973   5.000   8.902  1.8275 -0.8361  1.2764
   41CHL1  H21C 5495   6.965   4.970   9.080 -0.2828 -0.6705 -1.1278
   41CHL1   C22 5496   6.810   5.225   8.883  0.1104 -0.3031 -0.2951
   41CHL1  H22A 5497   6.710   5.273   8.889  0.5647  0.4001  2.3374
   41CHL1  H22B 5498   6.876   5.313   8.898 -1.0808  0.3681  1.2337
   41CHL1   C23 5499   6.837   5.169   8.750 -0.5368  0.1612  0.1466
   41CHL1  H23A 5500   6.946   5.174   8.729 -0.6121  1.4222  0.0481
   41CHL1  H23B 5501   6.813   5.061   8.740 -0.8999  0.1696  0.8554
   41CHL1   C24 5502   6.766   5.251   8.635 -0.4160 -0.6729 -0.3380
   41CHL1  H24A 5503   6.656   5.235   8.640 -0.4293 -0.6472 -0.5342
   41CHL1  H24B 5504   6.785   5.360   8.643 -0.8477 -0.4862 -1.6467
   41CHL1   C25 5505   6.802   5.205   8.491 -0.3611 -0.0389  0.1019
   41CHL1   H25 5506   6.769   5.102   8.469 -3.1247  1.1870 -1.8565
   41CHL1   C26 5507   6.715   5.265   8.388 -0.0073 -0.1680  0.8671
   41CHL1  H26A 5508   6.728   5.375   8.392 -1.3697  0.0641 -0.3635
   41CHL1  H26B 5509   6.743   5.225   8.288 -0.7175  0.3983  0.4316
   41CHL1  H26C 5510   6.608   5.239   8.405 -0.1717 -0.9168 -1.1323
   41CHL1   C27 5511   6.947   5.240   8.460  0.5607  0.2479 -0.5985
   41CHL1  H27A 5512   7.018   5.178   8.518 -1.0207 -1.7611 -0.7359
   41CHL1  H27B 5513   6.965   5.217   8.353  2.3350 -3.3353  0.3901
   41CHL1  H27C 5514   6.964   5.345   8.491  0.9385 -0.3776  1.3932
   42CHL1    C3 5515   6.244   4.500   9.949 -0.5372  0.1522  0.1501
   42CHL1    H3 5516   6.263   4.608   9.971  1.2937 -0.9335  4.5769
   42CHL1    O3 5517   6.227   4.425  10.068 -0.0866 -0.1327 -0.0887
   42CHL1   H3' 5518   6.140   4.453  10.099  1.0821  0.3851  2.8954
   42CHL1    C4 5519   6.128   4.476   9.859  0.3485  0.7856 -0.4016
   42CHL1   H4A 5520   6.112   4.367   9.842 -0.1501  0.8897 -0.6340
   42CHL1   H4B 5521   6.032   4.508   9.906 -0.0580  0.3233 -0.9036
   42CHL1    C5 5522   6.146   4.543   9.724  0.2904 -0.6875  0.7903
   42CHL1    C6 5523   6.054   4.627   9.671 -0.1464 -0.4639  0.4076
   42CHL1    H6 5524   5.960   4.646   9.725  0.6207 -2.2052  2.4287
   42CHL1    C7 5525   6.071   4.693   9.538 -0.1386  0.1765  0.2964
   42CHL1   H7A 5526   5.972   4.703   9.488  0.7209  1.5499 -1.1983
   42CHL1   H7B 5527   6.097   4.801   9.543 -0.9851  0.4621 -1.1822
   42CHL1    C8 5528   6.177   4.618   9.455 -0.3002 -0.4905  0.5343
   42CHL1    H8 5529   6.134   4.521   9.421  0.7824 -1.1964  1.1557
   42CHL1   C14 5530   6.219   4.706   9.335 -0.3494  0.4181  0.5990
   42CHL1   H14 5531   6.271   4.797   9.373  0.5777  1.2878 -2.5997
   42CHL1   C15 5532   6.107   4.771   9.250 -0.0637 -0.0410  0.1342
   42CHL1  H15A 5533   6.033   4.693   9.220 -2.1308  2.0126 -0.2756
   42CHL1  H15B 5534   6.057   4.849   9.311  1.6728  1.8071 -0.7826
   42CHL1   C16 5535   6.181   4.821   9.126  0.6190 -0.5263 -0.2896
   42CHL1  H16A 5536   6.125   4.789   9.035  0.4872  2.5118 -1.3400
   42CHL1  H16B 5537   6.170   4.931   9.131 -1.2133 -0.7328  0.7248
   42CHL1   C17 5538   6.325   4.762   9.133 -1.0006  0.1921 -0.2964
   42CHL1   H17 5539   6.390   4.838   9.181  0.1253  0.3041 -1.9742
   42CHL1   C13 5540   6.318   4.656   9.240 -0.0426  0.3395  0.6605
   42CHL1   C18 5541   6.278   4.523   9.171 -0.0858 -0.4971  0.6214
   42CHL1  H18A 5542   6.359   4.480   9.108  2.5111  2.3842  1.8099
   42CHL1  H18B 5543   6.241   4.443   9.238  0.1701  0.1101  1.5023
   42CHL1  H18C 5544   6.188   4.536   9.108 -0.3751  1.1891  1.3482
   42CHL1   C12 5545   6.444   4.628   9.318  0.1918  0.8576  0.0071
   42CHL1  H12A 5546   6.520   4.580   9.253  0.2728  2.6410 -1.2602
   42CHL1  H12B 5547   6.480   4.720   9.369  0.6336 -0.3544  1.9357
   42CHL1   C11 5548   6.422   4.533   9.438  0.2672 -0.3887  0.4990
   42CHL1  H11A 5549   6.391   4.432   9.403  0.7182 -0.2405 -0.3491
   42CHL1  H11B 5550   6.520   4.516   9.486  1.8733 -0.2204 -2.5588
   42CHL1    C9 5551   6.309   4.597   9.530  0.4027  0.0303 -0.2522
   42CHL1    H9 5552   6.345   4.695   9.566  0.7469 -1.1149  2.6065
   42CHL1   C10 5553   6.279   4.509   9.654 -0.0286 -0.3226 -0.2778
   42CHL1   C19 5554   6.271   4.361   9.612  0.3740 -0.2467  0.1504
   42CHL1  H19A 5555   6.242   4.292   9.694 -0.6310 -1.7264 -1.4271
   42CHL1  H19B 5556   6.201   4.335   9.530  0.7497 -0.0457 -0.2345
   42CHL1  H19C 5557   6.366   4.308   9.588 -1.0230 -3.0595  0.6025
   42CHL1    C1 5558   6.394   4.523   9.760 -0.3032  1.1994  0.6692
   42CHL1   H1A 5559   6.488   4.493   9.710 -1.1492  0.8437 -0.7297
   42CHL1   H1B 5560   6.416   4.629   9.784 -0.7426  1.0740  1.6795
   42CHL1    C2 5561   6.371   4.445   9.883  0.5758  0.3197  0.3214
   42CHL1   H2A 5562   6.459   4.457   9.950 -0.1480 -0.1897  1.3844
   42CHL1   H2B 5563   6.355   4.337   9.866 -0.5202  0.4969  0.1682
   42CHL1   C20 5564   6.379   4.740   8.994 -0.4595 -0.9289 -0.4546
   42CHL1   H20 5565   6.314   4.673   8.934 -1.3810  0.6147 -1.2398
   42CHL1   C21 5566   6.520   4.686   9.001 -0.1515  0.1080 -0.9593
   42CHL1  H21A 5567   6.569   4.681   8.901  0.5502 -1.5225 -0.5432
   42CHL1  H21B 5568   6.521   4.582   9.041  0.1870  0.9211  1.1916
   42CHL1  H21C 5569   6.584   4.747   9.067 -1.8630 -0.9794  1.8250
   42CHL1   C22 5570   6.379   4.866   8.902 -0.3529 -0.4911  0.4132
   42CHL1  H22A 5571   6.292   4.934   8.914  1.0250  1.6960 -1.7283
   42CHL1  H22B 5572   6.469   4.922   8.936  0.1553  0.6001 -2.5973
   42CHL1   C23 5573   6.401   4.823   8.755  0.5142 -0.2200 -0.6151
   42CHL1  H23A 5574   6.502   4.782   8.736  0.3539 -0.8934 -0.0385
   42CHL1  H23B 5575   6.323   4.753   8.717  0.4627  0.2527 -1.3849
   42CHL1   C24 5576   6.399   4.937   8.658 -0.1215  0.7662 -0.4292
   42CHL1  H24A 5577   6.300   4.981   8.685  0.1186  0.6773  0.6151
   42CHL1  H24B 5578   6.480   5.009   8.685 -0.4205  0.6882  0.7300
   42CHL1   C25 5579   6.389   4.885   8.522 -0.2141  0.2889 -0.7088
   42CHL1   H25 5580   6.294   4.827   8.513 -0.0601 -0.4027  1.9555
   42CHL1   C26 5581   6.371   5.013   8.431  0.1758  0.1336 -0.4198
   42CHL1  H26A 5582   6.350   4.978   8.327  1.4645  4.6187 -2.3441
   42CHL1  H26B 5583   6.294   5.085   8.464  1.5213  1.8100 -0.8151
   42CHL1  H26C 5584   6.467   5.069   8.436  0.6579 -0.6753 -0.4953
   42CHL1   C27 5585   6.507   4.800   8.472 -0.2812 -0.4124 -0.5943
   42CHL1  H27A 5586   6.523   4.714   8.540  0.9026 -0.7607 -1.3002
   42CHL1  H27B 5587   6.480   4.760   8.371 -2.1469 -1.0778  0.1486
   42CHL1  H27C 5588   6.606   4.850   8.474 -0.7442  0.4697  1.1902
   43CHL1    C3 5589   0.264   4.545   9.972  0.5913  0.1025 -0.3884
   43CHL1    H3 5590   0.253   4.655   9.959  2.5371  0.3950  0.2169
   43CHL1    O3 5591   0.256   4.515  10.106 -0.0831  0.4975 -0.1617
   43CHL1   H3' 5592   0.319   4.575  10.145 -0.6163  0.8535  0.1715
   43CHL1    C4 5593   0.149   4.464   9.898  0.7226  0.2078 -0.7388
   43CHL1   H4A 5594   0.164   4.356   9.917  0.8791  0.2201 -0.7965
   43CHL1   H4B 5595   0.052   4.491   9.946  1.9288  1.7526  0.9119
   43CHL1    C5 5596   0.144   4.478   9.748 -0.5590 -0.2248 -0.9753
   43CHL1    C6 5597   0.026   4.513   9.694  0.0628  0.3988 -0.3080
   43CHL1    H6 5598  -0.069   4.510   9.748  0.3211 -0.4749  0.1063
   43CHL1    C7 5599   0.008   4.547   9.546 -0.3866  0.1977  0.1814
   43CHL1   H7A 5600  -0.080   4.491   9.509 -0.0374  2.4204 -4.2000
   43CHL1   H7B 5601  -0.022   4.653   9.535 -0.5626  0.1008 -0.2514
   43CHL1    C8 5602   0.136   4.513   9.465  0.5648 -0.1348 -0.3506
   43CHL1    H8 5603   0.144   4.405   9.444 -0.5241 -0.3457  0.2495
   43CHL1   C14 5604   0.134   4.591   9.335  0.4477 -0.2683  0.0270
   43CHL1   H14 5605   0.143   4.700   9.354  1.5483 -0.2376 -0.6033
   43CHL1   C15 5606   0.002   4.581   9.250  0.4751 -0.0515  0.0586
   43CHL1  H15A 5607  -0.026   4.473   9.251 -1.4649  0.4217  0.3395
   43CHL1  H15B 5608  -0.077   4.655   9.277 -0.3112 -1.1107  0.7211
   43CHL1   C16 5609   0.050   4.619   9.107  0.3732  0.0435 -0.0909
   43CHL1  H16A 5610   0.012   4.538   9.041  3.1527 -1.5208  0.1531
   43CHL1  H16B 5611   0.013   4.720   9.079  0.4145  0.9600  2.9313
   43CHL1   C17 5612   0.201   4.636   9.118 -0.0231  0.1982 -0.7847
   43CHL1   H17 5613   0.223   4.744   9.134 -2.0611  0.9920 -3.0614
   43CHL1   C13 5614   0.247   4.554   9.235 -0.5975 -0.0155  0.1636
   43CHL1   C18 5615   0.244   4.399   9.200  0.9318 -0.1519 -0.1168
   43CHL1  H18A 5616   0.152   4.368   9.147  1.2443  0.1080 -0.8313
   43CHL1  H18B 5617   0.328   4.388   9.127 -0.3413  2.0347 -1.9912
   43CHL1  H18C 5618   0.261   4.331   9.286  0.3100  0.7786  0.7528
   43CHL1   C12 5619   0.374   4.601   9.310 -0.7348 -0.7160  0.8652
   43CHL1  H12A 5620   0.462   4.576   9.247  0.3614  0.9947  1.6973
   43CHL1  H12B 5621   0.373   4.710   9.331  0.6375 -0.7179  1.0031
   43CHL1   C11 5622   0.392   4.544   9.451  0.4909  0.4423  0.4871
   43CHL1  H11A 5623   0.417   4.437   9.432  0.0767  0.2210  1.1874
   43CHL1  H11B 5624   0.482   4.589   9.498  1.4437 -0.2097 -0.6743
   43CHL1    C9 5625   0.266   4.554   9.541  0.0127 -0.1869 -0.1945
   43CHL1    H9 5626   0.262   4.661   9.570  2.0663 -0.1006 -0.1913
   43CHL1   C10 5627   0.286   4.480   9.676  0.2083 -0.1058 -0.2642
   43CHL1   C19 5628   0.326   4.334   9.639 -0.0838 -0.0914  0.0227
   43CHL1  H19A 5629   0.434   4.320   9.620 -0.0985  0.3836 -0.3887
   43CHL1  H19B 5630   0.290   4.266   9.720  1.1445 -0.9626 -0.1455
   43CHL1  H19C 5631   0.287   4.288   9.546  2.1977 -0.2803 -0.8594
   43CHL1    C1 5632   0.399   4.548   9.763 -0.7148  0.6205  0.1336
   43CHL1   H1A 5633   0.498   4.532   9.716 -0.5332  0.8698  0.4280
   43CHL1   H1B 5634   0.382   4.657   9.757  1.8855  1.2022  2.4510
   43CHL1    C2 5635   0.399   4.511   9.914 -0.7272 -0.4124  0.0566
   43CHL1   H2A 5636   0.474   4.574   9.967  0.6782 -1.6712 -0.3871
   43CHL1   H2B 5637   0.431   4.409   9.945  0.6588  0.1379  0.4916
   43CHL1   C20 5638   0.261   4.609   8.981 -0.7689 -0.0233  0.0599
   43CHL1   H20 5639   0.239   4.511   8.934 -0.8220 -0.4079  0.8878
   43CHL1   C21 5640   0.411   4.619   8.995 -0.2365  0.3160  0.2137
   43CHL1  H21A 5641   0.440   4.611   8.889  2.0353  2.1082  0.6587
   43CHL1  H21B 5642   0.465   4.543   9.056 -1.9064 -0.5670  0.6227
   43CHL1  H21C 5643   0.438   4.725   9.016 -0.6142  0.4401  0.0827
   43CHL1   C22 5644   0.231   4.717   8.870 -0.0545  0.5446  0.3967
   43CHL1  H22A 5645   0.143   4.773   8.908 -1.0018 -2.0037  2.1126
   43CHL1  H22B 5646   0.312   4.794   8.865 -0.3249  0.9244  1.7444
   43CHL1   C23 5647   0.217   4.655   8.732  0.1177  0.1561 -0.0761
   43CHL1  H23A 5648   0.297   4.580   8.715  1.4606  1.3979  0.6404
   43CHL1  H23B 5649   0.120   4.604   8.750  0.3160  0.1485  1.0448
   43CHL1   C24 5650   0.206   4.758   8.619 -0.0376 -0.3412 -0.0105
   43CHL1  H24A 5651   0.152   4.852   8.645  2.0856  0.8717  0.0915
   43CHL1  H24B 5652   0.308   4.799   8.602  0.3415 -0.8208  1.0320
   43CHL1   C25 5653   0.157   4.704   8.485 -0.0006  0.7766 -0.2294
   43CHL1   H25 5654   0.173   4.789   8.416  0.9667 -0.4257 -1.5261
   43CHL1   C26 5655   0.241   4.588   8.426  0.0398  0.9177 -0.7275
   43CHL1  H26A 5656   0.206   4.565   8.323 -0.5961 -0.5926 -0.1950
   43CHL1  H26B 5657   0.348   4.619   8.426  0.2897  0.2145  2.0052
   43CHL1  H26C 5658   0.232   4.497   8.490 -0.3723  1.2700 -0.2843
   43CHL1   C27 5659   0.016   4.650   8.483 -0.3696 -0.5439  0.2292
   43CHL1  H27A 5660   0.018   4.556   8.542  0.7267 -0.1212  0.8837
   43CHL1  H27B 5661  -0.065   4.716   8.523  0.2141  0.1184  0.3285
   43CHL1  H27C 5662  -0.013   4.633   8.378  0.0732 -0.1712  0.0443
   44CHL1    C3 5663   0.105   5.315  10.092  0.9470 -0.1461  0.1765
   44CHL1    H3 5664   0.014   5.282  10.038  0.0602  1.8956  0.3676
   44CHL1    O3 5665   0.071   5.349  10.226  0.1691  0.0979  0.2783
   44CHL1   H3' 5666   0.030   5.267  10.255 -0.7565  0.1604 -0.8056
   44CHL1    C4 5667   0.206   5.205  10.084  0.4598  1.5313  0.2419
   44CHL1   H4A 5668   0.297   5.228  10.143  0.0791  1.6500  0.7852
   44CHL1   H4B 5669   0.155   5.117  10.128 -0.1859  1.7511 -0.0665
   44CHL1    C5 5670   0.251   5.181   9.942  0.2761  0.2034 -0.6010
   44CHL1    C6 5671   0.250   5.050   9.897  0.1253  0.2743  0.6179
   44CHL1    H6 5672   0.209   4.977   9.968  0.6160  0.9243  1.5870
   44CHL1    C7 5673   0.292   5.010   9.756 -0.2991  1.1457  0.4819
   44CHL1   H7A 5674   0.354   4.918   9.753 -0.1490  1.2618 -0.0914
   44CHL1   H7B 5675   0.202   4.991   9.693  0.2385 -4.0629  1.0315
   44CHL1    C8 5676   0.360   5.128   9.677  0.0652  0.5458 -0.4814
   44CHL1    H8 5677   0.465   5.139   9.712 -0.2250  0.6844  0.3630
   44CHL1   C14 5678   0.360   5.093   9.530 -0.1299 -0.8311  0.7179
   44CHL1   H14 5679   0.253   5.093   9.503 -0.2146  0.1764  1.0426
   44CHL1   C15 5680   0.412   4.958   9.489 -0.9797  0.6067  0.0827
   44CHL1  H15A 5681   0.504   4.956   9.551 -1.5327  0.8569  0.9196
   44CHL1  H15B 5682   0.337   4.881   9.517 -0.2998 -0.1897 -0.2746
   44CHL1   C16 5683   0.432   4.971   9.339 -0.4768  0.2939  0.2224
   44CHL1  H16A 5684   0.519   4.914   9.300 -1.2010 -1.3397  0.9352
   44CHL1  H16B 5685   0.338   4.930   9.296 -0.3906 -1.4495  1.6540
   44CHL1   C17 5686   0.436   5.120   9.308 -0.8861 -0.1280  0.4334
   44CHL1   H17 5687   0.334   5.141   9.269 -0.5756 -0.4511 -0.5887
   44CHL1   C13 5688   0.435   5.193   9.446 -0.3075  0.5080  0.4264
   44CHL1   C18 5689   0.586   5.205   9.481  0.7956 -0.4806  0.7739
   44CHL1  H18A 5690   0.634   5.106   9.493 -0.6911 -1.1564  1.2971
   44CHL1  H18B 5691   0.649   5.264   9.411 -0.3764  1.9554  1.6917
   44CHL1  H18C 5692   0.595   5.263   9.576 -0.4056 -0.4324  0.8642
   44CHL1   C12 5693   0.365   5.331   9.463  0.0624 -0.2772  0.0268
   44CHL1  H12A 5694   0.417   5.411   9.407  1.6782 -1.3374 -0.0148
   44CHL1  H12B 5695   0.263   5.328   9.419 -0.1370  2.4832  0.2506
   44CHL1   C11 5696   0.353   5.372   9.609  0.0991  0.3129 -0.1723
   44CHL1  H11A 5697   0.448   5.406   9.655 -0.5822  0.1451  1.3572
   44CHL1  H11B 5698   0.299   5.468   9.625  3.5260  2.4037 -0.4612
   44CHL1    C9 5699   0.295   5.258   9.702 -0.6373  0.6410  0.9294
   44CHL1    H9 5700   0.187   5.243   9.680 -0.3356 -1.4879  0.8291
   44CHL1   C10 5701   0.290   5.296   9.847 -0.0517  0.1983 -0.0963
   44CHL1   C19 5702   0.434   5.339   9.907  0.0640  0.7077  0.4215
   44CHL1  H19A 5703   0.512   5.264   9.881 -1.8811 -1.0189 -0.5569
   44CHL1  H19B 5704   0.467   5.430   9.853  0.0153  0.3517 -0.2255
   44CHL1  H19C 5705   0.443   5.361  10.015  0.7461 -1.0917  0.7600
   44CHL1    C1 5706   0.193   5.420   9.879  0.3598 -0.3641  0.4089
   44CHL1   H1A 5707   0.240   5.514   9.843 -0.3131  0.9806  2.9143
   44CHL1   H1B 5708   0.093   5.407   9.833  0.2617  1.9743 -0.1429
   44CHL1    C2 5709   0.162   5.439  10.029 -0.0552  0.1514 -0.3229
   44CHL1   H2A 5710   0.098   5.530  10.037  2.7155  2.2156 -0.6369
   44CHL1   H2B 5711   0.261   5.461  10.075  0.2003 -1.1434 -0.2452
   44CHL1   C20 5712   0.522   5.165   9.191 -0.1073  0.4901  0.0109
   44CHL1   H20 5713   0.627   5.167   9.228 -0.2909 -1.1408  0.6550
   44CHL1   C21 5714   0.481   5.309   9.152 -0.0143 -0.7031  0.3558
   44CHL1  H21A 5715   0.518   5.340   9.051 -0.2839 -2.1577 -0.2123
   44CHL1  H21B 5716   0.531   5.369   9.230 -0.6277 -1.3570  1.2633
   44CHL1  H21C 5717   0.373   5.333   9.158  0.4967  2.1653 -0.8416
   44CHL1   C22 5718   0.521   5.073   9.065 -1.1752 -0.3458  0.1494
   44CHL1  H22A 5719   0.511   4.966   9.091  4.5498 -1.6413 -2.0969
   44CHL1  H22B 5720   0.429   5.099   9.008 -1.2715 -0.1873  0.3791
   44CHL1   C23 5721   0.641   5.089   8.974 -0.3403 -0.3724 -0.1960
   44CHL1  H23A 5722   0.640   5.188   8.924 -0.2791  0.1399  0.8137
   44CHL1  H23B 5723   0.729   5.098   9.040  0.6749  0.5702 -1.6527
   44CHL1   C24 5724   0.671   4.982   8.871  0.5017  0.4686 -0.0485
   44CHL1  H24A 5725   0.774   4.996   8.832 -0.5344  2.6500 -2.1534
   44CHL1  H24B 5726   0.670   4.879   8.913  0.7872  0.7046  0.5514
   44CHL1   C25 5727   0.571   4.971   8.756 -0.2502  0.1234  0.1241
   44CHL1   H25 5728   0.474   4.982   8.809 -0.8307  1.8601 -1.2490
   44CHL1   C26 5729   0.578   5.084   8.648  0.3095 -0.8099 -0.0882
   44CHL1  H26A 5730   0.674   5.091   8.593  0.1168  2.0034 -0.1782
   44CHL1  H26B 5731   0.501   5.068   8.569 -0.5955 -1.0170  0.8272
   44CHL1  H26C 5732   0.550   5.185   8.685 -0.2800 -0.8639 -0.3738
   44CHL1   C27 5733   0.583   4.828   8.693 -0.5385 -0.2904 -0.4321
   44CHL1  H27A 5734   0.551   4.753   8.768  1.0894  0.2844  0.8572
   44CHL1  H27B 5735   0.535   4.827   8.593 -1.9833  1.3706  0.2148
   44CHL1  H27C 5736   0.688   4.802   8.669 -1.3394 -2.0199 -2.1977
   45CHL1    C3 5737   3.941   3.780  10.144 -0.5680  0.1289  0.2349
   45CHL1    H3 5738   3.855   3.710  10.149 -0.4856 -0.0460 -0.7359
   45CHL1    O3 5739   3.957   3.826  10.274  0.7016  0.2576 -0.5211
   45CHL1   H3' 5740   3.882   3.884  10.286  0.2943 -0.2604 -0.5138
   45CHL1    C4 5741   4.065   3.696  10.097 -0.5188 -0.0852  1.3878
   45CHL1   H4A 5742   4.156   3.758  10.105  0.3849 -0.6337 -3.1748
   45CHL1   H4B 5743   4.070   3.608  10.165  3.0400  0.8840  2.4494
   45CHL1    C5 5744   4.038   3.657   9.949 -0.1100  0.5395  0.3895
   45CHL1    C6 5745   4.051   3.524   9.916  0.2638  0.5075  0.2288
   45CHL1    H6 5746   4.080   3.449   9.991 -0.9179  1.3710  1.5864
   45CHL1    C7 5747   4.043   3.471   9.777  0.5862 -0.1147  0.0085
   45CHL1   H7A 5748   4.128   3.402   9.757  0.2208 -0.3822 -0.6588
   45CHL1   H7B 5749   3.943   3.426   9.762  0.7676 -1.1729  1.8995
   45CHL1    C8 5750   4.044   3.585   9.665  0.5531  0.8941  0.0973
   45CHL1    H8 5751   3.979   3.545   9.584  2.5923 -0.8679 -0.7060
   45CHL1   C14 5752   4.174   3.610   9.599 -0.4434  0.6958  0.0316
   45CHL1   H14 5753   4.245   3.621   9.684 -0.3119 -0.1696  0.0441
   45CHL1   C15 5754   4.224   3.487   9.522 -0.7227 -0.3732 -0.2571
   45CHL1  H15A 5755   4.335   3.478   9.533 -0.5102  2.3925  0.0339
   45CHL1  H15B 5756   4.185   3.387   9.552 -1.5503  0.0956  0.2143
   45CHL1   C16 5757   4.186   3.503   9.379  0.2509  0.7072  0.1634
   45CHL1  H16A 5758   4.260   3.458   9.310 -0.8625 -2.2628  0.8542
   45CHL1  H16B 5759   4.092   3.444   9.368 -0.0130  1.2064 -0.2729
   45CHL1   C17 5760   4.140   3.652   9.364  0.0020 -0.0267  1.0030
   45CHL1   H17 5761   4.031   3.639   9.381  0.2361  1.4106  3.8786
   45CHL1   C13 5762   4.180   3.724   9.495 -0.6773 -0.2792 -0.6913
   45CHL1   C18 5763   4.322   3.766   9.479  0.8250 -0.0424 -0.2486
   45CHL1  H18A 5764   4.359   3.814   9.572 -0.6294 -0.0820  0.3619
   45CHL1  H18B 5765   4.400   3.692   9.450 -1.1712 -2.9598  1.5259
   45CHL1  H18C 5766   4.327   3.848   9.404 -0.0496  2.0300  1.9109
   45CHL1   C12 5767   4.093   3.845   9.523  0.5964 -0.1318 -0.2970
   45CHL1  H12A 5768   4.155   3.920   9.578 -0.0651 -0.4965  0.9460
   45CHL1  H12B 5769   4.085   3.887   9.420  2.0368 -0.7787 -0.6857
   45CHL1   C11 5770   3.956   3.812   9.589 -0.0862  0.0473  0.7660
   45CHL1  H11A 5771   3.909   3.906   9.625  0.2152 -0.8130  3.5386
   45CHL1  H11B 5772   3.883   3.775   9.514  1.1083 -0.1703 -0.2967
   45CHL1    C9 5773   3.969   3.714   9.709  0.4377 -0.2314  0.0290
   45CHL1    H9 5774   3.869   3.667   9.726 -0.3849  1.2057 -0.7207
   45CHL1   C10 5775   4.011   3.770   9.851  0.0041 -0.6261 -0.1944
   45CHL1   C19 5776   4.137   3.858   9.852 -0.2491 -0.3347 -0.2074
   45CHL1  H19A 5777   4.178   3.876   9.953  0.2639 -0.8873 -0.3116
   45CHL1  H19B 5778   4.214   3.801   9.795 -0.7898  0.6465 -1.9721
   45CHL1  H19C 5779   4.117   3.953   9.797 -1.3211 -0.3726  0.1182
   45CHL1    C1 5780   3.897   3.864   9.908 -0.2919 -0.3409  0.2420
   45CHL1   H1A 5781   3.888   3.950   9.837 -2.1906  0.2393  1.1756
   45CHL1   H1B 5782   3.796   3.821   9.895 -0.0921 -1.1349  1.3130
   45CHL1    C2 5783   3.912   3.893  10.058 -0.0596 -0.0130 -0.2006
   45CHL1   H2A 5784   3.827   3.954  10.095 -0.3469  0.3781 -1.4556
   45CHL1   H2B 5785   3.995   3.967  10.064 -1.0048  1.0385  0.1451
   45CHL1   C20 5786   4.159   3.724   9.233 -0.0588  0.4840 -0.2739
   45CHL1   H20 5787   4.194   3.828   9.246 -2.0932  1.4811 -2.4459
   45CHL1   C21 5788   4.017   3.725   9.168 -0.2004  0.2395 -1.0096
   45CHL1  H21A 5789   3.980   3.620   9.161 -1.1407  0.4249  0.7748
   45CHL1  H21B 5790   4.031   3.773   9.069 -3.2303 -0.5764 -1.9024
   45CHL1  H21C 5791   3.945   3.789   9.225 -1.0282  0.0277 -1.8046
   45CHL1   C22 5792   4.273   3.662   9.148  0.5675  0.2606 -0.0654
   45CHL1  H22A 5793   4.356   3.624   9.211 -1.1971 -1.6066  1.1937
   45CHL1  H22B 5794   4.224   3.567   9.116 -0.1312 -0.0821  1.9576
   45CHL1   C23 5795   4.328   3.734   9.029  0.1672 -0.0249  0.1628
   45CHL1  H23A 5796   4.244   3.757   8.960 -1.0872 -2.0274  0.9783
   45CHL1  H23B 5797   4.374   3.826   9.070 -1.5728  0.1774  1.7340
   45CHL1   C24 5798   4.437   3.661   8.947 -0.1515  0.5497  0.3146
   45CHL1  H24A 5799   4.511   3.633   9.026 -0.2528  1.3793  0.7083
   45CHL1  H24B 5800   4.416   3.560   8.907  0.8087  1.1685 -1.7979
   45CHL1   C25 5801   4.510   3.745   8.836  0.0073  0.2356 -0.5337
   45CHL1   H25 5802   4.589   3.671   8.811  1.7367  0.5977  3.4347
   45CHL1   C26 5803   4.418   3.774   8.712  0.1765 -0.2275 -0.1739
   45CHL1  H26A 5804   4.485   3.813   8.632  0.1558  1.7216  0.7240
   45CHL1  H26B 5805   4.360   3.685   8.682  1.6898 -2.0920  2.2326
   45CHL1  H26C 5806   4.348   3.853   8.747 -1.2938 -1.2855 -0.6750
   45CHL1   C27 5807   4.581   3.869   8.893  0.4938  0.2772 -0.5088
   45CHL1  H27A 5808   4.536   3.932   8.973  3.0636 -0.2914  1.4495
   45CHL1  H27B 5809   4.671   3.847   8.954  0.5912 -1.7217 -1.3363
   45CHL1  H27C 5810   4.630   3.923   8.809 -0.2249  0.0827 -1.0589
   46CHL1    C3 5811   0.501   1.404  10.078 -0.1601 -0.1761  0.3114
   46CHL1    H3 5812   0.417   1.332  10.081  1.0726 -1.6463  0.3951
   46CHL1    O3 5813   0.551   1.452  10.203  0.2194  0.6275 -0.2821
   46CHL1   H3' 5814   0.576   1.373  10.252 -0.4436  0.1076 -0.7696
   46CHL1    C4 5815   0.620   1.337  10.010  0.3344  0.2737  0.2400
   46CHL1   H4A 5816   0.718   1.389  10.024 -0.2313  2.0307 -2.0138
   46CHL1   H4B 5817   0.635   1.244  10.068 -0.8198  0.2059  0.4349
   46CHL1    C5 5818   0.589   1.295   9.870  0.3814  0.5628 -0.5007
   46CHL1    C6 5819   0.601   1.171   9.820  0.6300  0.0089 -0.8103
   46CHL1    H6 5820   0.621   1.085   9.886 -0.5588 -0.4392 -1.0232
   46CHL1    C7 5821   0.576   1.147   9.673 -0.2874 -0.8593 -0.0403
   46CHL1   H7A 5822   0.653   1.073   9.641  2.0361  0.9315  1.2070
   46CHL1   H7B 5823   0.479   1.094   9.659 -0.4952 -0.1203 -1.4567
   46CHL1    C8 5824   0.567   1.267   9.577 -0.5159 -0.1633 -0.1815
   46CHL1    H8 5825   0.669   1.309   9.563  0.4568 -1.7726  1.8567
   46CHL1   C14 5826   0.503   1.224   9.441 -0.3418  0.1687  0.3466
   46CHL1   H14 5827   0.404   1.189   9.474  0.5959 -0.6364  2.3703
   46CHL1   C15 5828   0.571   1.103   9.373 -1.2770  0.3736  0.3331
   46CHL1  H15A 5829   0.681   1.112   9.382 -1.2678  2.2590 -1.3965
   46CHL1  H15B 5830   0.541   1.004   9.413  0.8945 -0.0916  0.8329
   46CHL1   C16 5831   0.523   1.117   9.231  0.5754  1.1068  0.0814
   46CHL1  H16A 5832   0.606   1.122   9.158  0.6212  0.4975  0.0881
   46CHL1  H16B 5833   0.479   1.017   9.208 -1.7419  2.0136  0.3843
   46CHL1   C17 5834   0.433   1.248   9.213  0.0079 -0.4451  0.1366
   46CHL1   H17 5835   0.327   1.220   9.232 -0.2228  0.3964  0.1078
   46CHL1   C13 5836   0.481   1.335   9.335 -0.8204  0.3367 -0.5416
   46CHL1   C18 5837   0.623   1.402   9.303  0.5229  0.0747 -0.0457
   46CHL1  H18A 5838   0.674   1.420   9.400  0.8558 -1.5806  0.0920
   46CHL1  H18B 5839   0.686   1.344   9.233 -0.6488 -0.5877 -0.5607
   46CHL1  H18C 5840   0.603   1.496   9.247  2.8600  0.2196 -0.6749
   46CHL1   C12 5841   0.395   1.440   9.399  0.7647  0.0080 -0.0445
   46CHL1  H12A 5842   0.390   1.529   9.332 -0.3381 -0.0125  0.0039
   46CHL1  H12B 5843   0.291   1.401   9.404  1.6942 -2.6869 -0.8430
   46CHL1   C11 5844   0.460   1.492   9.533 -0.2995 -0.0771  0.6279
   46CHL1  H11A 5845   0.553   1.544   9.502 -0.3653 -0.8910 -1.0099
   46CHL1  H11B 5846   0.393   1.572   9.571 -2.4495 -2.0796  1.2217
   46CHL1    C9 5847   0.480   1.374   9.636 -0.2795  0.0120  0.3355
   46CHL1    H9 5848   0.383   1.325   9.662 -0.4514  0.5855  0.7765
   46CHL1   C10 5849   0.544   1.416   9.777 -0.5939  0.6423 -0.1597
   46CHL1   C19 5850   0.664   1.505   9.750  0.0951 -0.0134  0.1441
   46CHL1  H19A 5851   0.632   1.604   9.711 -0.1385  0.5469  1.7142
   46CHL1  H19B 5852   0.725   1.528   9.839  0.3037  2.4323 -0.6144
   46CHL1  H19C 5853   0.736   1.468   9.674  0.2750  1.1785 -0.2614
   46CHL1    C1 5854   0.435   1.500   9.847 -0.3557  0.5100 -0.2184
   46CHL1   H1A 5855   0.405   1.592   9.793  1.5665  1.9846  1.1758
   46CHL1   H1B 5856   0.350   1.428   9.851 -0.8241  0.9987 -1.3151
   46CHL1    C2 5857   0.459   1.529   9.997 -0.0095  0.0306 -0.0004
   46CHL1   H2A 5858   0.364   1.566  10.042  0.8249  0.7152  1.2180
   46CHL1   H2B 5859   0.541   1.603  10.006 -0.4389  0.7520 -1.8159
   46CHL1   C20 5860   0.445   1.318   9.074 -0.1040  0.6350  0.0527
   46CHL1   H20 5861   0.551   1.351   9.070  0.0618  0.2150  0.8395
   46CHL1   C21 5862   0.349   1.440   9.068 -0.3385 -0.4252 -0.0045
   46CHL1  H21A 5863   0.350   1.529   9.134 -1.5693  0.1142 -0.6965
   46CHL1  H21B 5864   0.244   1.402   9.072  0.0298 -1.5841 -1.0537
   46CHL1  H21C 5865   0.352   1.485   8.967  0.5399  0.2087  0.2976
   46CHL1   C22 5866   0.421   1.216   8.960 -0.0713 -0.4660 -0.2428
   46CHL1  H22A 5867   0.404   1.282   8.873  1.9344  2.1896  1.2967
   46CHL1  H22B 5868   0.519   1.162   8.956 -0.3682 -1.0963  0.7014
   46CHL1   C23 5869   0.304   1.107   8.972 -0.5501 -0.7003 -0.4000
   46CHL1  H23A 5870   0.325   1.042   9.060 -0.8003  0.2957  0.4142
   46CHL1  H23B 5871   0.214   1.168   8.997  1.3624  1.5121  1.3498
   46CHL1   C24 5872   0.283   1.024   8.845 -0.3091 -0.3529 -0.1615
   46CHL1  H24A 5873   0.385   0.980   8.840 -1.1751 -2.5711  0.9076
   46CHL1  H24B 5874   0.220   0.933   8.849 -0.3054 -0.4114 -1.2143
   46CHL1   C25 5875   0.248   1.099   8.712  0.5681 -0.3006 -0.3534
   46CHL1   H25 5876   0.322   1.181   8.700 -0.1984  0.2281 -1.4748
   46CHL1   C26 5877   0.243   0.997   8.597  0.5951 -0.6348 -0.2308
   46CHL1  H26A 5878   0.347   0.974   8.566  1.2164  1.6873  0.0524
   46CHL1  H26B 5879   0.205   0.898   8.630 -1.4559  0.7436  1.6832
   46CHL1  H26C 5880   0.185   1.033   8.509 -0.5104 -0.3788  0.5903
   46CHL1   C27 5881   0.102   1.156   8.732  0.1762 -0.0886  0.6450
   46CHL1  H27A 5882   0.064   1.200   8.637 -1.1152 -1.5495  0.4511
   46CHL1  H27B 5883   0.037   1.071   8.762  2.3843 -1.3500  2.0472
   46CHL1  H27C 5884   0.106   1.237   8.807 -0.9482 -0.1694  0.7925
   47CHL1    C3 5885   1.036   4.510  10.095 -0.1614 -0.0049  0.0895
   47CHL1    H3 5886   1.088   4.607  10.107  0.7854 -0.4517 -0.3061
   47CHL1    O3 5887   1.028   4.439  10.218 -0.4632 -0.2546  0.4010
   47CHL1   H3' 5888   0.964   4.369  10.207 -1.2532  0.6043 -0.5531
   47CHL1    C4 5889   0.890   4.537  10.049  0.2812 -0.4007 -0.6171
   47CHL1   H4A 5890   0.828   4.445  10.062  0.4252 -0.1816  1.9161
   47CHL1   H4B 5891   0.843   4.610  10.118 -1.7440 -1.6353 -0.6280
   47CHL1    C5 5892   0.882   4.589   9.906 -0.1613 -0.4193 -0.1297
   47CHL1    C6 5893   0.825   4.712   9.879 -0.5777 -0.1256  0.4285
   47CHL1    H6 5894   0.776   4.766   9.962 -2.0920 -3.0074  1.4681
   47CHL1    C7 5895   0.808   4.768   9.737 -0.2928 -0.2391  0.2277
   47CHL1   H7A 5896   0.710   4.819   9.724 -0.5104 -0.8402 -0.5126
   47CHL1   H7B 5897   0.883   4.848   9.719  0.1002 -1.0143 -1.7252
   47CHL1    C8 5898   0.835   4.662   9.632 -0.3229  0.3296  0.1221
   47CHL1    H8 5899   0.741   4.602   9.630  0.3299 -0.6985 -0.4043
   47CHL1   C14 5900   0.863   4.735   9.495 -0.3557  0.0912 -0.6219
   47CHL1   H14 5901   0.964   4.781   9.500 -1.0270  1.4952  0.3523
   47CHL1   C15 5902   0.777   4.852   9.451  0.0951  0.2750  0.0700
   47CHL1  H15A 5903   0.673   4.816   9.457  0.5787 -1.8665 -3.3341
   47CHL1  H15B 5904   0.814   4.939   9.509  1.2124  1.3533 -2.1757
   47CHL1   C16 5905   0.814   4.872   9.301 -0.1034  0.6135  0.2722
   47CHL1  H16A 5906   0.718   4.884   9.248  1.9478  2.8606 -3.1583
   47CHL1  H16B 5907   0.872   4.965   9.280  0.8687  0.4306  2.0590
   47CHL1   C17 5908   0.901   4.749   9.258 -0.5010  0.0506  0.1106
   47CHL1   H17 5909   1.009   4.775   9.266 -0.1663 -0.7969 -1.4166
   47CHL1   C13 5910   0.889   4.647   9.376 -0.0339  0.4792  0.4098
   47CHL1   C18 5911   0.761   4.565   9.344 -0.2072  0.4248 -0.0825
   47CHL1  H18A 5912   0.785   4.500   9.257 -3.0646  0.3243 -0.8635
   47CHL1  H18B 5913   0.735   4.497   9.429 -0.4792 -1.1603 -1.3970
   47CHL1  H18C 5914   0.679   4.635   9.320  0.5597  0.8898 -1.4081
   47CHL1   C12 5915   1.004   4.555   9.411 -0.2306 -0.6132 -0.0334
   47CHL1  H12A 5916   1.027   4.478   9.335 -2.1565 -0.7026 -0.5560
   47CHL1  H12B 5917   1.094   4.620   9.422 -0.1948 -0.4002 -1.4709
   47CHL1   C11 5918   0.986   4.484   9.538 -0.6598 -0.1897 -0.2391
   47CHL1  H11A 5919   0.900   4.415   9.528  0.3534 -1.3524 -1.0282
   47CHL1  H11B 5920   1.076   4.420   9.555 -1.6063 -1.3438  0.5292
   47CHL1    C9 5921   0.957   4.575   9.664  0.2827 -0.0677  0.9232
   47CHL1    H9 5922   1.038   4.649   9.679  0.8201 -0.4802  0.1041
   47CHL1   C10 5923   0.941   4.499   9.794  0.2353  0.1175 -0.1058
   47CHL1   C19 5924   0.857   4.368   9.779  0.2517  0.2785  0.0842
   47CHL1  H19A 5925   0.842   4.322   9.879 -0.8372 -0.6610 -0.4912
   47CHL1  H19B 5926   0.755   4.385   9.740  0.2105 -1.7370 -0.7409
   47CHL1  H19C 5927   0.913   4.300   9.711 -0.6181  0.5422 -0.9089
   47CHL1    C1 5928   1.076   4.464   9.841 -0.3966 -0.3237 -0.0574
   47CHL1   H1A 5929   1.124   4.380   9.785  0.8081 -0.1201  0.6720
   47CHL1   H1B 5930   1.148   4.547   9.830 -0.0752 -0.9468 -3.1208
   47CHL1    C2 5931   1.090   4.414   9.987 -0.1455 -0.2691  0.4356
   47CHL1   H2A 5932   1.200   4.403   9.997  0.2767  1.3331 -1.9972
   47CHL1   H2B 5933   1.046   4.313   9.997  1.3260 -0.7007  3.1280
   47CHL1   C20 5934   0.900   4.712   9.110  0.6850  1.2425  0.8605
   47CHL1   H20 5935   0.802   4.669   9.079  1.2398  0.7594 -0.2733
   47CHL1   C21 5936   0.999   4.593   9.079 -0.1895 -0.4811  0.3857
   47CHL1  H21A 5937   1.103   4.629   9.094  0.1911 -0.9478 -1.0343
   47CHL1  H21B 5938   1.000   4.571   8.970  2.7313 -2.0952  0.6827
   47CHL1  H21C 5939   0.972   4.504   9.140  0.4501 -0.3357  0.8889
   47CHL1   C22 5940   0.930   4.839   9.021 -0.4112 -0.3677 -0.5039
   47CHL1  H22A 5941   0.924   4.815   8.913 -1.1556  0.6415 -0.6895
   47CHL1  H22B 5942   0.863   4.921   9.053 -0.2135 -0.8585  1.2104
   47CHL1   C23 5943   1.074   4.898   9.028  0.0809 -0.1088  0.0405
   47CHL1  H23A 5944   1.101   4.918   9.134 -0.6329  0.3307  0.1430
   47CHL1  H23B 5945   1.152   4.826   8.994 -1.4781 -1.8318  0.0156
   47CHL1   C24 5946   1.094   5.037   8.957  0.1792 -0.6919 -0.5230
   47CHL1  H24A 5947   1.141   5.021   8.858  0.3849 -0.2650 -0.4923
   47CHL1  H24B 5948   0.998   5.091   8.948 -0.1179 -0.9273  0.9850
   47CHL1   C25 5949   1.168   5.141   9.043  0.2781 -0.2235  0.0590
   47CHL1   H25 5950   1.111   5.159   9.137  1.8312 -3.7315  1.7698
   47CHL1   C26 5951   1.319   5.096   9.072 -0.4441  0.9820  0.3535
   47CHL1  H26A 5952   1.354   5.082   8.967  1.9280 -1.8040  1.4499
   47CHL1  H26B 5953   1.328   4.995   9.117  2.6875  1.6737  1.3821
   47CHL1  H26C 5954   1.373   5.171   9.133  1.2430  0.1701 -0.1260
   47CHL1   C27 5955   1.173   5.268   8.955 -0.1421  0.3541 -0.4102
   47CHL1  H27A 5956   1.212   5.247   8.854  0.2302  2.9939 -0.8421
   47CHL1  H27B 5957   1.072   5.311   8.938  0.0843  0.8291 -0.5674
   47CHL1  H27C 5958   1.245   5.343   8.993 -1.3537  2.3374 -1.9543
   48CHL1    C3 5959   1.730   4.842  10.135  0.0459  0.3176 -0.9439
   48CHL1    H3 5960   1.649   4.781  10.091  1.2689 -1.5053 -0.6946
   48CHL1    O3 5961   1.773   4.791  10.258  0.1656 -0.0714 -0.8624
   48CHL1   H3' 5962   1.837   4.858  10.284 -0.0487  1.0113 -2.9993
   48CHL1    C4 5963   1.855   4.827  10.053  0.6676 -0.2420 -0.5282
   48CHL1   H4A 5964   1.938   4.880  10.104 -0.4934  0.3213  0.8048
   48CHL1   H4B 5965   1.891   4.722  10.045 -2.9690 -1.8369  2.5533
   48CHL1    C5 5966   1.830   4.897   9.915 -0.1757 -0.1983  0.8399
   48CHL1    C6 5967   1.827   4.816   9.806 -0.6359  0.2773 -0.4838
   48CHL1    H6 5968   1.857   4.710   9.816 -0.6215  0.3720  0.4973
   48CHL1    C7 5969   1.808   4.868   9.667 -0.1478 -0.0150 -0.2795
   48CHL1   H7A 5970   1.880   4.817   9.600  0.3119  1.5967 -1.0240
   48CHL1   H7B 5971   1.702   4.847   9.640 -0.1896  0.0935 -0.2017
   48CHL1    C8 5972   1.825   5.020   9.665  0.3632  0.4291 -0.2541
   48CHL1    H8 5973   1.931   5.055   9.668  0.5637 -0.2744  1.5249
   48CHL1   C14 5974   1.785   5.067   9.528 -0.1933 -0.6929 -0.2158
   48CHL1   H14 5975   1.676   5.046   9.529 -0.7927  2.1886  0.6828
   48CHL1   C15 5976   1.839   5.009   9.398  0.3597  0.1999 -0.1855
   48CHL1  H15A 5977   1.947   4.996   9.419 -0.0526 -2.1868  0.7466
   48CHL1  H15B 5978   1.794   4.909   9.379  0.3222 -0.4091  2.8154
   48CHL1   C16 5979   1.807   5.122   9.300 -0.4197 -0.1747  0.2263
   48CHL1  H16A 5980   1.904   5.165   9.267 -1.4126 -0.9642 -3.9972
   48CHL1  H16B 5981   1.743   5.082   9.218  0.1018 -0.8564  0.1473
   48CHL1   C17 5982   1.722   5.224   9.372 -0.3518  0.0458  0.8880
   48CHL1   H17 5983   1.617   5.188   9.364 -0.6781  1.1843 -0.0878
   48CHL1   C13 5984   1.781   5.219   9.512 -0.6849  0.3024 -0.0850
   48CHL1   C18 5985   1.927   5.274   9.512  0.4674 -0.4907 -0.3926
   48CHL1  H18A 5986   1.999   5.208   9.459  3.2160  0.5732  1.8768
   48CHL1  H18B 5987   1.940   5.376   9.468  0.2384  0.7846  2.4087
   48CHL1  H18C 5988   1.970   5.279   9.614  0.2366  1.1189 -0.3611
   48CHL1   C12 5989   1.695   5.291   9.615  0.3419  0.5532 -0.0548
   48CHL1  H12A 5990   1.709   5.401   9.612 -2.8685  1.0643  1.3536
   48CHL1  H12B 5991   1.587   5.269   9.600  0.3571 -0.3470  1.0199
   48CHL1   C11 5992   1.722   5.247   9.756 -0.1222  0.0682  0.1253
   48CHL1  H11A 5993   1.820   5.298   9.771  0.6066 -0.9693 -0.9936
   48CHL1  H11B 5994   1.654   5.300   9.827 -0.9648  0.7286 -1.1604
   48CHL1    C9 5995   1.737   5.088   9.775  0.1348 -0.4667  0.2152
   48CHL1    H9 5996   1.640   5.037   9.761 -1.3056  2.4416 -0.9367
   48CHL1   C10 5997   1.794   5.043   9.911 -0.1739 -0.4327  0.1017
   48CHL1   C19 5998   1.922   5.122   9.954  0.1809 -0.2539 -0.9625
   48CHL1  H19A 5999   2.002   5.145   9.880  0.0395 -1.3128 -1.4532
   48CHL1  H19B 6000   1.878   5.220   9.981 -0.7468 -0.2872 -2.3274
   48CHL1  H19C 6001   1.973   5.078  10.042  1.2091 -0.4549 -1.6488
   48CHL1    C1 6002   1.670   5.064  10.015 -0.0802  0.2739 -0.4788
   48CHL1   H1A 6003   1.642   5.171  10.027 -0.5531 -0.2458  3.9761
   48CHL1   H1B 6004   1.582   5.011   9.975 -1.2806 -1.6171  4.3264
   48CHL1    C2 6005   1.690   4.994  10.147 -1.0555  0.6789  0.3551
   48CHL1   H2A 6006   1.597   4.998  10.209 -0.9525 -1.9870  0.7100
   48CHL1   H2B 6007   1.776   5.047  10.193  0.9786 -0.6532 -1.8055
   48CHL1   C20 6008   1.724   5.362   9.299  0.0113 -0.5394 -0.7073
   48CHL1   H20 6009   1.814   5.411   9.341 -0.2349 -2.3283  2.0482
   48CHL1   C21 6010   1.607   5.452   9.343 -0.4393  0.1648  0.8513
   48CHL1  H21A 6011   1.517   5.416   9.288 -1.8011  3.3354  0.8963
   48CHL1  H21B 6012   1.638   5.554   9.311 -1.3533  0.3075  0.3904
   48CHL1  H21C 6013   1.585   5.457   9.452  0.1512  0.4720  0.9545
   48CHL1   C22 6014   1.742   5.359   9.151  0.0511  0.0919 -0.4957
   48CHL1  H22A 6015   1.755   5.465   9.120  0.9244 -0.4040 -1.8552
   48CHL1  H22B 6016   1.832   5.308   9.111 -0.6299 -3.0022  1.7423
   48CHL1   C23 6017   1.630   5.298   9.068 -0.3317  0.0176  0.0056
   48CHL1  H23A 6018   1.600   5.206   9.122 -0.0192  0.7240  1.4072
   48CHL1  H23B 6019   1.536   5.356   9.086  0.1317  1.0724 -0.8898
   48CHL1   C24 6020   1.646   5.278   8.913  0.0789  0.3805 -0.6522
   48CHL1  H24A 6021   1.552   5.280   8.854 -0.7503  1.6696  0.6883
   48CHL1  H24B 6022   1.698   5.370   8.879 -0.4242  1.1349  0.6023
   48CHL1   C25 6023   1.737   5.154   8.881 -0.3488 -0.1283  0.7297
   48CHL1   H25 6024   1.817   5.146   8.958 -0.3056 -3.8198  0.3486
   48CHL1   C26 6025   1.659   5.028   8.895 -0.1876  0.3180  0.4826
   48CHL1  H26A 6026   1.569   5.020   8.830 -0.5469  3.3826  0.5267
   48CHL1  H26B 6027   1.728   4.953   8.851 -0.0336  1.7562 -1.8115
   48CHL1  H26C 6028   1.639   5.007   9.003  0.2739 -0.0962  0.4878
   48CHL1   C27 6029   1.775   5.164   8.740  0.0782  0.1798  0.5346
   48CHL1  H27A 6030   1.881   5.134   8.723 -0.4783 -1.9549  0.6784
   48CHL1  H27B 6031   1.708   5.107   8.671  0.0225 -0.8959  1.4662
   48CHL1  H27C 6032   1.767   5.271   8.711  0.3498 -0.0166 -0.2640
   49CHL1    C3 6033   0.064   1.129  10.107  0.1459  0.6069 -0.0754
   49CHL1    H3 6034  -0.032   1.176  10.139 -1.0016 -0.2258 -2.1878
   49CHL1    O3 6035   0.145   1.134  10.219  0.4408  0.1345  0.4353
   49CHL1   H3' 6036   0.169   1.227  10.227  0.1767  0.2021  0.4253
   49CHL1    C4 6037   0.050   0.987  10.048  0.6169 -0.4250  0.6391
   49CHL1   H4A 6038   0.152   0.950  10.027 -0.1693 -3.8485  2.4809
   49CHL1   H4B 6039   0.003   0.913  10.116  0.2092 -0.6467  0.1232
   49CHL1    C5 6040  -0.008   0.991   9.905 -0.5544  1.0160 -0.0978
   49CHL1    C6 6041  -0.108   0.906   9.867  0.2665 -0.2145 -0.0783
   49CHL1    H6 6042  -0.145   0.837   9.945 -0.3954  0.1329 -0.0789
   49CHL1    C7 6043  -0.161   0.880   9.724  0.3024  0.0091 -0.2463
   49CHL1   H7A 6044  -0.174   0.771   9.703 -2.9892  0.4162 -0.6180
   49CHL1   H7B 6045  -0.253   0.937   9.700 -0.0508 -1.1154 -1.6954
   49CHL1    C8 6046  -0.068   0.963   9.617 -0.1752  0.4946 -0.0214
   49CHL1    H8 6047   0.024   0.904   9.596  0.4701  1.2175  0.7446
   49CHL1   C14 6048  -0.149   0.989   9.487 -0.1336  0.2316 -0.1622
   49CHL1   H14 6049  -0.229   1.063   9.510 -2.0763 -1.6831 -0.5312
   49CHL1   C15 6050  -0.218   0.867   9.430 -0.6357 -0.9683  0.0913
   49CHL1  H15A 6051  -0.153   0.779   9.455 -0.9824 -0.6479  2.1718
   49CHL1  H15B 6052  -0.310   0.851   9.490  0.0006 -0.0733  1.3240
   49CHL1   C16 6053  -0.217   0.896   9.276 -0.1409 -0.2044  0.4706
   49CHL1  H16A 6054  -0.150   0.820   9.230 -0.7382 -0.1382 -0.5274
   49CHL1  H16B 6055  -0.317   0.886   9.227 -1.0134  0.2386  2.1369
   49CHL1   C17 6056  -0.158   1.036   9.264 -0.9079 -0.1982 -0.1307
   49CHL1   H17 6057  -0.245   1.102   9.285 -3.1220 -2.4500 -1.8722
   49CHL1   C13 6058  -0.063   1.057   9.376  0.0975  0.0364 -0.5022
   49CHL1   C18 6059   0.063   0.970   9.338 -0.3952  0.2323 -0.8627
   49CHL1  H18A 6060   0.126   0.956   9.428 -2.3073 -0.5969  0.4008
   49CHL1  H18B 6061   0.020   0.868   9.323 -0.3636 -0.3043  2.4497
   49CHL1  H18C 6062   0.123   1.006   9.252 -0.5908  2.3291 -0.1473
   49CHL1   C12 6063  -0.037   1.198   9.420 -0.3883 -0.3637 -0.0390
   49CHL1  H12A 6064   0.022   1.246   9.340 -0.7110  0.8439  0.4384
   49CHL1  H12B 6065  -0.127   1.261   9.437 -0.7542 -0.6012 -1.0655
   49CHL1   C11 6066   0.051   1.190   9.548  0.4388  0.6346 -0.0314
   49CHL1  H11A 6067   0.155   1.160   9.524  0.6365  0.5631  0.9198
   49CHL1  H11B 6068   0.055   1.290   9.596 -2.4391  0.2085  1.2272
   49CHL1    C9 6069  -0.021   1.103   9.666 -0.9296  0.2613  0.1687
   49CHL1    H9 6070  -0.114   1.162   9.679 -2.3133 -1.6744 -0.7131
   49CHL1   C10 6071   0.053   1.094   9.804 -0.6435 -0.0996  0.2268
   49CHL1   C19 6072   0.199   1.051   9.765 -0.2100  0.1105 -0.1077
   49CHL1  H19A 6073   0.246   1.122   9.693  0.8884 -0.8421 -0.3541
   49CHL1  H19B 6074   0.270   1.065   9.849 -1.9733 -1.7283  1.7472
   49CHL1  H19C 6075   0.206   0.942   9.743 -2.7408 -0.7585  3.0383
   49CHL1    C1 6076   0.063   1.235   9.863  0.0749 -0.0274 -0.4280
   49CHL1   H1A 6077   0.122   1.306   9.801 -0.3850  1.0835  0.3783
   49CHL1   H1B 6078  -0.042   1.271   9.858 -0.5725 -1.5782  1.1940
   49CHL1    C2 6079   0.132   1.227  10.006 -0.1161 -0.4103  0.9484
   49CHL1   H2A 6080   0.135   1.329  10.049  2.8747 -0.3824  0.7784
   49CHL1   H2B 6081   0.238   1.198   9.990  0.5315  2.4823 -0.2286
   49CHL1   C20 6082  -0.115   1.066   9.122  0.8054  0.4831 -0.0575
   49CHL1   H20 6083  -0.030   0.996   9.111 -0.3624 -0.6629 -2.1731
   49CHL1   C21 6084  -0.077   1.212   9.088  0.0264  0.2549  0.5902
   49CHL1  H21A 6085  -0.062   1.214   8.978 -0.8476 -1.9293  0.4127
   49CHL1  H21B 6086   0.020   1.245   9.131  0.1997 -0.1532  0.5106
   49CHL1  H21C 6087  -0.163   1.278   9.115  1.6737  2.6790  0.0295
   49CHL1   C22 6088  -0.216   1.021   9.009  0.0708  0.2657  0.3206
   49CHL1  H22A 6089  -0.160   1.032   8.914  2.6873 -1.0799  1.6562
   49CHL1  H22B 6090  -0.229   0.911   9.013  2.8783 -0.2283 -2.6477
   49CHL1   C23 6091  -0.359   1.080   9.013 -0.0717 -0.5821  0.0242
   49CHL1  H23A 6092  -0.415   1.037   9.098 -1.8058  0.3886 -0.6019
   49CHL1  H23B 6093  -0.357   1.191   9.022  1.4991 -0.6891  1.2253
   49CHL1   C24 6094  -0.428   1.045   8.876  0.7075  0.7860  0.4071
   49CHL1  H24A 6095  -0.370   1.100   8.799  0.8347  0.0928  0.0053
   49CHL1  H24B 6096  -0.419   0.935   8.882  3.9377  1.0366  0.8238
   49CHL1   C25 6097  -0.579   1.091   8.864 -0.1222  0.1814  0.2283
   49CHL1   H25 6098  -0.580   1.197   8.897  1.5653  1.2176 -2.8843
   49CHL1   C26 6099  -0.632   1.084   8.719  0.0473 -0.0655  0.3700
   49CHL1  H26A 6100  -0.738   1.119   8.724  0.4553  1.4952 -1.3670
   49CHL1  H26B 6101  -0.580   1.146   8.643 -1.7847 -1.7079 -2.2701
   49CHL1  H26C 6102  -0.634   0.976   8.696 -0.4029 -0.0305  0.2344
   49CHL1   C27 6103  -0.665   1.017   8.958  0.1314 -0.8910 -0.2732
   49CHL1  H27A 6104  -0.641   0.913   8.928  2.1799 -0.9266  1.3866
   49CHL1  H27B 6105  -0.636   1.046   9.061 -2.0698  0.6273 -0.0364
   49CHL1  H27C 6106  -0.773   1.041   8.948  0.5325  0.3659 -1.9111
   50CHL1    C3 6107   3.201   2.157  10.335  0.0722  0.1083 -0.8395
   50CHL1    H3 6108   3.290   2.223  10.326 -0.9298  1.8221  1.4118
   50CHL1    O3 6109   3.132   2.164  10.461  0.7659  0.2356 -0.6072
   50CHL1   H3' 6110   3.106   2.256  10.471  1.7032  0.4612 -0.2427
   50CHL1    C4 6111   3.109   2.203  10.227 -0.1131 -0.5067 -0.4863
   50CHL1   H4A 6112   3.007   2.161  10.220 -0.4283  0.4114 -1.7009
   50CHL1   H4B 6113   3.082   2.309  10.248  0.5941 -0.3536 -0.3271
   50CHL1    C5 6114   3.166   2.184  10.088 -0.2329  0.6027  0.0853
   50CHL1    C6 6115   3.191   2.286  10.007 -0.3407 -0.1460 -0.1900
   50CHL1    H6 6116   3.162   2.388  10.037 -0.0605  0.0486 -0.5774
   50CHL1    C7 6117   3.245   2.270   9.873  0.7639  0.6349 -0.4546
   50CHL1   H7A 6118   3.184   2.320   9.795 -1.2517 -0.4996  0.3565
   50CHL1   H7B 6119   3.347   2.313   9.868  1.6907 -1.4188  0.3796
   50CHL1    C8 6120   3.259   2.123   9.829  0.3312  0.2851  0.5115
   50CHL1    H8 6121   3.156   2.102   9.793  1.1877 -1.2441 -1.0704
   50CHL1   C14 6122   3.352   2.114   9.704 -0.2750  0.1834 -0.2632
   50CHL1   H14 6123   3.451   2.146   9.744  1.8034 -3.7422 -2.0342
   50CHL1   C15 6124   3.335   2.216   9.585 -0.2863  0.5978  0.9082
   50CHL1  H15A 6125   3.228   2.230   9.557 -0.4249 -1.8606  0.1198
   50CHL1  H15B 6126   3.382   2.311   9.617 -3.4277  2.3737  0.5294
   50CHL1   C16 6127   3.404   2.149   9.463 -0.2332  0.3302 -0.7709
   50CHL1  H16A 6128   3.340   2.124   9.376 -0.2278  1.7834 -1.2015
   50CHL1  H16B 6129   3.481   2.214   9.416  2.3285 -0.9081  1.5638
   50CHL1   C17 6130   3.463   2.010   9.517  0.5408  0.1278  0.0795
   50CHL1   H17 6131   3.564   2.032   9.556 -0.2195  2.7473  0.6479
   50CHL1   C13 6132   3.375   1.977   9.643  0.6432  0.9945 -0.3559
   50CHL1   C18 6133   3.237   1.926   9.583 -0.0334  0.1356 -0.3631
   50CHL1  H18A 6134   3.196   1.996   9.507  0.1018 -0.9647 -1.4673
   50CHL1  H18B 6135   3.251   1.830   9.529  0.8630 -0.0349  0.1571
   50CHL1  H18C 6136   3.164   1.930   9.666 -0.6185  2.7164 -0.9732
   50CHL1   C12 6137   3.432   1.885   9.757 -0.3450 -0.4031 -0.0215
   50CHL1  H12A 6138   3.448   1.779   9.728 -1.5006 -0.3888 -0.7463
   50CHL1  H12B 6139   3.527   1.933   9.787 -0.5801  0.5845 -0.8430
   50CHL1   C11 6140   3.333   1.884   9.880 -0.1427  0.0753  0.1196
   50CHL1  H11A 6141   3.238   1.832   9.854  0.8823 -1.1657 -1.1292
   50CHL1  H11B 6142   3.387   1.827   9.958 -0.4716  0.0984  0.3688
   50CHL1    C9 6143   3.306   2.030   9.936 -0.4060 -0.0715  0.0860
   50CHL1    H9 6144   3.403   2.076   9.965 -0.1624 -0.2370 -0.4553
   50CHL1   C10 6145   3.210   2.044  10.062  0.3385 -0.4624 -0.6313
   50CHL1   C19 6146   3.079   1.958  10.040  0.2449 -0.2173 -0.2713
   50CHL1  H19A 6147   3.116   1.853  10.041 -0.8123 -0.5970  0.0930
   50CHL1  H19B 6148   3.003   1.966  10.122  1.6001 -0.9345  1.0859
   50CHL1  H19C 6149   3.035   1.983   9.941  0.7331  0.6861 -0.2652
   50CHL1    C1 6150   3.290   1.986  10.182  0.3264 -0.5782 -0.7124
   50CHL1   H1A 6151   3.291   1.876  10.171  3.4520 -0.7691  1.0486
   50CHL1   H1B 6152   3.399   2.004  10.170  0.2987  0.3480  0.2961
   50CHL1    C2 6153   3.246   2.008  10.327  0.1587  0.3654 -0.3893
   50CHL1   H2A 6154   3.335   1.995  10.392  0.9241  0.6674 -1.3619
   50CHL1   H2B 6155   3.171   1.932  10.357 -1.3872  3.0931  2.9358
   50CHL1   C20 6156   3.483   1.910   9.404  0.0853 -0.3560  0.1313
   50CHL1   H20 6157   3.387   1.890   9.351 -1.3414  0.1271  2.4568
   50CHL1   C21 6158   3.524   1.780   9.470  0.0442 -0.4866 -0.1467
   50CHL1  H21A 6159   3.609   1.786   9.541  0.3499 -0.0009 -0.5477
   50CHL1  H21B 6160   3.555   1.700   9.400  0.0917 -0.2351 -0.4167
   50CHL1  H21C 6161   3.431   1.749   9.523  0.6397  0.2708  1.3988
   50CHL1   C22 6162   3.594   1.953   9.300  0.1489 -0.1589 -0.1239
   50CHL1  H22A 6163   3.564   2.055   9.267  0.6393 -1.6330 -5.7510
   50CHL1  H22B 6164   3.697   1.964   9.341 -0.4169  1.9454  0.7879
   50CHL1   C23 6165   3.590   1.872   9.171 -0.7322  0.8203 -0.1522
   50CHL1  H23A 6166   3.641   1.774   9.189  0.6754  1.0097 -2.8607
   50CHL1  H23B 6167   3.491   1.850   9.126  0.1324 -1.9441 -0.8298
   50CHL1   C24 6168   3.679   1.933   9.056  0.2742  0.1740  0.1110
   50CHL1  H24A 6169   3.627   2.018   9.006 -1.2026 -0.0847  1.1830
   50CHL1  H24B 6170   3.761   1.987   9.109  0.7677  0.4570 -0.9311
   50CHL1   C25 6171   3.745   1.836   8.962 -0.7958 -0.1533 -0.0797
   50CHL1   H25 6172   3.790   1.749   9.015 -2.6888 -0.2402  1.4473
   50CHL1   C26 6173   3.644   1.783   8.863  1.0203 -0.6428 -0.6350
   50CHL1  H26A 6174   3.693   1.695   8.817 -1.6498 -2.3007 -0.4251
   50CHL1  H26B 6175   3.543   1.750   8.896  0.8050  1.0388  0.4773
   50CHL1  H26C 6176   3.633   1.865   8.788 -0.7742 -0.3795 -0.1141
   50CHL1   C27 6177   3.858   1.894   8.878 -0.9757  0.5626  0.0511
   50CHL1  H27A 6178   3.887   1.836   8.787 -1.5963  2.4350 -1.3760
   50CHL1  H27B 6179   3.836   2.000   8.853 -2.2251  0.1752 -0.5593
   50CHL1  H27C 6180   3.949   1.896   8.941 -1.9906  0.1609  1.5478
   51CHL1    C3 6181   4.192   5.208  10.267 -0.2441 -0.1205 -0.9929
   51CHL1    H3 6182   4.252   5.119  10.243  0.8446 -0.2837  2.0771
   51CHL1    O3 6183   4.214   5.227  10.406 -0.2692 -0.1662 -0.1903
   51CHL1   H3' 6184   4.159   5.303  10.425  1.9934  1.3953  0.3387
   51CHL1    C4 6185   4.238   5.327  10.183  0.5932 -0.1534  0.4588
   51CHL1   H4A 6186   4.174   5.413  10.212 -0.1493 -0.0855 -1.3301
   51CHL1   H4B 6187   4.345   5.340  10.210  0.7186  1.9510 -0.9487
   51CHL1    C5 6188   4.225   5.311  10.036 -0.0680 -0.1402 -0.6896
   51CHL1    C6 6189   4.325   5.337   9.948 -0.2193 -0.9698  0.7145
   51CHL1    H6 6190   4.426   5.360   9.985  0.7022 -0.9296 -1.7862
   51CHL1    C7 6191   4.303   5.327   9.802 -0.1887  0.4435 -0.4512
   51CHL1   H7A 6192   4.360   5.402   9.743 -1.2672  1.5027 -0.1521
   51CHL1   H7B 6193   4.350   5.235   9.762  1.2674  1.4884 -1.2038
   51CHL1    C8 6194   4.148   5.322   9.760 -1.0881  0.0293 -0.4591
   51CHL1    H8 6195   4.114   5.427   9.771 -2.8493 -0.5451 -0.2504
   51CHL1   C14 6196   4.135   5.273   9.615 -0.6542 -0.1812  0.3508
   51CHL1   H14 6197   4.195   5.179   9.623 -2.5984 -1.3967  0.9524
   51CHL1   C15 6198   4.204   5.363   9.515 -0.5414  0.6704 -0.9221
   51CHL1  H15A 6199   4.184   5.471   9.532 -1.1751  0.6001 -1.2029
   51CHL1  H15B 6200   4.315   5.357   9.516 -0.5970 -0.3985 -0.4115
   51CHL1   C16 6201   4.145   5.311   9.381  0.5697  0.2413 -0.1173
   51CHL1  H16A 6202   4.121   5.398   9.317 -0.4250  2.1948  2.8234
   51CHL1  H16B 6203   4.215   5.251   9.319 -0.9869 -1.8105  0.0180
   51CHL1   C17 6204   4.029   5.212   9.413  0.6218  0.1093  0.1612
   51CHL1   H17 6205   4.078   5.112   9.413  0.3877 -0.0056 -0.0940
   51CHL1   C13 6206   3.994   5.246   9.561  0.1014 -0.9254 -0.0088
   51CHL1   C18 6207   3.920   5.388   9.565  0.0043  0.4017 -0.2379
   51CHL1  H18A 6208   3.812   5.364   9.556  0.5116 -1.4105 -1.7321
   51CHL1  H18B 6209   3.929   5.433   9.666  2.6673  0.3187 -0.4059
   51CHL1  H18C 6210   3.963   5.451   9.484 -1.5056  0.7796 -0.7661
   51CHL1   C12 6211   3.934   5.139   9.652  0.6985  0.2091  0.4703
   51CHL1  H12A 6212   3.828   5.118   9.623  0.6225  0.1183  0.8205
   51CHL1  H12B 6213   4.006   5.057   9.634  1.7265  0.9748  1.0273
   51CHL1   C11 6214   3.930   5.179   9.799 -0.8687 -0.0954 -0.4913
   51CHL1  H11A 6215   3.866   5.270   9.803 -2.5104 -1.2346 -0.4370
   51CHL1  H11B 6216   3.881   5.097   9.855  1.7460 -0.4712  1.3026
   51CHL1    C9 6217   4.075   5.226   9.852 -0.3334  0.7852  0.5580
   51CHL1    H9 6218   4.136   5.133   9.844  1.1791  1.6380  1.9947
   51CHL1   C10 6219   4.080   5.265  10.003  0.0376  0.3951  0.0470
   51CHL1   C19 6220   3.995   5.395  10.015  0.5467 -0.2869  0.9017
   51CHL1  H19A 6221   4.006   5.452  10.110  0.1739  1.4335 -0.0674
   51CHL1  H19B 6222   4.023   5.466   9.934 -2.2718  0.9849  0.9925
   51CHL1  H19C 6223   3.885   5.384  10.022  0.5592 -0.8513  0.1595
   51CHL1    C1 6224   4.029   5.147  10.092 -1.2320  0.8323 -0.0701
   51CHL1   H1A 6225   3.920   5.132  10.074 -1.1457  0.5740 -0.3790
   51CHL1   H1B 6226   4.076   5.050  10.066  1.0009  1.5854  1.0639
   51CHL1    C2 6227   4.046   5.170  10.238 -0.0932 -0.2649 -0.2949
   51CHL1   H2A 6228   4.007   5.081  10.291  1.0319  0.6721  2.2186
   51CHL1   H2B 6229   3.986   5.256  10.275 -2.3940 -1.3645 -1.3700
   51CHL1   C20 6230   3.926   5.207   9.296  0.1192 -0.1574  0.0027
   51CHL1   H20 6231   3.897   5.313   9.275  2.3386  0.0506 -2.1796
   51CHL1   C21 6232   3.803   5.122   9.331 -0.7107  0.4062  0.3024
   51CHL1  H21A 6233   3.758   5.073   9.242  2.6051  0.8397 -1.7286
   51CHL1  H21B 6234   3.732   5.189   9.383 -0.1339  0.2696  1.2637
   51CHL1  H21C 6235   3.832   5.044   9.404 -1.3772  0.7323  0.9160
   51CHL1   C22 6236   3.987   5.157   9.164 -0.5667 -0.1413 -0.3100
   51CHL1  H22A 6237   4.097   5.165   9.149 -0.3328  1.4959  1.9493
   51CHL1  H22B 6238   3.973   5.047   9.175 -0.5512 -0.1532 -0.4160
   51CHL1   C23 6239   3.920   5.193   9.027 -0.4725 -0.5762 -0.5085
   51CHL1  H23A 6240   3.811   5.210   9.037 -0.1888  1.6231 -0.9129
   51CHL1  H23B 6241   3.951   5.296   8.998 -0.8001 -0.8867 -1.9972
   51CHL1   C24 6242   3.965   5.104   8.912  0.1992 -0.4279 -0.5849
   51CHL1  H24A 6243   4.074   5.095   8.931 -0.1822 -0.7149  1.5238
   51CHL1  H24B 6244   3.914   5.008   8.930 -0.0536 -0.2147 -0.1564
   51CHL1   C25 6245   3.944   5.148   8.762  0.1701 -0.6185  0.0944
   51CHL1   H25 6246   4.000   5.241   8.740 -0.7631  0.1021  0.6983
   51CHL1   C26 6247   3.995   5.043   8.663 -0.0382  0.0218  0.1507
   51CHL1  H26A 6248   3.968   5.067   8.558  4.2626  1.9998 -0.6025
   51CHL1  H26B 6249   4.105   5.034   8.657 -0.0697 -0.7271  0.6326
   51CHL1  H26C 6250   3.946   4.946   8.688  1.5194 -0.8571 -0.1867
   51CHL1   C27 6251   3.791   5.182   8.747  0.2282 -0.1065 -0.2819
   51CHL1  H27A 6252   3.723   5.119   8.809  1.1456  0.9833  1.8598
   51CHL1  H27B 6253   3.765   5.286   8.775  0.5822 -0.7801  2.7479
   51CHL1  H27C 6254   3.765   5.158   8.641  0.1728  0.8775 -0.4923
   52CHL1    C3 6255   1.188   3.759   9.987  0.2231 -0.0602  0.5475
   52CHL1    H3 6256   1.153   3.672   9.928  1.9855 -0.2296 -0.2708
   52CHL1    O3 6257   1.179   3.727  10.122  0.2371 -0.4541  0.3158
   52CHL1   H3' 6258   1.267   3.731  10.160  0.5620  0.4639 -0.5105
   52CHL1    C4 6259   1.333   3.796   9.957  0.3959 -0.1070  0.8750
   52CHL1   H4A 6260   1.372   3.876  10.024  0.7148 -1.8490  2.8194
   52CHL1   H4B 6261   1.396   3.706   9.974 -0.2877 -1.1138 -1.7693
   52CHL1    C5 6262   1.345   3.842   9.810  0.1837 -0.0514  0.0229
   52CHL1    C6 6263   1.415   3.770   9.727 -0.9263  1.3195  0.0514
   52CHL1    H6 6264   1.471   3.681   9.759  2.0280  1.9021 -3.2743
   52CHL1    C7 6265   1.421   3.802   9.581  0.2221 -0.1077  0.0208
   52CHL1   H7A 6266   1.520   3.772   9.539  0.8226  0.1836  1.2135
   52CHL1   H7B 6267   1.335   3.744   9.544  0.9842 -1.2230 -0.0115
   52CHL1    C8 6268   1.384   3.954   9.553  0.0606 -0.1404  0.4469
   52CHL1    H8 6269   1.467   4.008   9.604 -0.4351 -0.3729  1.5023
   52CHL1   C14 6270   1.376   3.977   9.401  0.3993 -0.8936 -0.1516
   52CHL1   H14 6271   1.293   3.916   9.360  0.1098  1.2199 -2.8890
   52CHL1   C15 6272   1.496   3.940   9.317 -0.2081  0.3634  0.4743
   52CHL1  H15A 6273   1.588   3.979   9.366 -1.4824  2.0122  1.6019
   52CHL1  H15B 6274   1.522   3.833   9.302 -0.6625  0.1236  1.3283
   52CHL1   C16 6275   1.463   4.010   9.187  0.1932  0.2254 -0.1708
   52CHL1  H16A 6276   1.551   4.073   9.158  1.8012 -2.0137 -0.3109
   52CHL1  H16B 6277   1.453   3.936   9.105 -2.0519  0.7367 -0.3782
   52CHL1   C17 6278   1.331   4.101   9.207 -0.5647  0.8483 -0.5921
   52CHL1   H17 6279   1.251   4.031   9.175  0.6865 -0.1899 -1.4703
   52CHL1   C13 6280   1.323   4.118   9.360 -0.5742  0.3305 -0.0946
   52CHL1   C18 6281   1.425   4.230   9.401 -0.2722 -0.3555 -0.4784
   52CHL1  H18A 6282   1.527   4.226   9.359 -0.0935 -0.5108 -0.0371
   52CHL1  H18B 6283   1.392   4.331   9.368 -0.3108 -1.3978 -3.7728
   52CHL1  H18C 6284   1.446   4.239   9.510  1.0483  2.5303 -0.9156
   52CHL1   C12 6285   1.177   4.146   9.415  0.0366 -0.6320 -0.2730
   52CHL1  H12A 6286   1.129   4.244   9.391  3.9486  1.5312  0.2383
   52CHL1  H12B 6287   1.126   4.056   9.374 -0.0741 -0.4135 -0.6199
   52CHL1   C11 6288   1.184   4.130   9.571 -0.1929 -0.0040  0.1037
   52CHL1  H11A 6289   1.248   4.204   9.623 -0.2973 -1.2606  2.0551
   52CHL1  H11B 6290   1.078   4.141   9.599 -0.2253  0.2744 -0.1210
   52CHL1    C9 6291   1.246   3.987   9.612 -0.1955  0.6168 -0.1042
   52CHL1    H9 6292   1.178   3.906   9.578 -0.3677 -0.1811  2.0145
   52CHL1   C10 6293   1.254   3.966   9.767  0.2870 -0.1694 -0.1363
   52CHL1   C19 6294   1.310   4.098   9.841 -0.0256  0.4797  0.3658
   52CHL1  H19A 6295   1.322   4.083   9.950 -0.5608  0.7412  0.4579
   52CHL1  H19B 6296   1.415   4.107   9.803 -0.6211 -0.7800 -1.6882
   52CHL1  H19C 6297   1.256   4.193   9.825 -1.4847 -0.3008  0.5539
   52CHL1    C1 6298   1.109   3.940   9.813  0.0635 -0.1382  0.0459
   52CHL1   H1A 6299   1.057   4.037   9.826 -0.5825 -0.1488 -2.2087
   52CHL1   H1B 6300   1.059   3.866   9.747  1.0874  0.5012 -1.4927
   52CHL1    C2 6301   1.097   3.878   9.950  0.0885 -0.7086  0.2264
   52CHL1   H2A 6302   0.996   3.834   9.957 -0.6333  1.0344  0.9286
   52CHL1   H2B 6303   1.110   3.961  10.023  0.0552 -1.4403  1.0703
   52CHL1   C20 6304   1.319   4.223   9.113 -0.0280  0.2329 -0.0292
   52CHL1   H20 6305   1.415   4.276   9.132  0.9742 -1.7444  0.6583
   52CHL1   C21 6306   1.191   4.302   9.139 -0.3331  0.3178  0.3354
   52CHL1  H21A 6307   1.105   4.240   9.173 -1.4102  0.9813 -1.1684
   52CHL1  H21B 6308   1.160   4.363   9.052  0.3164  0.3293  0.1119
   52CHL1  H21C 6309   1.207   4.379   9.218 -0.6835  1.5536 -0.7953
   52CHL1   C22 6310   1.333   4.185   8.962  0.0660  1.0771 -0.1418
   52CHL1  H22A 6311   1.337   4.279   8.903 -2.2776  1.7530  0.7099
   52CHL1  H22B 6312   1.430   4.133   8.950 -1.1826 -1.5550  0.8257
   52CHL1   C23 6313   1.223   4.101   8.904 -0.0131  0.4641  0.1969
   52CHL1  H23A 6314   1.237   3.995   8.936  0.2045  1.3279  3.0390
   52CHL1  H23B 6315   1.129   4.146   8.942  0.4626  1.4166  0.2383
   52CHL1   C24 6316   1.224   4.105   8.747 -0.1633 -0.2705  0.1527
   52CHL1  H24A 6317   1.275   4.195   8.708  2.0725 -1.4405  0.2865
   52CHL1  H24B 6318   1.298   4.030   8.711 -1.3143 -1.3118 -0.0856
   52CHL1   C25 6319   1.091   4.075   8.679  0.1111 -0.1911 -0.0097
   52CHL1   H25 6320   1.015   4.129   8.738  0.3222  0.1649 -0.0647
   52CHL1   C26 6321   1.086   4.138   8.542  0.0963  0.5145 -0.2832
   52CHL1  H26A 6322   1.112   4.246   8.534  0.3479  0.4779  0.0415
   52CHL1  H26B 6323   1.146   4.082   8.467  0.5370  0.2584  0.2598
   52CHL1  H26C 6324   0.985   4.123   8.497 -0.1303 -2.1634  1.0511
   52CHL1   C27 6325   1.051   3.927   8.670 -0.1609 -0.0145 -0.1955
   52CHL1  H27A 6326   1.127   3.876   8.608  0.3796  1.7419 -0.9995
   52CHL1  H27B 6327   1.044   3.865   8.762  0.9322 -1.6816 -1.1984
   52CHL1  H27C 6328   0.955   3.923   8.614  0.0823  0.4193 -0.6505
   53CHL1    C3 6329   2.432   3.299  10.138  0.5717 -0.4441  0.3338
   53CHL1    H3 6330   2.543   3.302  10.143  0.5778  0.9544 -0.2844
   53CHL1    O3 6331   2.381   3.318  10.268 -0.1646  0.5850 -0.4879
   53CHL1   H3' 6332   2.431   3.394  10.298 -0.7490  1.0589 -0.6946
   53CHL1    C4 6333   2.371   3.415  10.056 -0.1626 -0.0799  0.9513
   53CHL1   H4A 6334   2.260   3.416  10.050 -0.2178 -2.6884  0.6989
   53CHL1   H4B 6335   2.403   3.511  10.102 -0.3976 -0.1437  1.2487
   53CHL1    C5 6336   2.425   3.413   9.919 -0.9621  0.6430 -0.2425
   53CHL1    C6 6337   2.503   3.511   9.869 -0.0722 -0.1571 -0.2216
   53CHL1    H6 6338   2.501   3.608   9.922  1.2997  0.0534 -0.5189
   53CHL1    C7 6339   2.565   3.512   9.727 -0.5529 -0.6266  0.1457
   53CHL1   H7A 6340   2.558   3.618   9.692 -1.3557 -0.4586  0.7835
   53CHL1   H7B 6341   2.672   3.482   9.725 -0.8082 -1.5463 -0.0279
   53CHL1    C8 6342   2.499   3.401   9.634 -0.2026 -0.3470 -0.0905
   53CHL1    H8 6343   2.397   3.440   9.614  0.5103  2.0729  0.8975
   53CHL1   C14 6344   2.576   3.384   9.505 -0.3026  0.4555  0.3058
   53CHL1   H14 6345   2.678   3.350   9.532  0.6771  4.2783  1.8762
   53CHL1   C15 6346   2.607   3.511   9.418 -0.2432 -1.1471  0.3601
   53CHL1  H15A 6347   2.531   3.592   9.415  0.1397 -0.8163 -0.6423
   53CHL1  H15B 6348   2.698   3.555   9.464 -1.9720 -0.1603  2.9448
   53CHL1   C16 6349   2.627   3.447   9.280  0.2740 -0.2298  0.6862
   53CHL1  H16A 6350   2.563   3.495   9.204 -1.3106 -1.3312  1.3041
   53CHL1  H16B 6351   2.731   3.468   9.245 -0.1134  0.8608  0.1615
   53CHL1   C17 6352   2.589   3.298   9.284  0.4352 -0.3158 -0.3916
   53CHL1   H17 6353   2.682   3.239   9.293 -0.4588 -1.7502 -0.3953
   53CHL1   C13 6354   2.511   3.276   9.414 -0.5085 -0.1192 -0.0704
   53CHL1   C18 6355   2.363   3.307   9.393  1.0833 -0.0216 -0.3451
   53CHL1  H18A 6356   2.359   3.407   9.345  1.0665 -0.0220 -0.3428
   53CHL1  H18B 6357   2.312   3.218   9.351 -2.7798  0.9048  2.1553
   53CHL1  H18C 6358   2.304   3.327   9.485 -2.4243  2.0497 -2.9342
   53CHL1   C12 6359   2.529   3.141   9.487 -0.7506  0.5413 -0.1562
   53CHL1  H12A 6360   2.496   3.063   9.414 -1.7016  3.5743 -3.1187
   53CHL1  H12B 6361   2.634   3.126   9.521 -0.8251 -3.1314 -1.3244
   53CHL1   C11 6362   2.456   3.142   9.621 -0.3949  0.3053 -0.2822
   53CHL1  H11A 6363   2.350   3.157   9.592 -0.4122 -0.0563 -0.4066
   53CHL1  H11B 6364   2.468   3.046   9.674 -1.9285 -0.5469 -1.4425
   53CHL1    C9 6365   2.487   3.270   9.706 -0.0505  0.3331  0.0201
   53CHL1    H9 6366   2.596   3.262   9.730 -0.2796 -0.1296  0.9180
   53CHL1   C10 6367   2.402   3.278   9.838 -0.4972  0.5876 -0.2125
   53CHL1   C19 6368   2.252   3.272   9.796  0.5095  0.2866  0.2067
   53CHL1  H19A 6369   2.190   3.271   9.888 -1.5867  0.5326 -1.1449
   53CHL1  H19B 6370   2.215   3.355   9.731  0.1084  0.1686  0.2798
   53CHL1  H19C 6371   2.222   3.177   9.745  0.4375  0.8749 -0.8680
   53CHL1    C1 6372   2.447   3.160   9.933 -0.0570  0.0494  0.1981
   53CHL1   H1A 6373   2.410   3.061   9.898  0.3488 -0.3093  0.7863
   53CHL1   H1B 6374   2.558   3.158   9.937 -0.0678 -0.8285  0.2356
   53CHL1    C2 6375   2.386   3.166  10.076  0.2403 -0.6990 -0.8132
   53CHL1   H2A 6376   2.429   3.090  10.145 -2.2901  1.2613  3.1155
   53CHL1   H2B 6377   2.276   3.152  10.081  0.2642 -0.1427  2.2011
   53CHL1   C20 6378   2.526   3.252   9.146 -0.4624 -0.4554 -0.6735
   53CHL1   H20 6379   2.436   3.315   9.128  0.2013  0.6067 -0.3423
   53CHL1   C21 6380   2.478   3.103   9.141 -0.7511 -0.8914  0.1926
   53CHL1  H21A 6381   2.390   3.073   9.202 -0.6295 -1.6161  0.0214
   53CHL1  H21B 6382   2.548   3.021   9.170  1.5027 -0.3578 -3.3692
   53CHL1  H21C 6383   2.448   3.093   9.034  2.4207  0.1628 -0.8721
   53CHL1   C22 6384   2.635   3.273   9.036 -0.2747  0.8105 -0.6306
   53CHL1  H22A 6385   2.664   3.380   9.028 -0.2970  0.9062  0.5138
   53CHL1  H22B 6386   2.736   3.234   9.062 -0.3335 -0.2632 -1.9815
   53CHL1   C23 6387   2.590   3.238   8.890  0.7654 -0.3477  0.1843
   53CHL1  H23A 6388   2.605   3.129   8.874  0.6801 -0.2532 -0.5146
   53CHL1  H23B 6389   2.480   3.254   8.894  0.7828 -0.6478  2.5941
   53CHL1   C24 6390   2.650   3.312   8.770  0.0700  0.1759  0.0814
   53CHL1  H24A 6391   2.620   3.419   8.781 -0.1226 -0.0300  1.6105
   53CHL1  H24B 6392   2.761   3.310   8.771  0.0643 -0.8119 -0.6113
   53CHL1   C25 6393   2.597   3.262   8.629 -0.0378 -0.1612 -0.1524
   53CHL1   H25 6394   2.632   3.157   8.621  0.1945 -0.5041  3.9189
   53CHL1   C26 6395   2.453   3.272   8.603  0.3069  0.3143  0.4138
   53CHL1  H26A 6396   2.397   3.202   8.668 -1.2729  1.5868  0.4436
   53CHL1  H26B 6397   2.408   3.373   8.614 -3.2690 -0.7000 -3.5838
   53CHL1  H26C 6398   2.417   3.230   8.507  0.8732  0.1556  0.2702
   53CHL1   C27 6399   2.677   3.346   8.524 -0.2068  0.2945  0.7356
   53CHL1  H27A 6400   2.682   3.454   8.551 -0.5861  0.3648  0.5292
   53CHL1  H27B 6401   2.786   3.322   8.526 -0.1852  0.3790  0.5889
   53CHL1  H27C 6402   2.639   3.346   8.420 -0.9299 -2.8983  0.9398
   54CHL1    C3 6403   2.131   4.392  10.118  0.5024  0.6674 -0.0786
   54CHL1    H3 6404   2.184   4.314  10.177 -0.7829  0.3850  0.7289
   54CHL1    O3 6405   2.041   4.456  10.211 -0.0577 -0.0922  0.0313
   54CHL1   H3' 6406   1.986   4.382  10.236  1.0970 -2.0127 -2.9021
   54CHL1    C4 6407   2.229   4.496  10.066  0.0370 -0.1175  1.1419
   54CHL1   H4A 6408   2.181   4.596  10.056 -1.0724 -0.5521  1.9559
   54CHL1   H4B 6409   2.299   4.507  10.151  1.7211 -0.4587 -0.1760
   54CHL1    C5 6410   2.308   4.455   9.942 -0.1290  0.3407  0.4314
   54CHL1    C6 6411   2.439   4.476   9.929  0.6619  0.4243  0.5610
   54CHL1    H6 6412   2.490   4.516  10.018  1.3484  2.4623 -0.7198
   54CHL1    C7 6413   2.515   4.446   9.799 -1.5094 -0.4803  0.1302
   54CHL1   H7A 6414   2.588   4.525   9.770  0.0793 -2.6318 -1.9838
   54CHL1   H7B 6415   2.564   4.346   9.794  2.1194  1.3562 -3.9720
   54CHL1    C8 6416   2.416   4.450   9.677 -0.2616 -0.2448  0.8330
   54CHL1    H8 6417   2.377   4.554   9.669 -0.4242 -0.3003  0.9045
   54CHL1   C14 6418   2.484   4.415   9.549  0.4433  0.1401  0.4856
   54CHL1   H14 6419   2.526   4.313   9.561 -1.2150 -0.4129  1.6946
   54CHL1   C15 6420   2.593   4.509   9.499 -0.2098 -0.3926 -0.1006
   54CHL1  H15A 6421   2.567   4.612   9.534 -0.6011 -0.1504 -1.0957
   54CHL1  H15B 6422   2.699   4.496   9.530 -0.4672  1.9241  1.9051
   54CHL1   C16 6423   2.593   4.504   9.341 -0.3771 -0.2227 -0.5891
   54CHL1  H16A 6424   2.574   4.609   9.313 -0.7381  0.1047  0.8210
   54CHL1  H16B 6425   2.683   4.475   9.283  0.3527 -2.4034  1.5368
   54CHL1   C17 6426   2.483   4.408   9.313 -0.6912 -0.0580  0.0968
   54CHL1   H17 6427   2.520   4.305   9.333 -0.6672 -0.0804 -0.0585
   54CHL1   C13 6428   2.387   4.418   9.428 -0.3026 -0.3124 -0.0864
   54CHL1   C18 6429   2.306   4.547   9.423  0.4551  0.0613 -0.1548
   54CHL1  H18A 6430   2.381   4.623   9.392  0.2685  1.5801  2.9664
   54CHL1  H18B 6431   2.230   4.532   9.343  0.6692  1.4060 -0.6205
   54CHL1  H18C 6432   2.253   4.573   9.517  1.5916  0.7962  0.2949
   54CHL1   C12 6433   2.301   4.286   9.446 -1.0104  0.1877  0.1290
   54CHL1  H12A 6434   2.243   4.264   9.354  0.5762  0.9113 -1.0616
   54CHL1  H12B 6435   2.380   4.209   9.459  1.3943  2.4055 -0.9025
   54CHL1   C11 6436   2.222   4.298   9.575  0.4199  0.2755  0.3502
   54CHL1  H11A 6437   2.139   4.370   9.559  0.4145  0.1115 -0.3933
   54CHL1  H11B 6438   2.177   4.201   9.605  2.8907 -1.1960 -0.4944
   54CHL1    C9 6439   2.303   4.350   9.701  0.3226  0.1505 -0.1110
   54CHL1    H9 6440   2.356   4.259   9.737 -2.9774 -1.4188  1.0031
   54CHL1   C10 6441   2.224   4.400   9.825  0.7971 -0.5133 -0.9507
   54CHL1   C19 6442   2.135   4.522   9.779 -0.3053  0.0915  0.0275
   54CHL1  H19A 6443   2.052   4.487   9.713 -0.0968  1.2803 -0.8856
   54CHL1  H19B 6444   2.088   4.573   9.866 -1.5262  0.9581 -1.1067
   54CHL1  H19C 6445   2.191   4.597   9.719 -2.6776 -0.2848 -2.8134
   54CHL1    C1 6446   2.138   4.284   9.881  0.1110 -0.1460 -0.3327
   54CHL1   H1A 6447   2.071   4.263   9.795 -0.5514 -3.5782  0.9160
   54CHL1   H1B 6448   2.202   4.195   9.899  0.2061 -0.0200 -0.0430
   54CHL1    C2 6449   2.053   4.322  10.005 -0.2429  0.2014 -0.0994
   54CHL1   H2A 6450   2.000   4.231  10.041 -0.6005  0.9966  1.4095
   54CHL1   H2B 6451   1.979   4.395   9.966 -0.2538  0.6624  0.7872
   54CHL1   C20 6452   2.426   4.417   9.166  0.3166  0.1784 -0.0791
   54CHL1   H20 6453   2.328   4.364   9.168  0.5065 -0.1671  0.0673
   54CHL1   C21 6454   2.528   4.337   9.087 -0.1641 -0.6571  0.3380
   54CHL1  H21A 6455   2.476   4.303   8.996 -0.6745 -1.4345  0.9143
   54CHL1  H21B 6456   2.561   4.245   9.141 -0.4449 -1.2753 -0.5290
   54CHL1  H21C 6457   2.620   4.396   9.066  0.1220 -1.3917 -0.5363
   54CHL1   C22 6458   2.402   4.563   9.104 -0.0057  0.4031 -0.3969
   54CHL1  H22A 6459   2.332   4.619   9.171  0.3717 -0.9490  1.1713
   54CHL1  H22B 6460   2.505   4.606   9.098  1.4026 -2.5957  1.1065
   54CHL1   C23 6461   2.346   4.563   8.961 -0.1652  0.2935 -0.7840
   54CHL1  H23A 6462   2.411   4.501   8.896  2.7612  0.8452  1.5154
   54CHL1  H23B 6463   2.247   4.513   8.952 -0.2800  0.4101 -0.1801
   54CHL1   C24 6464   2.348   4.702   8.899  0.3832  0.3939  0.2149
   54CHL1  H24A 6465   2.283   4.763   8.966 -1.4802  1.1634 -2.2387
   54CHL1  H24B 6466   2.445   4.751   8.921  1.0050 -0.2625 -1.0726
   54CHL1   C25 6467   2.300   4.710   8.756  0.0637 -0.1298  1.2119
   54CHL1   H25 6468   2.212   4.647   8.730  0.3198 -0.1054  0.2656
   54CHL1   C26 6469   2.261   4.861   8.721  0.2581 -0.3643 -0.1367
   54CHL1  H26A 6470   2.259   4.865   8.610  1.6946  2.0157 -0.1019
   54CHL1  H26B 6471   2.159   4.877   8.763 -0.0635 -0.4115 -0.8846
   54CHL1  H26C 6472   2.335   4.934   8.761 -2.8272  2.0790  1.3595
   54CHL1   C27 6473   2.415   4.665   8.667 -0.4406 -0.4934 -0.0721
   54CHL1  H27A 6474   2.405   4.702   8.563  1.4255  2.1468  0.6628
   54CHL1  H27B 6475   2.512   4.701   8.705 -0.2174 -0.3076 -0.8073
   54CHL1  H27C 6476   2.429   4.554   8.662 -0.2291 -0.5337  1.3688
   55CHL1    C3 6477   2.616   2.019   9.996  0.0833 -0.0602  0.3023
   55CHL1    H3 6478   2.525   2.078   9.969 -0.1692 -0.5012  0.1843
   55CHL1    O3 6479   2.620   1.988  10.137 -0.1142  0.6294  0.3300
   55CHL1   H3' 6480   2.681   1.915  10.145 -1.9668 -1.0031 -0.0556
   55CHL1    C4 6481   2.619   1.884   9.917  0.6960 -0.1248  0.0747
   55CHL1   H4A 6482   2.693   1.810   9.954 -1.5965 -1.5622  1.9595
   55CHL1   H4B 6483   2.531   1.817   9.932  0.0941  0.9564  1.4045
   55CHL1    C5 6484   2.643   1.896   9.764  0.5003 -0.6593 -0.3141
   55CHL1    C6 6485   2.577   1.827   9.672  0.0509  0.7452 -0.1075
   55CHL1    H6 6486   2.498   1.756   9.699  1.4327 -1.4009 -1.5363
   55CHL1    C7 6487   2.600   1.837   9.524  0.3307 -0.0363 -0.0698
   55CHL1   H7A 6488   2.619   1.734   9.488  1.0056  0.2736 -0.6298
   55CHL1   H7B 6489   2.511   1.876   9.471  0.5485 -2.6300 -2.4083
   55CHL1    C8 6490   2.730   1.916   9.482  0.6708  0.0714  0.8094
   55CHL1    H8 6491   2.808   1.839   9.498  0.9930 -0.1458 -1.5822
   55CHL1   C14 6492   2.733   1.961   9.337  0.3703 -0.2968 -0.2710
   55CHL1   H14 6493   2.654   2.039   9.326  0.1397 -0.6221 -0.9162
   55CHL1   C15 6494   2.702   1.858   9.223 -0.2397 -0.5794  0.1200
   55CHL1  H15A 6495   2.745   1.756   9.233 -1.5911 -1.3892 -1.9195
   55CHL1  H15B 6496   2.594   1.840   9.203 -0.4039 -0.2134  0.6528
   55CHL1   C16 6497   2.754   1.925   9.090 -0.0084 -0.0110 -0.7209
   55CHL1  H16A 6498   2.825   1.854   9.042  0.1228  1.2056 -2.3504
   55CHL1  H16B 6499   2.671   1.947   9.020 -0.3308  1.3433  0.0812
   55CHL1   C17 6500   2.831   2.049   9.138 -0.0582  0.0804 -0.0104
   55CHL1   H17 6501   2.761   2.135   9.135 -0.7118 -0.4039  0.9897
   55CHL1   C13 6502   2.862   2.021   9.287 -0.1491  0.5022 -0.6853
   55CHL1   C18 6503   2.975   1.921   9.302  0.6667  0.5250 -0.2591
   55CHL1  H18A 6504   2.959   1.836   9.232 -0.5421  0.1635  0.4377
   55CHL1  H18B 6505   3.072   1.970   9.278  0.0788  1.0045 -1.7637
   55CHL1  H18C 6506   2.987   1.865   9.397 -0.5264 -0.9670 -0.9672
   55CHL1   C12 6507   2.884   2.148   9.376  0.9045  0.1585  0.5027
   55CHL1  H12A 6508   2.978   2.197   9.343 -0.7981  1.0476 -3.2976
   55CHL1  H12B 6509   2.797   2.213   9.352  0.7851 -0.4599 -0.7760
   55CHL1   C11 6510   2.885   2.114   9.526  0.1546  0.3418 -0.3075
   55CHL1  H11A 6511   2.978   2.056   9.549 -0.5742 -0.5335  0.5000
   55CHL1  H11B 6512   2.889   2.206   9.588 -0.5980  1.7635 -2.3177
   55CHL1    C9 6513   2.760   2.037   9.571  0.0361  0.4878 -0.8404
   55CHL1    H9 6514   2.675   2.108   9.566 -0.1749  0.3444  0.5606
   55CHL1   C10 6515   2.747   1.999   9.725 -0.2147 -0.8105  0.2754
   55CHL1   C19 6516   2.873   1.903   9.750 -0.1248  0.1777  0.8150
   55CHL1  H19A 6517   2.869   1.810   9.690  0.9831  0.2394  0.6336
   55CHL1  H19B 6518   2.966   1.960   9.729  0.4022 -1.4340 -1.3846
   55CHL1  H19C 6519   2.882   1.875   9.857  2.4254 -2.0993  0.0360
   55CHL1    C1 6520   2.752   2.130   9.810 -0.5127 -0.0071 -0.3875
   55CHL1   H1A 6521   2.854   2.172   9.794  0.1237 -1.6250 -0.6214
   55CHL1   H1B 6522   2.671   2.203   9.788 -1.6979 -0.4360  2.3400
   55CHL1    C2 6523   2.733   2.109   9.962  0.0309  0.3379  0.1050
   55CHL1   H2A 6524   2.716   2.208  10.009  0.2296  0.0427  0.8089
   55CHL1   H2B 6525   2.822   2.049   9.991  0.7731  1.3628 -0.0180
   55CHL1   C20 6526   2.945   2.093   9.038  1.0924  0.4368 -0.0889
   55CHL1   H20 6527   3.031   2.024   9.037  2.0306  1.6001 -0.1696
   55CHL1   C21 6528   3.008   2.231   9.082 -0.0605 -0.9032  0.0370
   55CHL1  H21A 6529   3.076   2.229   9.170  2.6251  2.2244 -1.8534
   55CHL1  H21B 6530   2.921   2.295   9.108 -0.3434 -2.0213  1.9436
   55CHL1  H21C 6531   3.063   2.282   9.000  1.2700 -0.6886  1.0350
   55CHL1   C22 6532   2.902   2.106   8.891 -0.1657  0.3241 -0.3762
   55CHL1  H22A 6533   3.000   2.129   8.845  1.1113 -0.9333  1.6173
   55CHL1  H22B 6534   2.877   2.007   8.847  0.3976 -0.1781  0.4236
   55CHL1   C23 6535   2.790   2.215   8.865  0.0364 -0.1412 -0.0795
   55CHL1  H23A 6536   2.702   2.182   8.925 -0.5963  1.1080 -0.3001
   55CHL1  H23B 6537   2.825   2.312   8.906  1.1775 -1.6919  2.6912
   55CHL1   C24 6538   2.770   2.229   8.714 -0.7550  0.4955  0.1824
   55CHL1  H24A 6539   2.868   2.243   8.664 -0.5751  1.1058  0.6983
   55CHL1  H24B 6540   2.728   2.130   8.687 -0.6187  0.7648 -1.0233
   55CHL1   C25 6541   2.676   2.343   8.674  0.6525 -0.2035  0.1932
   55CHL1   H25 6542   2.589   2.310   8.734  0.2203  0.2333 -0.1901
   55CHL1   C26 6543   2.734   2.485   8.705  0.2918 -0.3044  0.0375
   55CHL1  H26A 6544   2.808   2.527   8.634  1.6074 -1.0446  0.9444
   55CHL1  H26B 6545   2.655   2.561   8.722  1.0522  1.0418 -2.3175
   55CHL1  H26C 6546   2.778   2.484   8.807 -0.6163 -1.7843  0.4364
   55CHL1   C27 6547   2.626   2.329   8.531  0.5205  0.0628  0.1068
   55CHL1  H27A 6548   2.560   2.412   8.499  0.9495  1.0452  1.6858
   55CHL1  H27B 6549   2.707   2.306   8.459  1.2694  1.2624  0.5585
   55CHL1  H27C 6550   2.565   2.238   8.513 -0.8411  1.1007 -0.5818
   56CHL1    C3 6551   0.388   0.770  10.005 -1.1150 -0.0497 -0.2924
   56CHL1    H3 6552   0.335   0.859   9.966 -0.3601 -0.1882 -1.6390
   56CHL1    O3 6553   0.381   0.757  10.151 -0.3499 -0.0947  0.3400
   56CHL1   H3' 6554   0.453   0.699  10.177  0.6905  0.6014 -0.8773
   56CHL1    C4 6555   0.314   0.650   9.950  0.1703 -0.4504  0.8432
   56CHL1   H4A 6556   0.351   0.555   9.992 -0.7817 -2.0608 -1.8099
   56CHL1   H4B 6557   0.211   0.666   9.989  0.7563  2.1857  1.4471
   56CHL1    C5 6558   0.322   0.653   9.796 -0.1052  0.1085 -0.2633
   56CHL1    C6 6559   0.214   0.661   9.717  0.1016  0.2407 -0.2756
   56CHL1    H6 6560   0.117   0.663   9.769 -0.4591 -0.0959 -1.2860
   56CHL1    C7 6561   0.215   0.660   9.567  0.1691  0.0434 -0.1969
   56CHL1   H7A 6562   0.134   0.593   9.532  0.7871 -0.4576 -0.6656
   56CHL1   H7B 6563   0.194   0.768   9.547  0.2740 -0.0718 -0.9258
   56CHL1    C8 6564   0.353   0.623   9.508  0.5838 -0.2509  0.1589
   56CHL1    H8 6565   0.371   0.515   9.526  0.0222 -0.6180 -1.4733
   56CHL1   C14 6566   0.354   0.661   9.362 -0.2013  0.4207  0.2275
   56CHL1   H14 6567   0.358   0.772   9.358  1.4136  0.3917  0.4853
   56CHL1   C15 6568   0.229   0.611   9.273 -0.4091  0.5718  0.8904
   56CHL1  H15A 6569   0.215   0.505   9.305  1.1081 -0.6450 -2.2969
   56CHL1  H15B 6570   0.135   0.665   9.295  0.3129  2.4254 -0.4356
   56CHL1   C16 6571   0.290   0.621   9.137  0.2446  0.1071  0.0068
   56CHL1  H16A 6572   0.299   0.526   9.080 -0.9805 -1.2235  1.9712
   56CHL1  H16B 6573   0.249   0.701   9.072  1.3490 -0.4601 -1.3918
   56CHL1   C17 6574   0.441   0.672   9.146  0.1504 -0.0774 -1.3057
   56CHL1   H17 6575   0.456   0.782   9.136 -1.9159  0.7887  3.6093
   56CHL1   C13 6576   0.479   0.618   9.285 -0.8784 -0.4426  0.9174
   56CHL1   C18 6577   0.496   0.465   9.283  0.1803  0.5277  0.5932
   56CHL1  H18A 6578   0.452   0.416   9.373 -0.5735  0.6030  0.2677
   56CHL1  H18B 6579   0.443   0.419   9.198  0.6445  2.3165 -0.6943
   56CHL1  H18C 6580   0.603   0.436   9.273 -0.0814 -0.0571 -0.4821
   56CHL1   C12 6581   0.597   0.703   9.348 -0.2885  0.9693 -0.2248
   56CHL1  H12A 6582   0.686   0.650   9.307  0.2304  1.1489  0.6473
   56CHL1  H12B 6583   0.586   0.809   9.317 -0.5396  0.2535 -2.6906
   56CHL1   C11 6584   0.604   0.671   9.504 -0.0748 -0.1759 -0.9653
   56CHL1  H11A 6585   0.637   0.565   9.513  1.5227  0.5703  2.5022
   56CHL1  H11B 6586   0.680   0.740   9.545  1.2452 -1.0578 -1.8853
   56CHL1    C9 6587   0.467   0.692   9.579 -0.4688  0.3468 -1.2073
   56CHL1    H9 6588   0.448   0.801   9.580 -1.2228  0.2365  1.6914
   56CHL1   C10 6589   0.462   0.659   9.736 -0.2705 -0.5193 -0.7488
   56CHL1   C19 6590   0.528   0.516   9.748 -0.1135 -0.0583  0.0121
   56CHL1  H19A 6591   0.636   0.511   9.723  0.2045 -1.2745  1.5653
   56CHL1  H19B 6592   0.509   0.477   9.850  1.0837  0.9306  0.6170
   56CHL1  H19C 6593   0.482   0.442   9.679  0.3629 -2.2860  2.0025
   56CHL1    C1 6594   0.545   0.768   9.807 -0.7784 -0.0394  1.1122
   56CHL1   H1A 6595   0.648   0.765   9.766 -1.7099 -2.2085 -1.2035
   56CHL1   H1B 6596   0.501   0.867   9.781  0.6997 -0.0894 -1.6949
   56CHL1    C2 6597   0.536   0.767   9.961  0.1313 -0.2549 -0.0856
   56CHL1   H2A 6598   0.597   0.848  10.007 -0.9151 -0.3284  1.5042
   56CHL1   H2B 6599   0.578   0.671  10.000  0.8896  0.3576  0.6044
   56CHL1   C20 6600   0.521   0.621   9.021  0.4108  0.2119  0.5401
   56CHL1   H20 6601   0.520   0.511   9.032  1.8378 -0.0495 -1.4855
   56CHL1   C21 6602   0.667   0.668   9.032 -0.1297  0.4533 -0.3515
   56CHL1  H21A 6603   0.720   0.595   9.096 -0.2427 -0.4076 -1.2208
   56CHL1  H21B 6604   0.667   0.769   9.079 -0.1865 -0.2053  1.0893
   56CHL1  H21C 6605   0.715   0.683   8.933  2.0906  0.7030  0.7304
   56CHL1   C22 6606   0.461   0.664   8.884 -1.0489 -0.5903  0.1148
   56CHL1  H22A 6607   0.352   0.645   8.885 -1.0437 -0.7618 -1.6492
   56CHL1  H22B 6608   0.472   0.774   8.872 -3.4705 -0.3362  0.0723
   56CHL1   C23 6609   0.517   0.581   8.768  0.0721  0.4403 -0.0896
   56CHL1  H23A 6610   0.627   0.599   8.762  0.0887  0.2442 -0.3756
   56CHL1  H23B 6611   0.516   0.472   8.790 -0.6247  0.7010  1.2153
   56CHL1   C24 6612   0.448   0.618   8.640  0.1595  0.2391 -0.2507
   56CHL1  H24A 6613   0.362   0.548   8.633  1.4510 -1.5035  1.0057
   56CHL1  H24B 6614   0.407   0.721   8.648 -3.5807 -1.0195 -2.2273
   56CHL1   C25 6615   0.527   0.605   8.505 -0.4128 -0.2689  0.2811
   56CHL1   H25 6616   0.617   0.544   8.528  0.1040 -0.0006 -1.0058
   56CHL1   C26 6617   0.444   0.519   8.402 -0.1014  0.5691 -0.1762
   56CHL1  H26A 6618   0.350   0.577   8.394  0.1784  0.8584 -1.5056
   56CHL1  H26B 6619   0.493   0.517   8.302  0.0246  2.3492 -0.1738
   56CHL1  H26C 6620   0.420   0.417   8.437  1.8210 -0.9902 -3.1881
   56CHL1   C27 6621   0.559   0.746   8.454  0.5044 -0.0472  0.0615
   56CHL1  H27A 6622   0.632   0.794   8.523  1.9916 -1.0599 -0.7763
   56CHL1  H27B 6623   0.587   0.740   8.347  1.5482 -0.1968  0.3364
   56CHL1  H27C 6624   0.473   0.815   8.454 -0.3854 -1.1366 -0.6736
   57CHL1    C3 6625   2.980   3.329  10.242 -0.8867 -0.5516  0.5026
   57CHL1    H3 6626   2.948   3.435  10.226  0.1853 -0.1932  0.6771
   57CHL1    O3 6627   2.957   3.288  10.376 -0.0790 -0.5110  0.1682
   57CHL1   H3' 6628   3.010   3.352  10.424 -0.9111  0.2832  0.0411
   57CHL1    C4 6629   2.903   3.229  10.153 -0.4508  0.8119 -0.6835
   57CHL1   H4A 6630   2.912   3.125  10.191  0.7470  0.7922 -1.0053
   57CHL1   H4B 6631   2.797   3.255  10.173 -0.2040  2.7822 -1.7491
   57CHL1    C5 6632   2.937   3.228  10.006 -0.3673  0.1294  0.7686
   57CHL1    C6 6633   2.851   3.246   9.907 -0.4280 -0.1996 -0.0761
   57CHL1    H6 6634   2.743   3.247   9.927 -0.2434 -0.3960  0.9645
   57CHL1    C7 6635   2.887   3.245   9.763 -0.0623  0.7350 -0.6304
   57CHL1   H7A 6636   2.804   3.190   9.713  0.6793  0.7730 -1.9458
   57CHL1   H7B 6637   2.892   3.348   9.722  2.7647 -0.2866 -3.0842
   57CHL1    C8 6638   3.014   3.164   9.737  0.0306  0.0342 -0.1933
   57CHL1    H8 6639   3.002   3.060   9.774  2.4394 -0.2476 -0.0847
   57CHL1   C14 6640   3.051   3.155   9.598 -0.3188 -0.2198  0.4868
   57CHL1   H14 6641   3.073   3.259   9.567 -1.4446 -0.0076  0.3628
   57CHL1   C15 6642   2.942   3.099   9.499  0.5965  0.4906 -0.2415
   57CHL1  H15A 6643   2.893   3.013   9.549  1.3933  0.7382  0.9880
   57CHL1  H15B 6644   2.857   3.166   9.476 -0.5785 -1.0473 -0.4996
   57CHL1   C16 6645   3.015   3.054   9.374  0.7324 -0.0818  0.2364
   57CHL1  H16A 6646   3.011   2.943   9.361 -1.3118  0.1756 -1.5221
   57CHL1  H16B 6647   2.967   3.109   9.290  0.0665 -0.6138  0.2691
   57CHL1   C17 6648   3.172   3.081   9.403 -0.0100 -0.5355 -0.3480
   57CHL1   H17 6649   3.185   3.191   9.389 -2.9966  0.0335  0.8430
   57CHL1   C13 6650   3.180   3.073   9.565 -0.0835 -0.7384  0.8386
   57CHL1   C18 6651   3.162   2.928   9.612  0.5040 -0.7697  0.2900
   57CHL1  H18A 6652   3.256   2.871   9.594  0.8574  0.8961 -3.6243
   57CHL1  H18B 6653   3.142   2.921   9.721 -1.3348  0.5987  0.0558
   57CHL1  H18C 6654   3.082   2.881   9.551  0.5910 -0.7687  0.1742
   57CHL1   C12 6655   3.292   3.147   9.638  0.0859 -0.5966  0.1862
   57CHL1  H12A 6656   3.387   3.088   9.638 -1.2798 -2.8742 -1.1210
   57CHL1  H12B 6657   3.317   3.241   9.584 -2.3325 -0.9136 -1.5214
   57CHL1   C11 6658   3.265   3.174   9.788  0.0210  0.3173 -0.1886
   57CHL1  H11A 6659   3.279   3.074   9.835 -1.3180  1.7356  3.3579
   57CHL1  H11B 6660   3.350   3.233   9.829 -0.7783 -0.3828  2.5757
   57CHL1    C9 6661   3.124   3.227   9.822  0.5191 -0.0077  0.6455
   57CHL1    H9 6662   3.133   3.337   9.804 -0.3745  0.2901  1.9346
   57CHL1   C10 6663   3.087   3.216   9.980  0.6608  0.4458 -1.0828
   57CHL1   C19 6664   3.127   3.079  10.032 -0.1654 -0.2762  0.4908
   57CHL1  H19A 6665   3.077   3.035  10.121 -0.6625 -0.7409 -0.0156
   57CHL1  H19B 6666   3.115   3.011   9.944  1.4671  1.2997 -0.9937
   57CHL1  H19C 6667   3.236   3.067  10.053  0.0020  2.1091  1.1197
   57CHL1    C1 6668   3.164   3.322  10.061  0.2929  0.4132  1.3910
   57CHL1   H1A 6669   3.273   3.308  10.043  0.2174 -0.1722  1.3960
   57CHL1   H1B 6670   3.141   3.423  10.019  0.6345 -0.2259 -0.3692
   57CHL1    C2 6671   3.133   3.314  10.210 -0.5407 -0.4447 -0.4224
   57CHL1   H2A 6672   3.185   3.384  10.279  1.5918 -0.7745 -1.6599
   57CHL1   H2B 6673   3.162   3.211  10.239  0.1324 -0.0475  0.3212
   57CHL1   C20 6674   3.263   3.009   9.309  0.1352 -1.0682  0.2296
   57CHL1   H20 6675   3.235   2.902   9.318 -1.4791 -0.5967  1.0283
   57CHL1   C21 6676   3.412   3.025   9.344  0.5988 -0.4466 -0.6577
   57CHL1  H21A 6677   3.436   2.986   9.445 -0.8013  0.6874  0.1346
   57CHL1  H21B 6678   3.429   3.135   9.350 -1.0249 -0.3103  2.4352
   57CHL1  H21C 6679   3.483   2.979   9.273  0.9485 -1.2522  0.2060
   57CHL1   C22 6680   3.245   3.041   9.158  0.0775  0.1713 -0.7188
   57CHL1  H22A 6681   3.143   3.028   9.116 -0.6637  3.7468 -0.1903
   57CHL1  H22B 6682   3.275   3.140   9.119 -1.4670  1.1341  0.5148
   57CHL1   C23 6683   3.332   2.952   9.070  0.6907  1.4986 -0.1005
   57CHL1  H23A 6684   3.439   2.940   9.096  0.6046 -0.4493 -0.5265
   57CHL1  H23B 6685   3.286   2.850   9.066 -0.9743  2.1731  1.1037
   57CHL1   C24 6686   3.329   3.009   8.925  0.6131  0.3393  0.9758
   57CHL1  H24A 6687   3.224   3.024   8.892  1.3698 -0.4494 -1.9643
   57CHL1  H24B 6688   3.386   3.104   8.926  2.8765 -0.8608 -2.9560
   57CHL1   C25 6689   3.401   2.917   8.833  0.6206 -1.4166 -0.1518
   57CHL1   H25 6690   3.365   2.812   8.834 -1.5876 -0.7091 -0.9594
   57CHL1   C26 6691   3.384   2.955   8.690  0.0615 -0.6039  0.1887
   57CHL1  H26A 6692   3.428   3.056   8.676 -0.2975 -0.5809 -0.8240
   57CHL1  H26B 6693   3.418   2.886   8.610  0.4024 -0.5695  0.3024
   57CHL1  H26C 6694   3.278   2.973   8.660  0.7193  1.2283 -1.1873
   57CHL1   C27 6695   3.550   2.909   8.855 -0.6224 -0.0408 -0.2304
   57CHL1  H27A 6696   3.576   2.824   8.922 -0.6583  0.5209  0.5130
   57CHL1  H27B 6697   3.609   2.898   8.762 -0.4775 -1.8889  0.0587
   57CHL1  H27C 6698   3.581   3.000   8.912  0.0765 -0.2794 -0.2245
   58CHL1    C3 6699   5.761   2.330  10.219  0.8556  0.5768  0.5616
   58CHL1    H3 6700   5.658   2.337  10.178  0.8885 -1.2825  0.1099
   58CHL1    O3 6701   5.747   2.320  10.357 -0.1427 -0.0529 -0.1836
   58CHL1   H3' 6702   5.809   2.383  10.394 -0.0252  0.9131 -1.9896
   58CHL1    C4 6703   5.858   2.223  10.163 -0.5298 -0.0369 -0.1810
   58CHL1   H4A 6704   5.961   2.247  10.198 -0.1674 -0.7177 -0.7662
   58CHL1   H4B 6705   5.831   2.122  10.201  0.3062 -0.2133 -0.0532
   58CHL1    C5 6706   5.875   2.222  10.011  0.1257  0.1863  0.1969
   58CHL1    C6 6707   5.842   2.108   9.944 -0.5736  0.4235 -0.9312
   58CHL1    H6 6708   5.799   2.019   9.992  1.0465  0.7332  1.1835
   58CHL1    C7 6709   5.850   2.102   9.791 -0.1974 -0.1508  0.0993
   58CHL1   H7A 6710   5.889   2.000   9.767 -0.0843 -0.6455  2.2964
   58CHL1   H7B 6711   5.749   2.124   9.752  0.0798  1.0902  0.0704
   58CHL1    C8 6712   5.944   2.213   9.734  0.0745 -0.2699  0.6774
   58CHL1    H8 6713   6.050   2.186   9.753  1.0146  0.8355 -2.6197
   58CHL1   C14 6714   5.930   2.219   9.581  0.6185  0.2764 -0.1478
   58CHL1   H14 6715   5.821   2.239   9.575  0.7433  0.8829 -0.4836
   58CHL1   C15 6716   5.956   2.089   9.504  0.3934 -0.6306  0.0397
   58CHL1  H15A 6717   6.052   2.047   9.540  0.7951 -0.1953 -0.5263
   58CHL1  H15B 6718   5.866   2.024   9.513 -0.7172  0.9025  0.1065
   58CHL1   C16 6719   5.962   2.148   9.360 -0.1451  0.2768  0.3149
   58CHL1  H16A 6720   6.040   2.108   9.291  1.4162  0.8191  1.7293
   58CHL1  H16B 6721   5.866   2.136   9.305  0.0350  0.0399  0.0469
   58CHL1   C17 6722   5.971   2.305   9.373 -0.6753 -0.2582 -0.0032
   58CHL1   H17 6723   5.868   2.343   9.352 -1.7470 -2.2952  1.4233
   58CHL1   C13 6724   6.002   2.335   9.513  0.5113 -0.2334 -0.3240
   58CHL1   C18 6725   6.153   2.329   9.531 -0.2881 -0.5864  0.4230
   58CHL1  H18A 6726   6.190   2.433   9.521 -2.0050 -0.1745 -1.7980
   58CHL1  H18B 6727   6.186   2.299   9.633 -0.7170 -0.3736  0.6262
   58CHL1  H18C 6728   6.206   2.253   9.470  0.8544 -0.3630  1.1191
   58CHL1   C12 6729   5.933   2.455   9.578 -0.1263 -0.8499  0.0103
   58CHL1  H12A 6730   5.964   2.551   9.532 -0.6075 -0.2587  0.8969
   58CHL1  H12B 6731   5.825   2.444   9.555  0.2306  0.6849 -2.5874
   58CHL1   C11 6732   5.962   2.467   9.731 -0.0875 -0.0601  0.0720
   58CHL1  H11A 6733   6.072   2.477   9.736 -0.0290  0.0760 -1.4197
   58CHL1  H11B 6734   5.916   2.560   9.771  0.1883 -0.3593  1.0946
   58CHL1    C9 6735   5.903   2.346   9.805  0.4336 -0.7610  0.0106
   58CHL1    H9 6736   5.793   2.350   9.792  0.4268  1.0222  0.5482
   58CHL1   C10 6737   5.922   2.359   9.958 -0.1427  0.4933 -0.5190
   58CHL1   C19 6738   6.073   2.386   9.990 -0.7007 -0.3420  0.7619
   58CHL1  H19A 6739   6.091   2.492   9.960 -2.1627 -0.6967 -1.5187
   58CHL1  H19B 6740   6.085   2.381  10.100 -2.3426 -0.8155  0.9162
   58CHL1  H19C 6741   6.139   2.312   9.940 -0.9988 -0.2229  0.1871
   58CHL1    C1 6742   5.821   2.467  10.022 -0.3367 -0.1922  0.1827
   58CHL1   H1A 6743   5.846   2.566   9.977  2.3637 -0.7548  0.3765
   58CHL1   H1B 6744   5.718   2.436   9.995 -1.5538  3.4944  0.2720
   58CHL1    C2 6745   5.822   2.463  10.173 -0.5354 -0.3371 -0.1119
   58CHL1   H2A 6746   5.774   2.549  10.224  2.2184  0.4178  1.3169
   58CHL1   H2B 6747   5.929   2.478  10.201 -0.4889 -2.4950  0.9010
   58CHL1   C20 6748   6.058   2.370   9.263 -0.1327  0.8216  0.6039
   58CHL1   H20 6749   6.156   2.319   9.257 -0.7668 -0.3736  0.1144
   58CHL1   C21 6750   6.074   2.522   9.274 -0.6178 -0.3243 -0.2189
   58CHL1  H21A 6751   5.979   2.575   9.296 -0.5617 -0.3302  0.0337
   58CHL1  H21B 6752   6.117   2.572   9.185  0.5686 -0.0603  0.4891
   58CHL1  H21C 6753   6.148   2.538   9.356 -1.7442 -1.4561  1.0290
   58CHL1   C22 6754   5.983   2.354   9.118 -0.1246  0.2989  0.0466
   58CHL1  H22A 6755   5.960   2.246   9.120  2.2540 -0.2185  1.1704
   58CHL1  H22B 6756   5.893   2.419   9.106  0.5018  0.8090 -1.9866
   58CHL1   C23 6757   6.080   2.376   8.999  0.5658  0.3076  0.1798
   58CHL1  H23A 6758   6.156   2.449   9.033  0.6526 -0.1104  0.8841
   58CHL1  H23B 6759   6.133   2.278   8.995 -2.7692 -1.5882  0.5950
   58CHL1   C24 6760   6.018   2.396   8.856  0.0923  0.4907 -0.3623
   58CHL1  H24A 6761   6.093   2.388   8.776 -0.6557  0.0822 -1.0244
   58CHL1  H24B 6762   5.946   2.313   8.842 -0.6806  1.0748  0.0695
   58CHL1   C25 6763   5.947   2.531   8.831 -0.1243  0.2682 -0.0733
   58CHL1   H25 6764   5.857   2.548   8.894 -1.7158 -1.1875 -1.9101
   58CHL1   C26 6765   6.045   2.647   8.864  0.2882  0.4339 -0.2918
   58CHL1  H26A 6766   6.092   2.631   8.963  0.3782 -0.2220 -0.4388
   58CHL1  H26B 6767   6.127   2.667   8.791  1.1568  1.0793  0.8323
   58CHL1  H26C 6768   5.989   2.741   8.882  1.7614  0.8497  2.3700
   58CHL1   C27 6769   5.893   2.544   8.686  0.0249 -0.0646 -0.4782
   58CHL1  H27A 6770   5.978   2.554   8.615 -0.4715  0.6482 -0.9734
   58CHL1  H27B 6771   5.846   2.449   8.651 -1.5176  0.2881  0.5918
   58CHL1  H27C 6772   5.828   2.632   8.670  0.7686  0.8786  1.5470
   59CHL1    C3 6773   5.380   1.270  10.218  0.8517  0.3380 -0.2108
   59CHL1    H3 6774   5.466   1.332  10.185 -0.3357  2.2534  0.2030
   59CHL1    O3 6775   5.386   1.266  10.361 -0.0213  0.6496  0.0121
   59CHL1   H3' 6776   5.329   1.338  10.389  1.8550  2.1597  0.0727
   59CHL1    C4 6777   5.261   1.333  10.159  0.3698 -0.0622 -0.4476
   59CHL1   H4A 6778   5.175   1.266  10.181  1.2529 -0.8078  0.8082
   59CHL1   H4B 6779   5.234   1.424  10.216  1.2187  0.3490 -0.6882
   59CHL1    C5 6780   5.276   1.361  10.011  0.2947  0.4283 -0.3182
   59CHL1    C6 6781   5.284   1.487   9.959 -0.3047  0.1848  0.1460
   59CHL1    H6 6782   5.268   1.579  10.018  2.7096  2.6660 -2.6695
   59CHL1    C7 6783   5.306   1.510   9.813  0.2402  0.0143  0.0033
   59CHL1   H7A 6784   5.224   1.578   9.783 -0.7524 -0.5079  1.4557
   59CHL1   H7B 6785   5.406   1.558   9.801  1.1555 -1.7706  0.2939
   59CHL1    C8 6786   5.292   1.384   9.719 -0.3252 -0.0197 -0.4013
   59CHL1    H8 6787   5.183   1.366   9.710 -0.3180 -0.3263  0.1342
   59CHL1   C14 6788   5.340   1.404   9.579 -0.0730  0.6962  0.6852
   59CHL1   H14 6789   5.440   1.453   9.571 -0.0866  0.4512 -1.2194
   59CHL1   C15 6790   5.267   1.515   9.493 -0.2359 -0.2434  0.2395
   59CHL1  H15A 6791   5.157   1.503   9.496 -0.4255  1.0651 -1.1553
   59CHL1  H15B 6792   5.290   1.618   9.527 -2.7109  0.3720  0.1097
   59CHL1   C16 6793   5.319   1.485   9.354 -0.0656 -0.5068  0.7227
   59CHL1  H16A 6794   5.236   1.476   9.281 -0.9758  1.3529  1.4904
   59CHL1  H16B 6795   5.393   1.562   9.325  1.3786 -1.7885  0.9377
   59CHL1   C17 6796   5.396   1.346   9.352 -0.0047 -0.7346  0.2282
   59CHL1   H17 6797   5.502   1.379   9.352 -0.1440 -0.2344  2.6626
   59CHL1   C13 6798   5.356   1.282   9.490  0.1295 -0.1805 -0.6048
   59CHL1   C18 6799   5.219   1.216   9.473 -0.2439 -0.2875 -0.2312
   59CHL1  H18A 6800   5.175   1.194   9.573 -0.4342 -0.8529 -0.4375
   59CHL1  H18B 6801   5.149   1.270   9.405  0.6207  0.3242 -0.6419
   59CHL1  H18C 6802   5.231   1.117   9.423  0.8035 -0.4319  0.3040
   59CHL1   C12 6803   5.460   1.194   9.568 -0.1316 -0.0558  0.5814
   59CHL1  H12A 6804   5.517   1.114   9.515 -0.1761  0.2804  0.0254
   59CHL1  H12B 6805   5.541   1.266   9.595  0.4333 -0.9236  1.2214
   59CHL1   C11 6806   5.401   1.144   9.702  0.4297  0.1976  0.5026
   59CHL1  H11A 6807   5.311   1.081   9.687  0.4330 -0.4713  2.9326
   59CHL1  H11B 6808   5.467   1.082   9.768 -0.4781  1.4792  2.6809
   59CHL1    C9 6809   5.367   1.270   9.790 -0.2780  0.0636  0.7000
   59CHL1    H9 6810   5.472   1.307   9.795  0.3368 -0.9729 -3.2505
   59CHL1   C10 6811   5.308   1.232   9.928  0.6622 -0.0285 -0.5609
   59CHL1   C19 6812   5.174   1.155   9.913 -0.3706 -0.7031  0.0094
   59CHL1  H19A 6813   5.142   1.110  10.010  0.8047 -0.4686  0.5098
   59CHL1  H19B 6814   5.095   1.220   9.871 -0.2579 -0.6482 -0.1158
   59CHL1  H19C 6815   5.185   1.066   9.847 -1.3937 -1.2742  0.5915
   59CHL1    C1 6816   5.412   1.143  10.006 -0.3668 -0.6134 -0.7276
   59CHL1   H1A 6817   5.401   1.041   9.964 -1.0104 -1.2651  0.9661
   59CHL1   H1B 6818   5.511   1.193  10.007 -1.4853  1.7176  0.2288
   59CHL1    C2 6819   5.391   1.130  10.155 -0.3372  0.0706 -0.5053
   59CHL1   H2A 6820   5.475   1.070  10.196 -0.6033 -0.4861 -0.7736
   59CHL1   H2B 6821   5.300   1.066  10.156 -1.7099  1.9834 -0.8938
   59CHL1   C20 6822   5.366   1.263   9.223  0.6932  0.5957 -0.9736
   59CHL1   H20 6823   5.258   1.240   9.225  0.9063 -0.5064 -2.0279
   59CHL1   C21 6824   5.454   1.142   9.231 -0.2429 -0.3956 -0.4634
   59CHL1  H21A 6825   5.417   1.059   9.168 -1.5592 -1.0695  1.1496
   59CHL1  H21B 6826   5.440   1.096   9.331 -0.8317  0.4322 -0.1551
   59CHL1  H21C 6827   5.563   1.162   9.223 -0.3503 -0.1210 -1.2729
   59CHL1   C22 6828   5.409   1.352   9.099 -1.0006 -0.0976  0.0629
   59CHL1  H22A 6829   5.356   1.449   9.088 -1.1440 -0.3134 -1.2141
   59CHL1  H22B 6830   5.516   1.380   9.109 -0.7814 -1.7706  3.2585
   59CHL1   C23 6831   5.396   1.273   8.967  0.0118 -0.6411 -0.1968
   59CHL1  H23A 6832   5.440   1.172   8.982  0.0904 -0.3078  1.9701
   59CHL1  H23B 6833   5.287   1.270   8.945  0.2124 -0.6650 -1.1878
   59CHL1   C24 6834   5.477   1.341   8.856 -0.1637 -0.3409  0.4027
   59CHL1  H24A 6835   5.453   1.449   8.860  1.6930  0.0134  2.6321
   59CHL1  H24B 6836   5.584   1.346   8.887 -0.4544 -1.8531  1.6676
   59CHL1   C25 6837   5.472   1.268   8.717 -0.5292  0.0705  0.2736
   59CHL1   H25 6838   5.491   1.159   8.733  1.4793  0.3637  0.0695
   59CHL1   C26 6839   5.327   1.295   8.664 -0.0328  0.4709  0.0767
   59CHL1  H26A 6840   5.329   1.254   8.561  1.9882 -1.7139  0.9200
   59CHL1  H26B 6841   5.257   1.236   8.727  1.0030  0.9700  1.7254
   59CHL1  H26C 6842   5.307   1.404   8.670  0.8440  0.8021 -2.4988
   59CHL1   C27 6843   5.591   1.315   8.628  0.0871  0.3065  0.5940
   59CHL1  H27A 6844   5.594   1.284   8.522 -0.9193  1.7795  0.1164
   59CHL1  H27B 6845   5.594   1.426   8.625  1.6030  0.3299  2.1086
   59CHL1  H27C 6846   5.686   1.284   8.678 -0.1775 -1.6402 -0.0787
   60CHL1    C3 6847   4.381   1.161  10.362 -0.0736 -0.1092  0.5851
   60CHL1    H3 6848   4.383   1.257  10.306 -1.0359 -0.2341  0.3231
   60CHL1    O3 6849   4.305   1.154  10.476  0.3372  0.6331 -0.8260
   60CHL1   H3' 6850   4.357   1.173  10.555  0.4562 -2.6581 -0.0312
   60CHL1    C4 6851   4.319   1.059  10.270  0.3018 -0.0788  0.4011
   60CHL1   H4A 6852   4.314   0.965  10.329  1.2076  0.0085  0.6235
   60CHL1   H4B 6853   4.213   1.084  10.249  0.6016  2.7283  2.0104
   60CHL1    C5 6854   4.385   1.037  10.137  0.0004  0.0406  0.4174
   60CHL1    C6 6855   4.318   1.068  10.025  0.7201 -0.0364 -0.3829
   60CHL1    H6 6856   4.211   1.091  10.022  0.7204 -0.1700 -1.6804
   60CHL1    C7 6857   4.380   1.055   9.891  0.0968  0.2776  0.7325
   60CHL1   H7A 6858   4.313   0.991   9.829  0.7910 -0.0147  0.2867
   60CHL1   H7B 6859   4.394   1.156   9.846  2.1704 -0.3031  0.0351
   60CHL1    C8 6860   4.518   0.987   9.886  0.8105 -0.0202  0.1340
   60CHL1    H8 6861   4.511   0.877   9.902  0.7665 -0.0463 -0.0753
   60CHL1   C14 6862   4.576   1.026   9.754 -0.0967 -0.2283  0.2316
   60CHL1   H14 6863   4.597   1.135   9.753  2.4260 -0.6850 -1.2539
   60CHL1   C15 6864   4.497   0.985   9.629 -0.5634  0.1599 -0.3410
   60CHL1  H15A 6865   4.466   0.878   9.639  1.5455 -0.3008  1.5306
   60CHL1  H15B 6866   4.412   1.054   9.610  0.3783  1.6780  0.9494
   60CHL1   C16 6867   4.609   0.994   9.519 -0.4752 -0.2439 -0.9706
   60CHL1  H16A 6868   4.622   0.905   9.454  1.2214 -1.4660  0.9696
   60CHL1  H16B 6869   4.601   1.090   9.463  2.3064  1.0590  0.7753
   60CHL1   C17 6870   4.750   1.008   9.588 -0.4623  0.1791 -0.2053
   60CHL1   H17 6871   4.776   1.115   9.571 -2.8679  0.9271  0.7294
   60CHL1   C13 6872   4.722   0.975   9.733 -0.8212 -0.3935 -0.0701
   60CHL1   C18 6873   4.720   0.822   9.737 -1.4214 -0.3042 -0.2104
   60CHL1  H18A 6874   4.662   0.782   9.651 -0.5974 -1.6095 -0.1692
   60CHL1  H18B 6875   4.817   0.769   9.724 -0.9415  0.9294 -1.8650
   60CHL1  H18C 6876   4.680   0.781   9.832 -2.0924 -1.0801 -0.8159
   60CHL1   C12 6877   4.812   1.018   9.849  0.1880 -0.1659 -0.2303
   60CHL1  H12A 6878   4.912   0.970   9.851 -0.7116 -2.0333  1.3141
   60CHL1  H12B 6879   4.837   1.126   9.848 -0.6322  0.0414  0.4665
   60CHL1   C11 6880   4.744   0.982   9.987  0.3180  0.0115  0.1645
   60CHL1  H11A 6881   4.750   0.872  10.004  1.1670 -0.0319 -0.4323
   60CHL1  H11B 6882   4.808   1.034  10.061  1.3308 -0.3964 -0.4174
   60CHL1    C9 6883   4.602   1.032  10.002  0.4679 -0.1117  0.5695
   60CHL1    H9 6884   4.603   1.143   9.995  1.3635 -0.1810 -0.6043
   60CHL1   C10 6885   4.535   1.010  10.142  0.1082 -0.0354  0.1355
   60CHL1   C19 6886   4.553   0.861  10.182  0.0124  0.0922  0.4097
   60CHL1  H19A 6887   4.513   0.793  10.104  1.8605  2.0259 -2.2992
   60CHL1  H19B 6888   4.659   0.830  10.194  0.2525  1.3652  1.7633
   60CHL1  H19C 6889   4.498   0.844  10.277  1.2614  0.6136  1.2268
   60CHL1    C1 6890   4.600   1.109  10.250  0.1758  0.1211 -0.6815
   60CHL1   H1A 6891   4.707   1.078  10.259 -0.4285 -2.1119 -0.8513
   60CHL1   H1B 6892   4.613   1.210  10.207 -2.5901  0.2129 -1.3759
   60CHL1    C2 6893   4.525   1.121  10.382 -0.5087 -0.0868 -0.2624
   60CHL1   H2A 6894   4.572   1.198  10.446 -0.7089  0.5489 -0.8699
   60CHL1   H2B 6895   4.529   1.023  10.434 -0.2161  1.3329  2.4722
   60CHL1   C20 6896   4.862   0.934   9.515  0.1684 -0.3507  0.0436
   60CHL1   H20 6897   4.846   0.825   9.526 -0.5925 -0.1380  1.0632
   60CHL1   C21 6898   4.999   0.968   9.583  0.2593  0.1928  0.0901
   60CHL1  H21A 6899   5.002   1.078   9.599  1.2424  0.1252  0.3448
   60CHL1  H21B 6900   5.089   0.943   9.523  1.1987 -0.5219  1.7874
   60CHL1  H21C 6901   5.013   0.919   9.681  1.1555  1.1122  0.4335
   60CHL1   C22 6902   4.876   0.965   9.362  0.7197 -0.5281 -0.2783
   60CHL1  H22A 6903   4.774   0.966   9.318 -0.3131 -2.0946  1.9685
   60CHL1  H22B 6904   4.917   1.068   9.358 -1.1003  0.2373  0.3966
   60CHL1   C23 6905   4.972   0.881   9.277 -0.4962 -0.5733 -0.2385
   60CHL1  H23A 6906   5.073   0.923   9.291 -0.6709  0.2377 -1.3935
   60CHL1  H23B 6907   4.971   0.775   9.312  1.8012 -0.9080 -1.1526
   60CHL1   C24 6908   4.926   0.879   9.128  0.9683  0.6220 -0.4878
   60CHL1  H24A 6909   4.984   0.812   9.061  1.1640  1.4557 -1.1551
   60CHL1  H24B 6910   4.826   0.832   9.130  1.2206  0.1231  0.7693
   60CHL1   C25 6911   4.921   1.016   9.059 -0.3304  0.1237 -0.0650
   60CHL1   H25 6912   4.859   1.088   9.115 -0.8676 -0.8488  0.5974
   60CHL1   C26 6913   5.056   1.084   9.049  0.0764 -0.2377 -0.0530
   60CHL1  H26A 6914   5.085   1.105   9.154 -0.1088 -1.3619  0.2293
   60CHL1  H26B 6915   5.126   1.015   8.998  0.0910 -0.8987  0.8709
   60CHL1  H26C 6916   5.057   1.182   8.996  1.4000 -0.6533 -0.8343
   60CHL1   C27 6917   4.859   1.001   8.922 -0.5698  0.0062  0.0741
   60CHL1  H27A 6918   4.889   0.901   8.883 -2.1781 -0.4603 -0.0011
   60CHL1  H27B 6919   4.751   0.983   8.943 -0.1854 -0.8467  1.3957
   60CHL1  H27C 6920   4.870   1.090   8.857 -0.0704  1.3356  1.9543
   61CHL1    C3 6921   1.116   6.034  10.470 -0.2739 -0.3515  0.0509
   61CHL1    H3 6922   1.061   5.943  10.439 -0.1117 -0.5278  0.2752
   61CHL1    O3 6923   1.088   6.064  10.607  0.0943 -0.4716  0.0083
   61CHL1   H3' 6924   1.027   5.999  10.640  2.5863 -2.9334 -0.0391
   61CHL1    C4 6925   1.264   6.011  10.455  0.8918  0.7395 -0.2763
   61CHL1   H4A 6926   1.317   6.101  10.492  1.9178  0.2319 -0.4817
   61CHL1   H4B 6927   1.309   5.929  10.516 -0.6048 -1.2174 -1.7323
   61CHL1    C5 6928   1.298   5.978  10.308  0.0970 -0.2403 -0.2359
   61CHL1    C6 6929   1.353   5.862  10.265  0.0191 -0.1419 -0.0290
   61CHL1    H6 6930   1.374   5.784  10.340  1.4218 -1.0659 -1.3416
   61CHL1    C7 6931   1.381   5.824  10.121 -0.2712 -0.3192 -0.1061
   61CHL1   H7A 6932   1.477   5.769  10.106 -0.2998 -1.1369  2.4262
   61CHL1   H7B 6933   1.301   5.756  10.084 -0.7879  0.3236 -0.1738
   61CHL1    C8 6934   1.383   5.954  10.036  0.1762  0.3517 -0.1243
   61CHL1    H8 6935   1.479   6.001  10.066 -0.6796  2.2770 -0.2565
   61CHL1   C14 6936   1.391   5.912   9.888 -0.0703 -0.1296 -0.1821
   61CHL1   H14 6937   1.304   5.844   9.874  1.0109 -1.4423 -0.6426
   61CHL1   C15 6938   1.506   5.825   9.845 -0.6276  0.1881  0.3880
   61CHL1  H15A 6939   1.599   5.858   9.897  1.8169 -2.0611 -2.3326
   61CHL1  H15B 6940   1.500   5.717   9.871  0.2348 -0.3774 -1.6533
   61CHL1   C16 6941   1.504   5.836   9.691 -0.1595 -0.0020 -0.3272
   61CHL1  H16A 6942   1.609   5.857   9.660  0.1050  1.7180  1.6136
   61CHL1  H16B 6943   1.456   5.741   9.659 -2.6085  0.6662  1.2401
   61CHL1   C17 6944   1.405   5.953   9.651 -0.4341 -0.3658  0.0190
   61CHL1   H17 6945   1.304   5.912   9.631 -0.6135 -0.1209  0.4386
   61CHL1   C13 6946   1.377   6.024   9.786 -0.3207 -0.2049  0.0764
   61CHL1   C18 6947   1.490   6.133   9.802  0.9722  0.8299  0.5445
   61CHL1  H18A 6948   1.592   6.089   9.801  0.3474 -0.6611 -0.8886
   61CHL1  H18B 6949   1.488   6.225   9.740 -2.1490  0.5574  0.1752
   61CHL1  H18C 6950   1.484   6.166   9.908 -2.5941 -0.9070  0.9550
   61CHL1   C12 6951   1.238   6.088   9.807 -0.2523  1.0085 -0.0879
   61CHL1  H12A 6952   1.219   6.167   9.731 -2.6704 -1.0247 -1.6696
   61CHL1  H12B 6953   1.167   6.005   9.789 -0.2350  1.2089 -1.1423
   61CHL1   C11 6954   1.217   6.142   9.951 -0.8433 -0.3286 -0.2230
   61CHL1  H11A 6955   1.290   6.225   9.956 -1.6560  0.4732 -1.5004
   61CHL1  H11B 6956   1.117   6.189   9.957 -0.1086  1.1510  0.5634
   61CHL1    C9 6957   1.259   6.037  10.064  0.1613  1.4425 -0.1041
   61CHL1    H9 6958   1.177   5.962  10.057  0.4132  1.2653 -1.4589
   61CHL1   C10 6959   1.253   6.089  10.211 -0.1455  0.1603  0.0239
   61CHL1   C19 6960   1.341   6.217  10.235 -0.1667 -0.2709  0.0734
   61CHL1  H19A 6961   1.322   6.254  10.338 -0.6573 -0.7417  0.1561
   61CHL1  H19B 6962   1.448   6.195  10.218 -0.2939  0.0490 -1.1846
   61CHL1  H19C 6963   1.299   6.297  10.171  1.5488  1.7465  1.4285
   61CHL1    C1 6964   1.096   6.124  10.237 -0.2523 -0.1407 -0.7051
   61CHL1   H1A 6965   1.069   6.216  10.182  0.9501  1.3358  1.0928
   61CHL1   H1B 6966   1.038   6.035  10.205  1.0430 -2.0193  1.9036
   61CHL1    C2 6967   1.072   6.152  10.387  0.0174 -0.1920  0.0583
   61CHL1   H2A 6968   0.965   6.162  10.415  0.6398  2.0866  1.7549
   61CHL1   H2B 6969   1.123   6.250  10.404  2.6488 -1.2638 -1.3615
   61CHL1   C20 6970   1.447   6.028   9.518 -1.0773  0.0464 -0.4496
   61CHL1   H20 6971   1.544   6.079   9.537 -1.8775  1.0594  1.0358
   61CHL1   C21 6972   1.339   6.133   9.472  0.1899 -0.1671  0.1284
   61CHL1  H21A 6973   1.355   6.173   9.369  0.0059  0.5216  0.3663
   61CHL1  H21B 6974   1.317   6.219   9.538  0.6093 -1.1456  1.5589
   61CHL1  H21C 6975   1.241   6.087   9.448  0.9418 -0.9469 -1.5375
   61CHL1   C22 6976   1.472   5.927   9.395  0.3709  0.7721  0.5899
   61CHL1  H22A 6977   1.533   5.842   9.432 -0.9620  0.0616  1.2266
   61CHL1  H22B 6978   1.370   5.890   9.368  1.4368 -1.2741 -0.7518
   61CHL1   C23 6979   1.556   5.981   9.276  0.2054  0.1999 -0.3806
   61CHL1  H23A 6980   1.511   6.068   9.224 -0.5909 -0.3002 -0.5400
   61CHL1  H23B 6981   1.648   6.015   9.328 -0.3668  2.8371 -1.0601
   61CHL1   C24 6982   1.581   5.877   9.168 -0.0307  0.3689  0.7629
   61CHL1  H24A 6983   1.650   5.930   9.098 -0.9954 -1.5268 -1.7428
   61CHL1  H24B 6984   1.631   5.795   9.224  0.5777  0.3334  0.1724
   61CHL1   C25 6985   1.462   5.823   9.092 -0.6090  0.3595 -0.4951
   61CHL1   H25 6986   1.383   5.798   9.165 -1.5064 -2.8862 -2.4951
   61CHL1   C26 6987   1.394   5.934   9.009 -0.0591  0.2632  0.0222
   61CHL1  H26A 6988   1.388   6.033   9.059 -0.5156 -1.3990  3.3963
   61CHL1  H26B 6989   1.452   5.953   8.916 -1.4414  0.7688 -0.7535
   61CHL1  H26C 6990   1.294   5.910   8.969  0.6248 -1.3945 -0.7492
   61CHL1   C27 6991   1.491   5.694   9.011  0.0131  1.2598  0.2304
   61CHL1  H27A 6992   1.554   5.634   9.081 -1.0250  1.3203  1.2290
   61CHL1  H27B 6993   1.405   5.631   8.981  0.9363  0.0010  0.1570
   61CHL1  H27C 6994   1.551   5.712   8.920 -2.6736 -0.9600 -2.0756
   62CHL1    C3 6995   2.954   2.739  10.180 -0.5575 -0.8074 -0.0423
   62CHL1    H3 6996   2.990   2.842  10.160 -4.4424  0.5428 -0.4845
   62CHL1    O3 6997   2.987   2.711  10.321 -0.1327  0.9279  0.6710
   62CHL1   H3' 6998   2.931   2.643  10.359 -1.3500  1.1459 -0.6943
   62CHL1    C4 6999   2.803   2.719  10.143 -0.1320 -0.0584  0.0125
   62CHL1   H4A 7000   2.786   2.618  10.184 -0.9293 -0.6836 -1.8330
   62CHL1   H4B 7001   2.739   2.793  10.196  0.2030 -0.7693  1.4354
   62CHL1    C5 7002   2.777   2.713   9.994  0.2828  0.3287  0.3514
   62CHL1    C6 7003   2.686   2.800   9.940  0.4488 -0.2250  0.1690
   62CHL1    H6 7004   2.614   2.855  10.002 -0.7047 -1.7541  0.2242
   62CHL1    C7 7005   2.656   2.801   9.789 -0.0995 -0.1002  0.2600
   62CHL1   H7A 7006   2.547   2.787   9.774  0.3469 -0.7223 -2.6165
   62CHL1   H7B 7007   2.670   2.899   9.740  0.5010 -1.2359 -1.8992
   62CHL1    C8 7008   2.732   2.685   9.711 -0.4835 -1.2022 -0.6067
   62CHL1    H8 7009   2.671   2.593   9.724 -2.0563 -0.0159  0.4940
   62CHL1   C14 7010   2.739   2.714   9.561 -0.2030 -0.5586  0.3862
   62CHL1   H14 7011   2.808   2.801   9.559 -0.8540 -0.0652 -0.8231
   62CHL1   C15 7012   2.610   2.774   9.500 -0.1266 -0.4030  0.0726
   62CHL1  H15A 7013   2.520   2.710   9.516 -1.4339  1.5604  0.8701
   62CHL1  H15B 7014   2.591   2.871   9.550  0.0660 -0.6394  0.6023
   62CHL1   C16 7015   2.645   2.790   9.357 -0.2908 -0.5797  0.9771
   62CHL1  H16A 7016   2.557   2.757   9.298 -0.3814 -0.7849  1.2298
   62CHL1  H16B 7017   2.656   2.897   9.329  1.2889 -1.2760 -1.2356
   62CHL1   C17 7018   2.776   2.706   9.337  0.6971  0.2184  0.3475
   62CHL1   H17 7019   2.858   2.778   9.355  2.2807 -1.5115  0.2975
   62CHL1   C13 7020   2.791   2.621   9.468  0.3509  0.6488 -0.4268
   62CHL1   C18 7021   2.704   2.492   9.459  0.3768  0.9208 -0.2855
   62CHL1  H18A 7022   2.752   2.421   9.388 -1.0142 -1.9272  1.5014
   62CHL1  H18B 7023   2.706   2.433   9.553  1.3803 -0.6692 -1.2847
   62CHL1  H18C 7024   2.600   2.501   9.420  1.0007  2.5785 -1.6245
   62CHL1   C12 7025   2.941   2.594   9.515 -0.0443  0.1012 -0.0134
   62CHL1  H12A 7026   2.986   2.515   9.452  2.9219  2.5655 -1.1335
   62CHL1  H12B 7027   2.989   2.690   9.486 -1.7756  0.8185 -0.6083
   62CHL1   C11 7028   2.941   2.561   9.667 -0.4784 -0.0284  0.3400
   62CHL1  H11A 7029   2.890   2.462   9.668  1.0169 -0.8431 -0.6760
   62CHL1  H11B 7030   3.044   2.548   9.707 -0.7991 -1.1430  0.8328
   62CHL1    C9 7031   2.870   2.668   9.757  1.0897  0.3557  0.1876
   62CHL1    H9 7032   2.913   2.770   9.745  1.7272 -0.1985 -2.4808
   62CHL1   C10 7033   2.878   2.636   9.911 -0.6654 -0.0069 -0.0786
   62CHL1   C19 7034   2.842   2.481   9.926  0.0725 -0.5853  0.2782
   62CHL1  H19A 7035   2.935   2.431   9.893 -0.4398 -0.8873 -0.7042
   62CHL1  H19B 7036   2.832   2.456  10.034  0.5809  1.8009  0.9146
   62CHL1  H19C 7037   2.752   2.446   9.871  0.2373 -1.3541  0.4907
   62CHL1    C1 7038   3.027   2.671   9.955 -0.6852  0.1116  0.2264
   62CHL1   H1A 7039   3.104   2.607   9.908  0.7678  0.6079  1.8705
   62CHL1   H1B 7040   3.039   2.779   9.931  1.0483 -0.7747 -3.0515
   62CHL1    C2 7041   3.046   2.649  10.105 -0.1043 -0.0516  0.5770
   62CHL1   H2A 7042   3.150   2.683  10.125 -0.6591  1.9373  0.1852
   62CHL1   H2B 7043   3.030   2.545  10.140 -1.1498  0.4457  1.6101
   62CHL1   C20 7044   2.785   2.635   9.197 -0.0358  0.7009 -0.1138
   62CHL1   H20 7045   2.695   2.570   9.188  0.2807 -0.1176  2.0533
   62CHL1   C21 7046   2.920   2.561   9.184  0.0792 -0.1030 -0.1480
   62CHL1  H21A 7047   2.936   2.471   9.248 -1.9187  0.5635  1.3358
   62CHL1  H21B 7048   2.999   2.634   9.211 -0.9894  0.6707  0.9549
   62CHL1  H21C 7049   2.929   2.540   9.075  1.3989  0.1310 -0.0932
   62CHL1   C22 7050   2.764   2.731   9.071  0.0622 -1.0262 -0.1938
   62CHL1  H22A 7051   2.749   2.676   8.975 -0.7613 -0.3825 -0.4368
   62CHL1  H22B 7052   2.671   2.788   9.091  1.1788  1.3021 -1.3764
   62CHL1   C23 7053   2.877   2.839   9.046  0.0878 -0.8652  0.2158
   62CHL1  H23A 7054   2.890   2.901   9.138  1.1420  1.1035 -1.2117
   62CHL1  H23B 7055   2.979   2.798   9.028  0.4334 -0.2813  0.8054
   62CHL1   C24 7056   2.838   2.938   8.933 -0.3853 -0.3301  0.2834
   62CHL1  H24A 7057   2.729   2.951   8.953 -0.3783 -2.0872  1.5582
   62CHL1  H24B 7058   2.886   3.037   8.948 -4.1249  1.5545  0.4258
   62CHL1   C25 7059   2.868   2.889   8.789  0.1835 -0.6850 -0.7786
   62CHL1   H25 7060   2.829   2.789   8.764 -1.6152 -0.6061  1.5364
   62CHL1   C26 7061   2.798   2.979   8.687  0.1801 -0.1772 -0.0596
   62CHL1  H26A 7062   2.801   2.943   8.582 -2.3779  2.2855 -1.0435
   62CHL1  H26B 7063   2.691   2.960   8.711  0.4996  1.1449  2.5520
   62CHL1  H26C 7064   2.813   3.087   8.705  0.8316 -0.7372  2.9783
   62CHL1   C27 7065   3.013   2.888   8.761 -0.7306  0.1413 -0.4563
   62CHL1  H27A 7066   3.065   2.823   8.834 -1.1252  0.2141 -0.1153
   62CHL1  H27B 7067   3.036   2.844   8.661  1.0664 -0.4159  0.1769
   62CHL1  H27C 7068   3.050   2.993   8.761 -0.1950 -0.0435  0.2738
   63CHL1    C3 7069   4.361   4.703  10.233  0.3896 -0.3366 -0.6013
   63CHL1    H3 7070   4.472   4.693  10.229  0.2739 -2.2267  0.4273
   63CHL1    O3 7071   4.317   4.698  10.368 -0.3981 -0.0579 -0.2306
   63CHL1   H3' 7072   4.287   4.789  10.377 -3.1274 -0.9398  0.0991
   63CHL1    C4 7073   4.316   4.837  10.172  0.2882  0.0946 -0.4722
   63CHL1   H4A 7074   4.209   4.856  10.190  0.3825 -0.4700  0.7162
   63CHL1   H4B 7075   4.376   4.910  10.230 -0.2042 -0.5154  0.8166
   63CHL1    C5 7076   4.346   4.848  10.019 -0.1912 -0.5720  0.2797
   63CHL1    C6 7077   4.423   4.943   9.958  0.1212 -0.7735  0.4171
   63CHL1    H6 7078   4.460   5.032  10.011 -1.9653 -0.0266  0.6829
   63CHL1    C7 7079   4.454   4.949   9.811 -0.0251  1.0419  0.5149
   63CHL1   H7A 7080   4.439   5.045   9.757 -0.3796  0.3313 -0.6822
   63CHL1   H7B 7081   4.553   4.902   9.794 -1.1202 -1.6475  1.2461
   63CHL1    C8 7082   4.358   4.860   9.733  0.0527 -0.2517  0.6373
   63CHL1    H8 7083   4.260   4.911   9.719  0.0243 -0.6211 -0.5277
   63CHL1   C14 7084   4.396   4.847   9.587  0.0035 -0.4353  0.4437
   63CHL1   H14 7085   4.496   4.799   9.589  0.7928  0.9669 -2.7478
   63CHL1   C15 7086   4.422   4.983   9.517  0.0554 -1.0182  0.2626
   63CHL1  H15A 7087   4.336   5.051   9.535  0.7497 -0.3703  1.1907
   63CHL1  H15B 7088   4.515   5.030   9.554 -0.3152  1.3981 -1.7948
   63CHL1   C16 7089   4.418   4.946   9.368 -1.0491 -0.0727  0.2612
   63CHL1  H16A 7090   4.335   5.007   9.325 -0.5242  0.4314 -0.0399
   63CHL1  H16B 7091   4.517   4.967   9.322 -0.8748 -0.4361  0.4750
   63CHL1   C17 7092   4.388   4.792   9.359 -0.8383 -0.3665  0.0155
   63CHL1   H17 7093   4.485   4.739   9.358 -0.8492 -0.4266 -2.9085
   63CHL1   C13 7094   4.313   4.762   9.490  1.0177  0.0491 -0.1850
   63CHL1   C18 7095   4.170   4.816   9.473 -0.1005  0.3166 -0.5717
   63CHL1  H18A 7096   4.118   4.754   9.398 -1.0683  0.1610  0.2174
   63CHL1  H18B 7097   4.120   4.801   9.571  0.7869 -0.4804 -0.2323
   63CHL1  H18C 7098   4.158   4.923   9.446  0.1456 -0.1370 -2.5754
   63CHL1   C12 7099   4.317   4.622   9.554  1.3326 -0.7429 -0.0331
   63CHL1  H12A 7100   4.244   4.559   9.499 -0.0696  1.3625 -0.6763
   63CHL1  H12B 7101   4.417   4.574   9.553  2.2421  1.0953  0.4646
   63CHL1   C11 7102   4.270   4.618   9.699 -0.4325  0.0818  0.4484
   63CHL1  H11A 7103   4.160   4.626   9.701 -0.4872 -0.5575  0.1374
   63CHL1  H11B 7104   4.287   4.511   9.719  1.6529  1.0329  4.2074
   63CHL1    C9 7105   4.344   4.713   9.794  0.0240 -0.7063 -0.0686
   63CHL1    H9 7106   4.449   4.677   9.796 -0.1481 -1.2473 -0.5540
   63CHL1   C10 7107   4.287   4.722   9.941 -0.1866  0.5862  0.4179
   63CHL1   C19 7108   4.129   4.755   9.929  0.4700 -0.0074 -0.1033
   63CHL1  H19A 7109   4.118   4.854   9.879  1.7145  0.7082  0.9980
   63CHL1  H19B 7110   4.078   4.669   9.881 -1.6362  0.6431  0.8865
   63CHL1  H19C 7111   4.073   4.761  10.025  0.0437  0.4653 -0.3794
   63CHL1    C1 7112   4.326   4.588  10.017  0.0405  0.3371 -0.3061
   63CHL1   H1A 7113   4.268   4.507   9.968 -0.8105  0.8713 -0.2024
   63CHL1   H1B 7114   4.436   4.580  10.009 -0.0906 -2.0591  0.0291
   63CHL1    C2 7115   4.297   4.584  10.160  0.4124  0.1312 -0.0414
   63CHL1   H2A 7116   4.343   4.492  10.203 -2.3102 -0.4585  1.7210
   63CHL1   H2B 7117   4.187   4.590  10.175  0.6412 -0.2962  2.0566
   63CHL1   C20 7118   4.328   4.747   9.232  0.4047 -0.0089 -0.4349
   63CHL1   H20 7119   4.235   4.804   9.214  0.9462  1.3213  0.9307
   63CHL1   C21 7120   4.296   4.595   9.225  0.0529  0.1823 -0.6215
   63CHL1  H21A 7121   4.381   4.540   9.270  0.8219  2.1251  0.3833
   63CHL1  H21B 7122   4.260   4.559   9.126 -0.4110 -1.5141  0.1506
   63CHL1  H21C 7123   4.209   4.579   9.292  2.7638 -4.0990  2.0810
   63CHL1   C22 7124   4.417   4.797   9.110  0.3191  0.2174  0.5530
   63CHL1  H22A 7125   4.347   4.784   9.025 -1.6349 -3.9616  2.6576
   63CHL1  H22B 7126   4.429   4.907   9.120  1.5055  0.1439  0.0539
   63CHL1   C23 7127   4.547   4.731   9.091 -0.4737  0.4142  0.0180
   63CHL1  H23A 7128   4.609   4.721   9.183 -2.3496 -3.9293  0.9228
   63CHL1  H23B 7129   4.535   4.629   9.048 -2.8032  0.9816 -0.6937
   63CHL1   C24 7130   4.641   4.809   8.991 -0.3086  0.6964 -0.2899
   63CHL1  H24A 7131   4.578   4.837   8.904  2.0136  1.1581 -1.8643
   63CHL1  H24B 7132   4.667   4.912   9.024 -3.3015  0.5213  2.8578
   63CHL1   C25 7133   4.772   4.735   8.939  0.2211  0.1207  0.3155
   63CHL1   H25 7134   4.813   4.671   9.020  1.6664  0.1619 -0.3814
   63CHL1   C26 7135   4.738   4.642   8.825  0.1960 -0.3061 -0.1714
   63CHL1  H26A 7136   4.827   4.577   8.810 -1.3764 -2.4224 -0.4213
   63CHL1  H26B 7137   4.655   4.572   8.846  1.4332 -1.8671 -0.3963
   63CHL1  H26C 7138   4.719   4.705   8.735  1.7412 -1.2053 -1.1562
   63CHL1   C27 7139   4.878   4.835   8.892 -0.4334  0.1059 -0.4602
   63CHL1  H27A 7140   4.890   4.923   8.958 -1.1862 -0.6455  0.6790
   63CHL1  H27B 7141   4.975   4.782   8.875 -1.8090 -3.6558  2.5894
   63CHL1  H27C 7142   4.854   4.876   8.791  0.6995  2.4384  0.1899
   64CHL1    C3 7143   3.475   4.140  10.040  0.4118 -0.0850  0.2981
   64CHL1    H3 7144   3.568   4.202  10.040  0.3795 -0.0358  0.6079
   64CHL1    O3 7145   3.421   4.155  10.174 -0.4414  0.5575  0.3796
   64CHL1   H3' 7146   3.394   4.247  10.176  2.1008  1.3376  3.7879
   64CHL1    C4 7147   3.379   4.199   9.940 -0.3738  0.1228  0.2693
   64CHL1   H4A 7148   3.288   4.137   9.956 -0.2108 -1.0921 -2.9851
   64CHL1   H4B 7149   3.342   4.302   9.960 -1.3303 -0.3042  0.7217
   64CHL1    C5 7150   3.425   4.179   9.797  0.3594 -0.5979 -0.0919
   64CHL1    C6 7151   3.438   4.287   9.716 -0.8689  0.9182  0.4142
   64CHL1    H6 7152   3.404   4.390   9.732  0.0512  1.4454 -0.9503
   64CHL1    C7 7153   3.475   4.254   9.572 -0.3046  0.2950  0.1953
   64CHL1   H7A 7154   3.405   4.306   9.503  1.3236  0.4294 -1.4066
   64CHL1   H7B 7155   3.580   4.289   9.563 -0.0195 -0.2696  1.3559
   64CHL1    C8 7156   3.475   4.106   9.523 -0.0819 -0.0897 -0.4662
   64CHL1    H8 7157   3.367   4.081   9.516  0.0900 -0.7974 -0.6919
   64CHL1   C14 7158   3.545   4.099   9.393  0.3524 -0.4871  0.2659
   64CHL1   H14 7159   3.647   4.145   9.395  0.0672  0.3042 -2.0458
   64CHL1   C15 7160   3.481   4.195   9.290  0.3704  0.2012  0.1943
   64CHL1  H15A 7161   3.371   4.179   9.294  0.0718  1.9094 -0.8771
   64CHL1  H15B 7162   3.510   4.301   9.304  1.3801 -0.2023  1.2153
   64CHL1   C16 7163   3.535   4.140   9.160 -0.4193  0.4577 -0.2684
   64CHL1  H16A 7164   3.452   4.127   9.086  1.4947  1.7305 -2.7185
   64CHL1  H16B 7165   3.611   4.200   9.105 -0.7504  1.0461 -0.0796
   64CHL1   C17 7166   3.589   3.999   9.190 -0.3239 -0.0564  0.8908
   64CHL1   H17 7167   3.699   4.008   9.206 -0.5977  2.6875  1.5048
   64CHL1   C13 7168   3.544   3.963   9.330 -0.9450 -0.1005  0.4748
   64CHL1   C18 7169   3.399   3.907   9.319 -0.2849 -0.2821 -0.2240
   64CHL1  H18A 7170   3.351   3.907   9.419 -0.6657 -0.9546 -0.4034
   64CHL1  H18B 7171   3.327   3.952   9.247 -0.1798 -1.2740 -0.9624
   64CHL1  H18C 7172   3.406   3.798   9.298 -2.8354 -0.7745  1.3083
   64CHL1   C12 7173   3.631   3.883   9.423 -0.2849 -0.2103  0.0730
   64CHL1  H12A 7174   3.650   3.782   9.380 -0.1399 -0.3974  0.5726
   64CHL1  H12B 7175   3.730   3.932   9.417 -0.8189  0.7764 -0.6338
   64CHL1   C11 7176   3.579   3.872   9.568  0.1706 -0.1679  0.1435
   64CHL1  H11A 7177   3.480   3.822   9.558 -0.8399  2.0570 -1.2787
   64CHL1  H11B 7178   3.650   3.823   9.638 -1.0075 -0.4258  1.1762
   64CHL1    C9 7179   3.547   4.019   9.626 -0.0937  0.1426  0.0062
   64CHL1    H9 7180   3.648   4.062   9.641 -0.0879  1.4184 -3.2705
   64CHL1   C10 7181   3.468   4.033   9.755  0.3806 -0.3348 -0.9314
   64CHL1   C19 7182   3.336   3.945   9.743 -0.0675  0.1973  0.4585
   64CHL1  H19A 7183   3.276   3.936   9.836  0.0176 -2.1193  0.3004
   64CHL1  H19B 7184   3.270   3.985   9.663  1.2231 -0.3029 -0.8725
   64CHL1  H19C 7185   3.355   3.840   9.714  2.8205  0.9074 -0.4561
   64CHL1    C1 7186   3.565   3.989   9.870 -0.4040  0.3306  0.1892
   64CHL1   H1A 7187   3.601   3.885   9.855 -1.2131 -0.0663  0.9630
   64CHL1   H1B 7188   3.659   4.049   9.873 -1.4991  2.0836  0.1621
   64CHL1    C2 7189   3.503   3.995  10.011 -0.1782  0.7575  0.2218
   64CHL1   H2A 7190   3.580   3.962  10.084  0.4365  0.7041 -0.4430
   64CHL1   H2B 7191   3.413   3.930  10.016  1.8161 -2.0802  0.6710
   64CHL1   C20 7192   3.569   3.896   9.077  0.2662  0.3939 -0.4182
   64CHL1   H20 7193   3.461   3.866   9.075  0.2312  0.5258 -0.5072
   64CHL1   C21 7194   3.647   3.763   9.091 -0.3159  0.2309 -0.8973
   64CHL1  H21A 7195   3.654   3.704   8.997 -1.2987 -0.3390 -0.6168
   64CHL1  H21B 7196   3.596   3.705   9.171  1.9019  1.9675  1.8769
   64CHL1  H21C 7197   3.748   3.788   9.131  0.1449 -0.1536 -1.8168
   64CHL1   C22 7198   3.600   3.952   8.933  0.3383 -1.0980 -0.0026
   64CHL1  H22A 7199   3.567   4.058   8.924  0.6653 -0.9800  0.1962
   64CHL1  H22B 7200   3.711   3.950   8.929  0.3522  0.6885 -1.1974
   64CHL1   C23 7201   3.539   3.872   8.813  0.1872 -0.3542 -0.4874
   64CHL1  H23A 7202   3.599   3.909   8.727  0.7833  0.5419  0.2991
   64CHL1  H23B 7203   3.550   3.762   8.824 -1.6954 -0.4849  0.2332
   64CHL1   C24 7204   3.393   3.903   8.796 -0.1976 -0.0684 -0.1286
   64CHL1  H24A 7205   3.338   3.889   8.892  1.6464 -2.4734  0.6347
   64CHL1  H24B 7206   3.366   4.006   8.763  0.2041  0.8396  2.2986
   64CHL1   C25 7207   3.338   3.797   8.699 -0.8781 -0.6539  0.2533
   64CHL1   H25 7208   3.370   3.697   8.734  0.8817 -1.3763 -3.2302
   64CHL1   C26 7209   3.180   3.784   8.712 -0.9376 -0.4356 -0.4056
   64CHL1  H26A 7210   3.135   3.855   8.639 -1.0114 -0.5905 -0.5135
   64CHL1  H26B 7211   3.163   3.676   8.692 -0.8221 -0.7628  1.2082
   64CHL1  H26C 7212   3.142   3.812   8.812  0.2807 -0.3822  0.0475
   64CHL1   C27 7213   3.369   3.826   8.548  0.0614  0.0664  0.7779
   64CHL1  H27A 7214   3.307   3.910   8.511  1.3759  0.3871 -0.7975
   64CHL1  H27B 7215   3.477   3.842   8.525  0.1657  1.2204  2.0103
   64CHL1  H27C 7216   3.340   3.738   8.486 -0.6611  0.8998 -0.0932
   65CHL1    C3 7217   5.862   1.296  10.216 -0.8928  0.7442 -0.0208
   65CHL1    H3 7218   5.803   1.205  10.192 -0.8154  1.4508 -3.1451
   65CHL1    O3 7219   5.913   1.270  10.350  0.1451 -0.1215  0.7130
   65CHL1   H3' 7220   5.947   1.357  10.373 -2.2783  1.0821 -0.1263
   65CHL1    C4 7221   5.983   1.311  10.116 -0.1043  0.2609  0.1319
   65CHL1   H4A 7222   6.061   1.370  10.170 -0.3743 -1.1737  2.1428
   65CHL1   H4B 7223   6.026   1.209  10.109  0.3445  0.3995  0.7568
   65CHL1    C5 7224   5.949   1.352   9.979 -0.5382  0.8279  0.7553
   65CHL1    C6 7225   5.983   1.279   9.867 -0.2153 -0.0199  0.5108
   65CHL1    H6 7226   6.044   1.189   9.882  1.3573  1.0903  0.8839
   65CHL1    C7 7227   5.951   1.324   9.728 -0.0555 -0.0882  0.6980
   65CHL1   H7A 7228   6.048   1.316   9.674 -0.4918  1.6024 -0.3766
   65CHL1   H7B 7229   5.881   1.252   9.681 -1.6340  2.0095 -0.2425
   65CHL1    C8 7230   5.914   1.468   9.719  0.3924 -1.0376 -0.0126
   65CHL1    H8 7231   6.009   1.524   9.732  0.3647 -0.7486 -1.0419
   65CHL1   C14 7232   5.853   1.496   9.584  0.2159 -0.4433 -0.1042
   65CHL1   H14 7233   5.778   1.419   9.558  1.3274 -2.2289  1.8320
   65CHL1   C15 7234   5.949   1.477   9.467 -0.3233  0.3653  0.2787
   65CHL1  H15A 7235   6.057   1.500   9.481 -0.1840  1.0646 -1.7361
   65CHL1  H15B 7236   5.947   1.377   9.419 -1.4961  0.6352 -0.2357
   65CHL1   C16 7237   5.892   1.565   9.353 -0.2837 -0.5515 -0.1640
   65CHL1  H16A 7238   5.972   1.637   9.323  3.2925 -3.9881  0.8488
   65CHL1  H16B 7239   5.856   1.493   9.277 -1.3040 -1.7436  1.4236
   65CHL1   C17 7240   5.769   1.636   9.415  0.2841 -0.4746 -0.0262
   65CHL1   H17 7241   5.684   1.568   9.395 -1.0138  1.7529 -2.3880
   65CHL1   C13 7242   5.788   1.634   9.561 -0.6559 -0.0779  0.5483
   65CHL1   C18 7243   5.899   1.742   9.594  0.1398  0.4999 -0.5613
   65CHL1  H18A 7244   5.950   1.725   9.691 -1.0514 -2.3245 -0.3765
   65CHL1  H18B 7245   5.979   1.740   9.516  0.0138  0.5225 -0.6922
   65CHL1  H18C 7246   5.853   1.843   9.596 -1.5970 -0.2768 -0.3830
   65CHL1   C12 7247   5.669   1.648   9.664  0.1896  0.7722  0.3747
   65CHL1  H12A 7248   5.608   1.740   9.649  2.1073  2.0812  0.4285
   65CHL1  H12B 7249   5.611   1.559   9.632  1.4611 -0.0767  0.3889
   65CHL1   C11 7250   5.721   1.633   9.806  0.3608  0.5284 -0.3984
   65CHL1  H11A 7251   5.788   1.717   9.834  1.1744  0.0224 -0.7976
   65CHL1  H11B 7252   5.629   1.633   9.869  0.6092  0.0468 -0.0277
   65CHL1    C9 7253   5.804   1.500   9.833  0.1867 -0.2208  0.7706
   65CHL1    H9 7254   5.728   1.418   9.828 -0.3634  0.2246  1.7443
   65CHL1   C10 7255   5.860   1.481   9.975  0.2728  0.0772  0.3377
   65CHL1   C19 7256   5.947   1.596  10.009  0.0730  0.1797  0.8927
   65CHL1  H19A 7257   5.996   1.584  10.107 -1.2903 -0.2093  1.5298
   65CHL1  H19B 7258   6.027   1.614   9.934 -0.5095 -1.5868 -0.1666
   65CHL1  H19C 7259   5.886   1.689  10.009  4.9569  3.6451  3.8528
   65CHL1    C1 7260   5.743   1.458  10.076  0.2512  0.5489  0.8724
   65CHL1   H1A 7261   5.674   1.545  10.080  0.7005  0.9156  0.7175
   65CHL1   H1B 7262   5.682   1.372  10.042 -1.0536  1.5396  0.6547
   65CHL1    C2 7263   5.787   1.428  10.220  0.6463 -0.0968 -0.0992
   65CHL1   H2A 7264   5.696   1.410  10.281  0.8518  1.0946  0.5731
   65CHL1   H2B 7265   5.847   1.514  10.257 -0.0225  0.9031 -1.2746
   65CHL1   C20 7266   5.742   1.766   9.343 -0.8443 -0.2855  0.4234
   65CHL1   H20 7267   5.827   1.835   9.362  0.5591 -1.8020 -0.2703
   65CHL1   C21 7268   5.619   1.837   9.403 -0.2043  0.2048 -0.4425
   65CHL1  H21A 7269   5.593   1.934   9.356  0.4396  0.4291 -0.3347
   65CHL1  H21B 7270   5.638   1.856   9.511  0.6866  0.4161 -0.6316
   65CHL1  H21C 7271   5.525   1.778   9.404 -0.4832  0.6522 -0.2006
   65CHL1   C22 7272   5.712   1.748   9.192  0.5221  0.4224 -0.4222
   65CHL1  H22A 7273   5.775   1.666   9.151 -0.2874  0.8688 -2.5862
   65CHL1  H22B 7274   5.603   1.730   9.183  0.3248  0.5973  1.3611
   65CHL1   C23 7275   5.752   1.871   9.113  0.1221  0.3671  0.2698
   65CHL1  H23A 7276   5.698   1.962   9.147 -0.5945  0.7933 -1.9420
   65CHL1  H23B 7277   5.858   1.902   9.126 -0.0643  1.1753 -0.0919
   65CHL1   C24 7278   5.735   1.853   8.958 -0.1551 -0.8840 -0.4667
   65CHL1  H24A 7279   5.767   1.941   8.898  2.3025 -2.2399 -1.2304
   65CHL1  H24B 7280   5.799   1.772   8.917 -0.6235 -1.5099  0.0188
   65CHL1   C25 7281   5.592   1.802   8.919  0.1479  0.0320  0.5946
   65CHL1   H25 7282   5.581   1.698   8.955  3.3564  0.4350  2.8648
   65CHL1   C26 7283   5.487   1.895   8.982 -0.4666  0.3898 -0.2770
   65CHL1  H26A 7284   5.494   1.902   9.092 -2.0108  0.6608 -0.1931
   65CHL1  H26B 7285   5.491   1.997   8.937  2.0179  0.0136 -1.0373
   65CHL1  H26C 7286   5.388   1.851   8.959  0.6803 -1.2572 -2.3540
   65CHL1   C27 7287   5.576   1.808   8.761 -0.5282  0.3572  0.0208
   65CHL1  H27A 7288   5.660   1.757   8.708 -0.5056  0.5016 -0.0796
   65CHL1  H27B 7289   5.492   1.751   8.716 -0.4213  1.1869 -1.2649
   65CHL1  H27C 7290   5.563   1.911   8.723  0.5893 -0.0063 -1.4468
   66CHL1    C3 7291   3.636   6.217  10.745 -0.9415 -0.4974 -0.1918
   66CHL1    H3 7292   3.629   6.316  10.696  1.5786 -0.7748 -1.1578
   66CHL1    O3 7293   3.617   6.230  10.887 -0.0498  0.0919 -0.0024
   66CHL1   H3' 7294   3.702   6.205  10.923 -0.3957 -0.8453  0.1767
   66CHL1    C4 7295   3.524   6.139  10.675  0.4457 -0.2915 -0.0271
   66CHL1   H4A 7296   3.539   6.039  10.721  4.7427  0.8118  1.2020
   66CHL1   H4B 7297   3.423   6.182  10.693  0.1509 -1.4701  1.2938
   66CHL1    C5 7298   3.547   6.124  10.525 -0.7172  0.8297 -0.1645
   66CHL1    C6 7299   3.456   6.173  10.432  1.1620  0.4041 -0.3089
   66CHL1    H6 7300   3.360   6.215  10.466  1.1835  1.9476 -2.1021
   66CHL1    C7 7301   3.479   6.152  10.288 -0.0199  0.9478 -0.8034
   66CHL1   H7A 7302   3.382   6.125  10.242  1.4217 -3.1579 -1.6677
   66CHL1   H7B 7303   3.491   6.250  10.238 -1.0170  0.8578 -1.2223
   66CHL1    C8 7304   3.588   6.055  10.246  0.5212  0.4165  0.4539
   66CHL1    H8 7305   3.543   5.958  10.276 -1.0834  1.1781  0.5817
   66CHL1   C14 7306   3.628   6.076  10.101  0.4344 -0.0315  0.2883
   66CHL1   H14 7307   3.666   6.181  10.104  0.3444  0.0293 -0.7629
   66CHL1   C15 7308   3.509   6.069   9.998 -0.6406 -0.1789 -0.3269
   66CHL1  H15A 7309   3.449   5.980  10.025  0.8085 -1.1075 -0.1122
   66CHL1  H15B 7310   3.439   6.155   9.989  0.2963  0.6082 -0.2716
   66CHL1   C16 7311   3.582   6.049   9.867  0.4802  0.0848 -0.6020
   66CHL1  H16A 7312   3.526   5.962   9.824 -1.5374  1.1939 -0.2650
   66CHL1  H16B 7313   3.547   6.130   9.799  2.3097  0.5172 -1.0533
   66CHL1   C17 7314   3.732   6.032   9.894  0.6437  0.4210  0.1319
   66CHL1   H17 7315   3.771   6.136   9.892 -1.3614  1.1867 -1.7361
   66CHL1   C13 7316   3.735   5.987  10.043  0.2878  0.7182  0.4536
   66CHL1   C18 7317   3.694   5.835  10.056 -0.6345 -0.4962  0.3548
   66CHL1  H18A 7318   3.780   5.766  10.038 -0.7312 -0.0914 -1.8761
   66CHL1  H18B 7319   3.646   5.814  10.154  1.3542 -0.8401  1.2819
   66CHL1  H18C 7320   3.624   5.792   9.981  0.1496 -2.0535  0.5014
   66CHL1   C12 7321   3.860   6.019  10.124 -0.2158  0.7560  0.4865
   66CHL1  H12A 7322   3.944   5.953  10.096 -2.0944 -1.7748  0.5979
   66CHL1  H12B 7323   3.900   6.120  10.101 -1.6710  1.2790  0.1958
   66CHL1   C11 7324   3.835   6.005  10.277 -0.9680 -1.0729 -0.2351
   66CHL1  H11A 7325   3.828   5.896  10.295 -1.1271 -0.7905  1.4438
   66CHL1  H11B 7326   3.919   6.051  10.333 -2.1303 -1.9906  2.3260
   66CHL1    C9 7327   3.715   6.081  10.329  0.1540  0.9541 -0.6683
   66CHL1    H9 7328   3.729   6.190  10.310 -0.2189  1.0904 -0.1691
   66CHL1   C10 7329   3.681   6.068  10.484 -0.8198 -0.3252 -0.1236
   66CHL1   C19 7330   3.710   5.919  10.529 -0.5573 -0.6529  0.0639
   66CHL1  H19A 7331   3.696   5.911  10.639  0.4263 -0.4768  0.2084
   66CHL1  H19B 7332   3.643   5.840  10.491  0.1710 -1.0417 -0.4138
   66CHL1  H19C 7333   3.810   5.880  10.500 -0.8062 -0.5392 -0.9568
   66CHL1    C1 7334   3.791   6.156  10.549 -0.0642 -0.1766 -0.1475
   66CHL1   H1A 7335   3.891   6.110  10.534  0.8806  1.2397  1.6298
   66CHL1   H1B 7336   3.791   6.258  10.505  0.3887  0.1873  0.6845
   66CHL1    C2 7337   3.772   6.164  10.702  0.5174  0.1003 -0.3635
   66CHL1   H2A 7338   3.847   6.235  10.742  1.3482 -1.6943  1.3135
   66CHL1   H2B 7339   3.788   6.065  10.749 -2.0784 -0.8448 -1.3506
   66CHL1   C20 7340   3.784   5.948   9.785  0.3189 -0.1232 -0.4060
   66CHL1   H20 7341   3.755   5.841   9.795  1.1041 -0.2790  0.3156
   66CHL1   C21 7342   3.934   5.954   9.801 -0.0423 -1.1453  0.2827
   66CHL1  H21A 7343   3.972   6.055   9.778 -1.4241 -0.2783  1.6956
   66CHL1  H21B 7344   3.980   5.889   9.723 -0.2932  1.5781 -2.1858
   66CHL1  H21C 7345   3.963   5.925   9.904 -0.2876  0.4961  0.8141
   66CHL1   C22 7346   3.749   5.997   9.642  0.3406  0.1920  0.6146
   66CHL1  H22A 7347   3.638   5.998   9.633  0.3786 -1.2860 -0.1550
   66CHL1  H22B 7348   3.800   6.094   9.625 -1.0678  0.5979 -1.4159
   66CHL1   C23 7349   3.787   5.913   9.516 -0.0895 -0.4955  0.1567
   66CHL1  H23A 7350   3.896   5.892   9.520 -0.2767 -1.3742  0.8836
   66CHL1  H23B 7351   3.725   5.822   9.529 -2.3766  1.4302  3.8664
   66CHL1   C24 7352   3.760   5.981   9.384  0.2680  0.7669 -0.0602
   66CHL1  H24A 7353   3.650   5.994   9.387  0.1998 -0.0426  3.5416
   66CHL1  H24B 7354   3.811   6.080   9.381  2.8664 -0.4007  2.6207
   66CHL1   C25 7355   3.800   5.893   9.261  0.5485  0.3789  0.2057
   66CHL1   H25 7356   3.791   5.785   9.286 -2.9400  0.7403  0.6835
   66CHL1   C26 7357   3.695   5.909   9.143  0.7333  0.0148 -0.1659
   66CHL1  H26A 7358   3.694   6.015   9.109  2.5030  0.2844  0.5767
   66CHL1  H26B 7359   3.717   5.839   9.060  0.0411  1.8199 -1.9376
   66CHL1  H26C 7360   3.595   5.885   9.185  1.5627 -0.8615  1.3468
   66CHL1   C27 7361   3.935   5.924   9.218 -0.7506 -0.3985  0.0576
   66CHL1  H27A 7362   4.013   5.922   9.297 -0.4934  0.2844 -0.1757
   66CHL1  H27B 7363   3.959   5.852   9.137 -2.5560  1.1749 -1.9460
   66CHL1  H27C 7364   3.947   6.022   9.167 -1.9147 -1.0374 -1.5052
   67CHL1    C3 7365   0.812   0.133  10.400 -0.3763 -0.3888 -0.1519
   67CHL1    H3 7366   0.873   0.042  10.415  1.6223  0.8577 -0.4798
   67CHL1    O3 7367   0.794   0.193  10.527  0.0997 -0.3794 -0.1998
   67CHL1   H3' 7368   0.880   0.202  10.571  0.8505  3.8027 -2.2682
   67CHL1    C4 7369   0.894   0.233  10.305 -0.1169  0.8138 -0.0227
   67CHL1   H4A 7370   0.831   0.324  10.313  0.3308  1.2326 -1.1433
   67CHL1   H4B 7371   0.993   0.248  10.353  0.5727 -0.9991 -0.8224
   67CHL1    C5 7372   0.904   0.191  10.169  0.4950 -0.0360 -0.5941
   67CHL1    C6 7373   1.021   0.181  10.102  0.2145 -0.3062 -0.7316
   67CHL1    H6 7374   1.114   0.205  10.155 -0.9457  2.8650 -0.0192
   67CHL1    C7 7375   1.045   0.144   9.954  0.1998  0.0665  0.7393
   67CHL1   H7A 7376   1.116   0.214   9.904  0.4683 -0.2567  0.6707
   67CHL1   H7B 7377   1.079   0.039   9.944 -0.6365 -0.2524  1.2123
   67CHL1    C8 7378   0.907   0.149   9.881 -0.0874 -1.0129 -0.1690
   67CHL1    H8 7379   0.883   0.255   9.855 -0.1278 -1.4324 -1.8858
   67CHL1   C14 7380   0.919   0.074   9.748 -0.1096 -0.5383  1.2106
   67CHL1   H14 7381   0.931  -0.029   9.788  4.2716  0.5051  2.8867
   67CHL1   C15 7382   1.035   0.112   9.651  0.1687  0.2786  1.0498
   67CHL1  H15A 7383   1.050   0.222   9.647 -0.3520  0.3145 -0.9837
   67CHL1  H15B 7384   1.128   0.062   9.684 -0.3588 -1.4415  0.0398
   67CHL1   C16 7385   1.006   0.053   9.513 -0.1377 -0.2168 -0.4734
   67CHL1  H16A 7386   1.002   0.139   9.443 -1.6171  0.0204 -0.1033
   67CHL1  H16B 7387   1.065  -0.030   9.469 -3.2394 -2.1896 -1.0793
   67CHL1   C17 7388   0.860  -0.002   9.533 -0.2763 -0.0564 -0.8202
   67CHL1   H17 7389   0.881  -0.104   9.571  1.5888  0.6526  0.1272
   67CHL1   C13 7390   0.796   0.065   9.659  0.2505 -0.0672  0.0699
   67CHL1   C18 7391   0.751   0.212   9.614 -0.1136 -0.0106  0.0072
   67CHL1  H18A 7392   0.829   0.273   9.564 -0.5705  1.0800  0.6304
   67CHL1  H18B 7393   0.663   0.203   9.546 -0.4761  1.4629  0.2702
   67CHL1  H18C 7394   0.720   0.278   9.697  0.4231  0.6621 -0.3301
   67CHL1   C12 7395   0.684  -0.010   9.744  0.3012 -0.6660 -0.2519
   67CHL1  H12A 7396   0.587  -0.000   9.691  0.6699  1.7290 -0.5590
   67CHL1  H12B 7397   0.716  -0.115   9.755 -0.5616 -0.7639  1.5593
   67CHL1   C11 7398   0.669   0.055   9.879 -0.4333 -0.3457  1.1377
   67CHL1  H11A 7399   0.617   0.152   9.859 -1.0538 -0.8881  0.1148
   67CHL1  H11B 7400   0.602  -0.002   9.948 -2.0602 -0.0044 -0.1137
   67CHL1    C9 7401   0.796   0.084   9.962 -0.9701  0.9345  0.3924
   67CHL1    H9 7402   0.823  -0.017   9.999 -1.7777  1.2373  1.8527
   67CHL1   C10 7403   0.769   0.152  10.098 -0.0366  0.2883 -0.6428
   67CHL1   C19 7404   0.681   0.277  10.075  0.5887  0.3281 -0.3848
   67CHL1  H19A 7405   0.662   0.326  10.173  2.5918  0.5293 -0.0878
   67CHL1  H19B 7406   0.733   0.348  10.007  1.7863  0.6438  0.8470
   67CHL1  H19C 7407   0.581   0.254  10.031  0.8639 -1.5965 -0.0393
   67CHL1    C1 7408   0.692   0.055  10.194  0.3202 -0.2940 -0.2079
   67CHL1   H1A 7409   0.586   0.055  10.160 -0.0386  2.1923  0.7455
   67CHL1   H1B 7410   0.722  -0.051  10.182  2.0867  0.4535 -2.8917
   67CHL1    C2 7411   0.684   0.094  10.337  0.0356  0.2171  0.5369
   67CHL1   H2A 7412   0.625   0.017  10.391 -0.7441 -0.3580 -1.1199
   67CHL1   H2B 7413   0.623   0.188  10.341  1.1156  1.0014 -0.9278
   67CHL1   C20 7414   0.774  -0.012   9.408  0.1587  0.5041  0.3493
   67CHL1   H20 7415   0.670   0.009   9.441 -0.0709  0.3182 -0.2531
   67CHL1   C21 7416   0.770  -0.158   9.356 -0.4717 -0.4721  0.4622
   67CHL1  H21A 7417   0.760  -0.220   9.448  0.6823 -0.4488  0.6070
   67CHL1  H21B 7418   0.862  -0.193   9.306 -0.2627  1.4227 -0.5022
   67CHL1  H21C 7419   0.680  -0.173   9.292 -0.9509 -0.2475  1.0684
   67CHL1   C22 7420   0.807   0.082   9.295 -0.5624  0.4241 -0.3050
   67CHL1  H22A 7421   0.819   0.185   9.334 -3.0568 -0.1716  2.1829
   67CHL1  H22B 7422   0.893   0.038   9.240 -1.5556  0.8069 -2.2109
   67CHL1   C23 7423   0.696   0.098   9.187  0.0107 -0.5066  0.1260
   67CHL1  H23A 7424   0.664   0.001   9.142 -3.8769  0.3612  0.8705
   67CHL1  H23B 7425   0.601   0.118   9.240  0.0518  0.0108  0.0074
   67CHL1   C24 7426   0.710   0.198   9.073  0.1960  0.4963 -0.4435
   67CHL1  H24A 7427   0.614   0.245   9.043  0.4416  0.6697 -0.9668
   67CHL1  H24B 7428   0.771   0.279   9.120  0.7576 -0.2366  0.0952
   67CHL1   C25 7429   0.784   0.157   8.938  0.2972 -0.5555 -1.1746
   67CHL1   H25 7430   0.876   0.097   8.959  0.1792 -0.7451 -1.2058
   67CHL1   C26 7431   0.692   0.070   8.862  0.0502  1.2179 -0.0803
   67CHL1  H26A 7432   0.591   0.118   8.856 -0.1244  0.7755 -0.7562
   67CHL1  H26B 7433   0.740   0.050   8.764 -0.9132  1.8527 -0.6864
   67CHL1  H26C 7434   0.690  -0.029   8.913 -0.6143  1.4702  0.3911
   67CHL1   C27 7435   0.805   0.281   8.846  0.5049 -0.3883 -1.5892
   67CHL1  H27A 7436   0.826   0.368   8.911 -0.4706 -2.3199  1.4250
   67CHL1  H27B 7437   0.885   0.258   8.772  2.7486  3.0746 -0.3819
   67CHL1  H27C 7438   0.715   0.316   8.790  0.3136  0.6452 -0.6510
   68CHL1    C3 7439   5.566   0.384  10.438 -0.0869  0.2232  0.0199
   68CHL1    H3 7440   5.653   0.452  10.427 -0.3398  0.7831  1.3716
   68CHL1    O3 7441   5.569   0.324  10.570  0.6018 -0.3940  0.0135
   68CHL1   H3' 7442   5.630   0.251  10.558 -0.1071 -1.1528  0.9426
   68CHL1    C4 7443   5.432   0.455  10.415 -0.6130 -0.2263  0.5701
   68CHL1   H4A 7444   5.348   0.384  10.435 -2.0511  0.9615 -1.0526
   68CHL1   H4B 7445   5.421   0.542  10.483  0.4233 -0.7003  1.3480
   68CHL1    C5 7446   5.422   0.505  10.270 -0.0242 -0.3222  0.0301
   68CHL1    C6 7447   5.387   0.632  10.245  0.5669 -0.6540  0.0422
   68CHL1    H6 7448   5.376   0.693  10.336 -0.4406 -2.3430  1.1017
   68CHL1    C7 7449   5.355   0.684  10.106  0.4212  0.0345 -0.1248
   68CHL1   H7A 7450   5.264   0.746  10.116 -0.9786 -1.8409 -0.7852
   68CHL1   H7B 7451   5.427   0.761  10.073  1.0074 -1.4304 -2.4477
   68CHL1    C8 7452   5.368   0.576   9.990 -0.3038 -0.5483  0.3272
   68CHL1    H8 7453   5.270   0.526   9.977 -1.1983  1.2431 -0.0685
   68CHL1   C14 7454   5.407   0.642   9.856 -0.0256 -0.1206  0.2301
   68CHL1   H14 7455   5.511   0.681   9.857 -0.7331  1.8626 -0.5313
   68CHL1   C15 7456   5.327   0.763   9.805  0.4289  0.3043 -0.4341
   68CHL1  H15A 7457   5.220   0.742   9.826  0.4775  2.0802  1.6553
   68CHL1  H15B 7458   5.366   0.859   9.844  3.2776 -1.6092  1.6111
   68CHL1   C16 7459   5.348   0.758   9.652  0.2870  0.1216  0.0170
   68CHL1  H16A 7460   5.245   0.743   9.614 -0.7551  2.1391  1.9182
   68CHL1  H16B 7461   5.382   0.856   9.613  1.5636 -0.1477  0.4304
   68CHL1   C17 7462   5.446   0.646   9.625  1.0469  0.1795  0.4456
   68CHL1   H17 7463   5.549   0.681   9.646  1.4271 -0.9902  0.5866
   68CHL1   C13 7464   5.408   0.544   9.739 -0.4109 -0.4304 -0.1696
   68CHL1   C18 7465   5.269   0.485   9.716 -0.1821  0.5623  0.1932
   68CHL1  H18A 7466   5.189   0.554   9.680 -0.6876  0.0832  0.3942
   68CHL1  H18B 7467   5.272   0.417   9.628  1.0018 -0.9610  1.3943
   68CHL1  H18C 7468   5.238   0.421   9.801  0.7809  0.1444  0.2322
   68CHL1   C12 7469   5.520   0.443   9.773 -0.2723 -0.3328 -0.1453
   68CHL1  H12A 7470   5.547   0.379   9.687  0.2925 -0.2149 -0.0588
   68CHL1  H12B 7471   5.618   0.490   9.795  1.0353 -1.3656 -3.4324
   68CHL1   C11 7472   5.480   0.366   9.903 -0.2611  0.2968  0.5873
   68CHL1  H11A 7473   5.385   0.312   9.885 -1.1181  0.9532  2.9042
   68CHL1  H11B 7474   5.563   0.295   9.924  1.1239  1.7851  0.2900
   68CHL1    C9 7475   5.463   0.466  10.020 -0.0705 -0.2835 -0.0417
   68CHL1    H9 7476   5.564   0.513  10.016  0.6673 -1.8326  0.2966
   68CHL1   C10 7477   5.444   0.397  10.160 -0.1035 -0.1052  0.0357
   68CHL1   C19 7478   5.311   0.314  10.153  0.1914 -0.3200  0.3587
   68CHL1  H19A 7479   5.282   0.269  10.251 -1.9958  0.2987  0.0266
   68CHL1  H19B 7480   5.223   0.379  10.131  0.4671 -0.6883 -1.8940
   68CHL1  H19C 7481   5.329   0.227  10.088  3.9097 -0.0776  0.9618
   68CHL1    C1 7482   5.569   0.309  10.198 -0.3435  0.1733  0.3156
   68CHL1   H1A 7483   5.576   0.234  10.116 -2.6938  0.3804 -0.0875
   68CHL1   H1B 7484   5.643   0.388  10.172 -0.0225 -0.4340 -0.6470
   68CHL1    C2 7485   5.568   0.261  10.343 -0.2249  0.2623 -0.4650
   68CHL1   H2A 7486   5.662   0.206  10.365 -0.4001  0.0756 -0.1727
   68CHL1   H2B 7487   5.486   0.191  10.373 -1.1843  0.0953 -3.2538
   68CHL1   C20 7488   5.457   0.592   9.482  0.1340  0.0791  0.1901
   68CHL1   H20 7489   5.485   0.485   9.474 -1.8932 -0.5123  0.7307
   68CHL1   C21 7490   5.547   0.689   9.398 -0.4426 -0.0188 -0.0767
   68CHL1  H21A 7491   5.560   0.645   9.297 -0.4898 -0.0768 -0.0578
   68CHL1  H21B 7492   5.646   0.701   9.446  1.1442 -1.3377 -2.8873
   68CHL1  H21C 7493   5.500   0.789   9.403  0.2262  0.2341  1.2500
   68CHL1   C22 7494   5.315   0.598   9.408  0.3665 -0.5413  0.1684
   68CHL1  H22A 7495   5.221   0.557   9.449  1.2272 -1.3600  1.3147
   68CHL1  H22B 7496   5.295   0.706   9.390  0.9076 -0.7204 -1.6520
   68CHL1   C23 7497   5.313   0.539   9.265 -0.1728  0.1710 -0.2173
   68CHL1  H23A 7498   5.410   0.550   9.211  1.8692 -0.2901  3.1911
   68CHL1  H23B 7499   5.311   0.429   9.282 -0.1480 -0.1914 -2.3393
   68CHL1   C24 7500   5.193   0.580   9.170 -0.2840 -0.3818  0.0127
   68CHL1  H24A 7501   5.098   0.589   9.227 -0.0242 -1.5575  0.6440
   68CHL1  H24B 7502   5.209   0.680   9.125  1.4568 -1.1870 -1.2528
   68CHL1   C25 7503   5.177   0.488   9.046  0.3778  0.2763  0.9498
   68CHL1   H25 7504   5.277   0.482   8.998  0.2310  0.3941  0.6237
   68CHL1   C26 7505   5.132   0.348   9.089  0.2156  0.7836 -0.4510
   68CHL1  H26A 7506   5.118   0.280   9.002 -0.7250  0.0944  0.2244
   68CHL1  H26B 7507   5.206   0.303   9.158 -0.7366 -0.5682 -0.2936
   68CHL1  H26C 7508   5.032   0.366   9.134 -1.3347  0.9567 -3.7668
   68CHL1   C27 7509   5.072   0.535   8.941 -0.6548  0.1750 -0.2867
   68CHL1  H27A 7510   5.058   0.464   8.858  1.4508 -2.1007  1.2183
   68CHL1  H27B 7511   4.977   0.553   8.995 -0.3996  0.8966 -0.0586
   68CHL1  H27C 7512   5.096   0.637   8.904  1.9185  0.6103  2.3372
   69CHL1    C3 7513   4.727   5.120   6.847  0.3866 -0.1489  0.1632
   69CHL1    H3 7514   4.724   5.231   6.840  0.2480 -0.1552  0.1083
   69CHL1    O3 7515   4.691   5.063   6.719 -0.5823 -0.2376 -0.0901
   69CHL1   H3' 7516   4.623   4.999   6.742 -1.5368  0.8305  0.1141
   69CHL1    C4 7517   4.861   5.058   6.896 -0.3249 -0.5831  1.0271
   69CHL1   H4A 7518   4.841   4.949   6.882 -3.3741 -0.3128  2.9426
   69CHL1   H4B 7519   4.942   5.087   6.826 -0.4048  1.9942  1.9557
   69CHL1    C5 7520   4.902   5.109   7.041 -0.7347  0.0221  0.8012
   69CHL1    C6 7521   5.014   5.175   7.064  0.3740  0.8244  0.4713
   69CHL1    H6 7522   5.096   5.173   6.990 -0.0555 -1.5215  0.0201
   69CHL1    C7 7523   5.056   5.228   7.197 -0.8382  0.2833 -0.4775
   69CHL1   H7A 7524   5.167   5.221   7.191 -0.6937  1.6317  0.6473
   69CHL1   H7B 7525   5.026   5.334   7.201  0.0624  0.6216 -1.9915
   69CHL1    C8 7526   4.982   5.148   7.312  0.6443  0.4100  0.3937
   69CHL1    H8 7527   5.027   5.046   7.316 -1.6736 -0.6307  0.9500
   69CHL1   C14 7528   5.011   5.214   7.445 -0.3813  0.2621  0.1087
   69CHL1   H14 7529   4.977   5.319   7.428 -0.3106  0.1738 -0.5833
   69CHL1   C15 7530   5.160   5.228   7.487  0.1534  0.4855 -0.4079
   69CHL1  H15A 7531   5.216   5.132   7.474  2.0927  1.1939  2.1841
   69CHL1  H15B 7532   5.213   5.309   7.432 -2.2685  1.1249 -1.8752
   69CHL1   C16 7533   5.151   5.263   7.639  0.4599  0.2347 -0.3245
   69CHL1  H16A 7534   5.230   5.207   7.694  0.3308  1.7985  1.5125
   69CHL1  H16B 7535   5.156   5.371   7.663 -0.3282 -0.1160  1.5336
   69CHL1   C17 7536   5.008   5.231   7.680  0.2443  0.1383 -0.0736
   69CHL1   H17 7537   4.953   5.327   7.684 -0.2756 -0.0645 -1.8819
   69CHL1   C13 7538   4.938   5.149   7.569  0.1737  0.8837 -0.5056
   69CHL1   C18 7539   4.978   5.001   7.587  0.5448 -0.9790 -0.5808
   69CHL1  H18A 7540   5.088   5.004   7.600  0.5199  1.6713 -0.7323
   69CHL1  H18B 7541   4.931   4.966   7.681 -1.1803  2.4231 -0.0736
   69CHL1  H18C 7542   4.946   4.931   7.507 -0.2021 -1.8713  0.4926
   69CHL1   C12 7543   4.789   5.162   7.540  0.1372  0.3852  0.5669
   69CHL1  H12A 7544   4.728   5.113   7.618  0.8837  0.3513  1.1382
   69CHL1  H12B 7545   4.767   5.270   7.529 -0.3982  0.1999 -0.2533
   69CHL1   C11 7546   4.742   5.094   7.408  0.6096  0.4958  0.5415
   69CHL1  H11A 7547   4.754   4.984   7.417 -1.5272  0.2257  0.4423
   69CHL1  H11B 7548   4.633   5.115   7.394  0.5553  1.2140  1.9216
   69CHL1    C9 7549   4.829   5.146   7.283  0.7466 -0.2723 -0.3044
   69CHL1    H9 7550   4.799   5.252   7.271 -0.4413 -0.7298 -1.4865
   69CHL1   C10 7551   4.799   5.079   7.149  0.0578  0.2772 -0.4208
   69CHL1   C19 7552   4.789   4.930   7.162 -0.1364 -0.1736  0.0353
   69CHL1  H19A 7553   4.795   4.869   7.069  0.8086  1.9279 -1.3124
   69CHL1  H19B 7554   4.867   4.893   7.233  0.2253  1.1625  0.3455
   69CHL1  H19C 7555   4.694   4.904   7.214  0.9203 -1.2437  1.4795
   69CHL1    C1 7556   4.665   5.131   7.095 -0.6629 -0.0436  0.9519
   69CHL1   H1A 7557   4.588   5.112   7.172 -1.5774  0.3399  0.1446
   69CHL1   H1B 7558   4.675   5.241   7.079  1.1441 -0.1341  1.3000
   69CHL1    C2 7559   4.627   5.072   6.954  0.3955  0.1491  0.7538
   69CHL1   H2A 7560   4.527   5.103   6.916  0.3558 -0.1904  0.5739
   69CHL1   H2B 7561   4.620   4.962   6.960 -2.1612  0.1790 -0.6849
   69CHL1   C20 7562   4.990   5.188   7.826  0.0411 -0.0405  0.3309
   69CHL1   H20 7563   5.038   5.089   7.837  1.9953  0.8542  0.1624
   69CHL1   C21 7564   4.840   5.176   7.874 -0.0698 -0.5571 -0.3940
   69CHL1  H21A 7565   4.797   5.278   7.873  2.2605  0.4417 -1.6212
   69CHL1  H21B 7566   4.828   5.138   7.978  0.4738 -2.3475 -0.9540
   69CHL1  H21C 7567   4.779   5.112   7.807 -1.0939  1.1956 -1.1547
   69CHL1   C22 7568   5.073   5.293   7.912 -0.1693 -0.2010 -0.0697
   69CHL1  H22A 7569   5.177   5.320   7.884 -0.0996 -0.2404  0.1486
   69CHL1  H22B 7570   5.021   5.391   7.906 -0.0574 -0.1472 -0.1609
   69CHL1   C23 7571   5.093   5.247   8.060  0.0761 -0.2593 -0.5261
   69CHL1  H23A 7572   5.116   5.335   8.124 -1.7854 -1.7482  2.3010
   69CHL1  H23B 7573   4.994   5.214   8.097 -0.4452  1.1672 -0.6402
   69CHL1   C24 7574   5.204   5.145   8.076 -0.2851 -0.2036 -0.2157
   69CHL1  H24A 7575   5.190   5.059   8.007 -0.6730  0.4439 -0.9463
   69CHL1  H24B 7576   5.296   5.198   8.041  0.0661 -0.6369  0.0456
   69CHL1   C25 7577   5.223   5.091   8.221 -0.5562 -0.0639  0.5481
   69CHL1   H25 7578   5.121   5.057   8.248 -0.8277  1.2080  1.1492
   69CHL1   C26 7579   5.325   4.980   8.239  0.0053 -0.6259 -0.1719
   69CHL1  H26A 7580   5.272   4.884   8.223 -0.0973 -0.5050 -0.5472
   69CHL1  H26B 7581   5.409   4.998   8.169 -0.1458  1.2319  0.1212
   69CHL1  H26C 7582   5.369   4.976   8.341 -0.2860  0.0101 -0.0236
   69CHL1   C27 7583   5.245   5.199   8.325 -0.3797  0.4258 -0.1966
   69CHL1  H27A 7584   5.354   5.217   8.328 -0.1482 -1.1812  3.5255
   69CHL1  H27B 7585   5.196   5.297   8.303  0.3567  1.0658  0.9219
   69CHL1  H27C 7586   5.222   5.162   8.427 -3.4377 -0.2675 -1.0589
   70CHL1    C3 7587   4.632   1.777   7.132 -0.8501  0.0002 -0.1224
   70CHL1    H3 7588   4.626   1.666   7.145  1.1551 -0.0906  0.1994
   70CHL1    O3 7589   4.641   1.801   6.994  0.0983  0.3705  0.6445
   70CHL1   H3' 7590   4.647   1.896   6.984 -0.1621  0.1614 -1.6176
   70CHL1    C4 7591   4.509   1.842   7.202  0.0061 -0.3152 -0.4055
   70CHL1   H4A 7592   4.509   1.949   7.171 -1.7006 -0.4316 -0.8344
   70CHL1   H4B 7593   4.420   1.799   7.152 -2.3634  1.1877  2.3699
   70CHL1    C5 7594   4.499   1.825   7.353  0.5563  0.3149  0.0349
   70CHL1    C6 7595   4.388   1.774   7.408 -0.8068 -0.5735  0.7058
   70CHL1    H6 7596   4.301   1.768   7.340  0.1724  4.1454 -1.1741
   70CHL1    C7 7597   4.369   1.769   7.554 -0.2054  0.0628  0.6514
   70CHL1   H7A 7598   4.273   1.818   7.579 -0.3172  1.3361 -2.0440
   70CHL1   H7B 7599   4.357   1.663   7.585  0.4911  0.6493  3.0006
   70CHL1    C8 7600   4.474   1.841   7.635 -0.8729 -0.4539  0.9497
   70CHL1    H8 7601   4.454   1.950   7.636  1.1468 -0.0459 -0.2405
   70CHL1   C14 7602   4.467   1.791   7.775  1.1109  0.4151 -0.3508
   70CHL1   H14 7603   4.492   1.682   7.774 -3.6300 -0.7858 -3.3496
   70CHL1   C15 7604   4.332   1.786   7.844  0.3722  0.1387  0.0172
   70CHL1  H15A 7605   4.275   1.876   7.812 -0.1652  0.4480  1.8185
   70CHL1  H15B 7606   4.267   1.698   7.824  1.1055 -0.3875 -0.0912
   70CHL1   C16 7607   4.361   1.780   7.994 -0.6699 -1.0076 -0.0310
   70CHL1  H16A 7608   4.300   1.862   8.038  3.0012  2.0708 -0.3426
   70CHL1  H16B 7609   4.323   1.684   8.035 -1.0137 -0.4432  0.9904
   70CHL1   C17 7610   4.519   1.807   8.007  1.0254  0.7846 -0.7783
   70CHL1   H17 7611   4.553   1.701   8.015 -3.1175 -0.5065  1.6408
   70CHL1   C13 7612   4.566   1.859   7.875 -0.2987 -0.0574  0.1636
   70CHL1   C18 7613   4.548   2.015   7.873 -0.4260 -0.0085 -1.1121
   70CHL1  H18A 7614   4.575   2.062   7.776  2.1389  0.1076 -0.3823
   70CHL1  H18B 7615   4.444   2.047   7.896 -0.6472 -1.4068 -0.1349
   70CHL1  H18C 7616   4.618   2.060   7.947  0.1577  1.2356 -2.3949
   70CHL1   C12 7617   4.703   1.818   7.812 -0.1502 -0.0067 -0.0408
   70CHL1  H12A 7618   4.774   1.877   7.875 -0.4572  0.3468 -0.0213
   70CHL1  H12B 7619   4.714   1.709   7.827 -0.4549 -0.2666 -1.6574
   70CHL1   C11 7620   4.729   1.863   7.666 -0.0509 -0.0253  0.3270
   70CHL1  H11A 7621   4.750   1.971   7.656 -1.7706  0.2173 -0.9404
   70CHL1  H11B 7622   4.822   1.808   7.640 -1.2183 -0.7042 -2.5924
   70CHL1    C9 7623   4.612   1.814   7.572 -0.1912  0.1536 -0.0110
   70CHL1    H9 7624   4.637   1.706   7.565 -1.3277  0.0180 -2.6608
   70CHL1   C10 7625   4.626   1.862   7.425  0.0918 -0.4599  0.0420
   70CHL1   C19 7626   4.639   2.014   7.434 -0.3988 -0.5065 -0.1599
   70CHL1  H19A 7627   4.735   2.059   7.466 -2.0587  2.1023  1.3588
   70CHL1  H19B 7628   4.599   2.062   7.342  0.6088  1.8634  0.6118
   70CHL1  H19C 7629   4.579   2.054   7.519 -0.1544 -1.3754  0.4370
   70CHL1    C1 7630   4.753   1.804   7.359 -0.0795 -0.3277 -0.6453
   70CHL1   H1A 7631   4.845   1.838   7.410 -0.1270  2.1878 -2.1650
   70CHL1   H1B 7632   4.752   1.693   7.369 -0.6438 -0.2198  0.5770
   70CHL1    C2 7633   4.764   1.827   7.206  0.1793  0.2560  0.2002
   70CHL1   H2A 7634   4.852   1.784   7.153 -1.8281  0.4334 -3.3712
   70CHL1   H2B 7635   4.783   1.936   7.202  0.9824  0.1471  0.7534
   70CHL1   C20 7636   4.561   1.874   8.144 -0.6676  0.2241  0.6107
   70CHL1   H20 7637   4.527   1.978   8.161  0.1173  0.3996  1.0969
   70CHL1   C21 7638   4.712   1.880   8.154  1.1922  0.1200  0.7660
   70CHL1  H21A 7639   4.762   1.954   8.088  0.3258 -0.4328 -0.5235
   70CHL1  H21B 7640   4.756   1.779   8.139  1.0262 -0.2102  2.3600
   70CHL1  H21C 7641   4.745   1.924   8.251  0.8670  1.5237  0.2540
   70CHL1   C22 7642   4.496   1.791   8.260  1.1486 -0.8283 -0.2946
   70CHL1  H22A 7643   4.387   1.777   8.242  0.8654 -1.0689  1.4914
   70CHL1  H22B 7644   4.541   1.690   8.245 -0.1270 -1.4260 -0.1503
   70CHL1   C23 7645   4.512   1.864   8.401 -0.0059  0.1329  0.2981
   70CHL1  H23A 7646   4.619   1.880   8.428 -0.4454  0.3845  1.9328
   70CHL1  H23B 7647   4.464   1.963   8.389  0.8806  0.3233 -2.0142
   70CHL1   C24 7648   4.432   1.793   8.520  0.1037 -0.4925 -0.7017
   70CHL1  H24A 7649   4.325   1.820   8.508 -0.3558 -2.7429 -2.0724
   70CHL1  H24B 7650   4.430   1.683   8.502  0.2740 -0.4590 -0.9191
   70CHL1   C25 7651   4.487   1.825   8.658 -0.6252  0.4439 -0.3913
   70CHL1   H25 7652   4.483   1.934   8.679 -0.5426  0.1414  1.2948
   70CHL1   C26 7653   4.387   1.763   8.765  0.0032  0.4652  0.4041
   70CHL1  H26A 7654   4.284   1.798   8.744  0.3366  0.9550 -0.4337
   70CHL1  H26B 7655   4.390   1.652   8.768  1.1770  0.4077 -1.8812
   70CHL1  H26C 7656   4.411   1.792   8.870  0.6878 -0.6291  0.5518
   70CHL1   C27 7657   4.628   1.778   8.688 -0.4299  0.6760  0.3622
   70CHL1  H27A 7658   4.641   1.791   8.798 -2.6579  0.2179  0.7058
   70CHL1  H27B 7659   4.631   1.667   8.675  0.4181  1.0048 -2.5128
   70CHL1  H27C 7660   4.701   1.834   8.626  1.1000  0.0043  1.5265
   71CHL1    C3 7661   3.534   4.238   6.914 -0.0539 -0.1909 -0.5691
   71CHL1    H3 7662   3.593   4.144   6.910 -1.8597 -1.2692 -2.8410
   71CHL1    O3 7663   3.505   4.259   6.773  0.6639  0.6191 -0.4286
   71CHL1   H3' 7664   3.452   4.337   6.782  0.0842 -0.0034  1.9345
   71CHL1    C4 7665   3.413   4.210   7.006  0.1293 -0.2713  0.5763
   71CHL1   H4A 7666   3.332   4.281   6.981  1.5179  1.7318  1.6361
   71CHL1   H4B 7667   3.363   4.121   6.961  1.1144  0.7162 -2.5716
   71CHL1    C5 7668   3.436   4.203   7.150  0.2292 -1.2259  0.8397
   71CHL1    C6 7669   3.377   4.106   7.228  0.0702  0.2967 -0.2561
   71CHL1    H6 7670   3.317   4.030   7.176 -0.3216  2.0862 -2.5062
   71CHL1    C7 7671   3.394   4.093   7.377 -0.2263 -0.2793  0.5536
   71CHL1   H7A 7672   3.302   4.084   7.439  0.2904  0.2900  1.4162
   71CHL1   H7B 7673   3.461   4.005   7.383  2.0374  1.4016  0.4202
   71CHL1    C8 7674   3.463   4.207   7.440 -0.3535 -0.2019 -0.7762
   71CHL1    H8 7675   3.395   4.293   7.462 -1.3164 -1.5045  1.4636
   71CHL1   C14 7676   3.521   4.176   7.579  0.0347  0.1958 -0.0170
   71CHL1   H14 7677   3.597   4.102   7.549  0.5911 -0.0132  1.8190
   71CHL1   C15 7678   3.422   4.106   7.678 -0.7788  0.2642 -0.1768
   71CHL1  H15A 7679   3.328   4.166   7.670 -1.2635 -0.5767 -0.7768
   71CHL1  H15B 7680   3.405   4.001   7.646 -1.6231 -0.3223  2.0977
   71CHL1   C16 7681   3.489   4.120   7.817  0.0683 -0.1453  0.0876
   71CHL1  H16A 7682   3.417   4.168   7.886 -1.4411  0.7388 -2.0471
   71CHL1  H16B 7683   3.531   4.028   7.862 -1.1803 -0.6867  0.1894
   71CHL1   C17 7684   3.614   4.213   7.792 -0.1613 -0.0566 -0.0566
   71CHL1   H17 7685   3.704   4.151   7.770 -0.5744 -0.3497 -0.9695
   71CHL1   C13 7686   3.588   4.282   7.654  0.5538 -0.2471 -0.2629
   71CHL1   C18 7687   3.498   4.405   7.693  0.0035 -0.1012  0.3616
   71CHL1  H18A 7688   3.553   4.484   7.748  0.8589  0.4204 -1.2332
   71CHL1  H18B 7689   3.462   4.460   7.603  0.7330  0.1439  0.2165
   71CHL1  H18C 7690   3.414   4.361   7.751  1.9183  0.0300  3.3248
   71CHL1   C12 7691   3.708   4.329   7.569  0.3828 -0.2132 -0.4226
   71CHL1  H12A 7692   3.746   4.421   7.618 -2.6359  0.3872  0.8900
   71CHL1  H12B 7693   3.783   4.247   7.565 -0.3670 -0.9665  0.5415
   71CHL1   C11 7694   3.675   4.366   7.422  0.8818 -0.2796 -0.7428
   71CHL1  H11A 7695   3.624   4.465   7.420  2.3950  0.5345 -0.5200
   71CHL1  H11B 7696   3.765   4.377   7.357  1.3997 -0.5918 -0.0763
   71CHL1    C9 7697   3.574   4.266   7.347 -0.6249 -0.1443  0.1662
   71CHL1    H9 7698   3.630   4.172   7.326 -1.2554 -0.4918  0.0189
   71CHL1   C10 7699   3.527   4.311   7.204  0.3762 -1.3846 -0.0904
   71CHL1   C19 7700   3.458   4.449   7.214 -0.7032 -0.0821  0.2847
   71CHL1  H19A 7701   3.534   4.521   7.253  1.9067 -1.3907 -2.2166
   71CHL1  H19B 7702   3.442   4.489   7.112 -0.6791 -1.2185 -0.1741
   71CHL1  H19C 7703   3.367   4.430   7.275 -1.5948  1.9471 -0.3705
   71CHL1    C1 7704   3.647   4.326   7.112  0.7826  0.2444 -0.5606
   71CHL1   H1A 7705   3.708   4.413   7.146  1.0958 -0.8913  1.8999
   71CHL1   H1B 7706   3.711   4.236   7.122  0.6694  0.0981 -1.1525
   71CHL1    C2 7707   3.629   4.350   6.962 -0.3946 -0.0697 -0.0724
   71CHL1   H2A 7708   3.730   4.347   6.916 -0.7123 -1.0992 -0.7066
   71CHL1   H2B 7709   3.580   4.446   6.932 -2.0337 -0.7657  0.3148
   71CHL1   C20 7710   3.649   4.296   7.922 -0.1587  0.0044  0.6708
   71CHL1   H20 7711   3.568   4.364   7.956 -3.4809 -3.4622 -0.0413
   71CHL1   C21 7712   3.771   4.379   7.889 -0.4576  0.4852  0.3148
   71CHL1  H21A 7713   3.820   4.417   7.981  2.2200 -0.7223 -0.5772
   71CHL1  H21B 7714   3.737   4.470   7.835 -0.2065 -0.6290 -1.7455
   71CHL1  H21C 7715   3.841   4.315   7.831  0.0153  1.2644  0.0269
   71CHL1   C22 7716   3.671   4.205   8.046 -0.7072 -0.4436 -0.4360
   71CHL1  H22A 7717   3.585   4.135   8.047 -2.1646  1.3245  1.7447
   71CHL1  H22B 7718   3.765   4.149   8.025 -0.2050 -0.7052  2.2982
   71CHL1   C23 7719   3.670   4.285   8.178  0.2000 -0.1162  0.0233
   71CHL1  H23A 7720   3.768   4.338   8.187 -1.5898  3.1420  0.9208
   71CHL1  H23B 7721   3.601   4.372   8.173 -0.5517 -0.8326 -3.5389
   71CHL1   C24 7722   3.632   4.205   8.297 -0.0106  0.6149  0.8218
   71CHL1  H24A 7723   3.522   4.216   8.313 -0.0901 -0.9010  1.4677
   71CHL1  H24B 7724   3.657   4.097   8.296 -0.8442  0.4071  1.8173
   71CHL1   C25 7725   3.687   4.250   8.436  0.4830  0.0152 -0.0901
   71CHL1   H25 7726   3.798   4.242   8.440  0.4466 -0.1033  0.7106
   71CHL1   C26 7727   3.648   4.404   8.453 -0.1024  0.1176  0.1255
   71CHL1  H26A 7728   3.684   4.441   8.551 -1.3469  0.1536  0.5820
   71CHL1  H26B 7729   3.689   4.462   8.368  3.1550  0.7949  2.0750
   71CHL1  H26C 7730   3.539   4.425   8.449 -0.5883 -2.5802 -2.5260
   71CHL1   C27 7731   3.629   4.155   8.542 -0.2790  0.3013  0.3758
   71CHL1  H27A 7732   3.651   4.047   8.528  2.8297  1.0396 -0.8983
   71CHL1  H27B 7733   3.687   4.182   8.633  0.0091  1.3311 -0.1092
   71CHL1  H27C 7734   3.521   4.170   8.562  0.0916 -2.1207  4.8412
   72CHL1    C3 7735   4.409   2.483   7.135 -0.3720 -0.0480 -0.1597
   72CHL1    H3 7736   4.325   2.524   7.195 -1.5829  2.1547 -3.1760
   72CHL1    O3 7737   4.366   2.474   6.996  0.0981 -0.2070  0.4776
   72CHL1   H3' 7738   4.433   2.414   6.962 -0.3699 -0.6494  0.3274
   72CHL1    C4 7739   4.544   2.563   7.141 -0.0469  0.0569  0.3838
   72CHL1   H4A 7740   4.623   2.501   7.092 -0.1185 -0.5105  0.9875
   72CHL1   H4B 7741   4.525   2.662   7.093  0.1422  0.2720  0.7507
   72CHL1    C5 7742   4.585   2.579   7.286  0.0294 -0.4011  0.9303
   72CHL1    C6 7743   4.607   2.701   7.337 -0.3459  0.0115 -0.4258
   72CHL1    H6 7744   4.589   2.792   7.277 -0.7226 -0.0890 -0.4663
   72CHL1    C7 7745   4.674   2.730   7.471  0.0507  0.3056 -0.0113
   72CHL1   H7A 7746   4.755   2.803   7.452  0.1392  1.3272  3.8869
   72CHL1   H7B 7747   4.605   2.778   7.544  2.2457  1.5346  1.2863
   72CHL1    C8 7748   4.731   2.610   7.539 -0.3697  0.0498 -0.1724
   72CHL1    H8 7749   4.836   2.589   7.510 -0.6414 -1.5488 -0.0652
   72CHL1   C14 7750   4.728   2.627   7.694  0.2005  0.6254  0.8248
   72CHL1   H14 7751   4.621   2.620   7.722  0.9122  0.3846  3.5676
   72CHL1   C15 7752   4.784   2.753   7.763 -0.5139  0.2527  0.2549
   72CHL1  H15A 7753   4.879   2.784   7.714 -0.9505  0.0007 -0.7626
   72CHL1  H15B 7754   4.714   2.840   7.754  0.6731  1.1101 -0.7726
   72CHL1   C16 7755   4.793   2.702   7.907 -0.1328  0.5973 -0.8755
   72CHL1  H16A 7756   4.897   2.728   7.934  0.1941  0.0371 -1.5717
   72CHL1  H16B 7757   4.727   2.763   7.972  0.6209 -1.0582  1.5156
   72CHL1   C17 7758   4.768   2.555   7.924 -0.0662 -0.0108 -0.3305
   72CHL1   H17 7759   4.661   2.557   7.954  0.0851  0.0901  0.2032
   72CHL1   C13 7760   4.787   2.510   7.777 -1.0326  0.6589 -0.2927
   72CHL1   C18 7761   4.932   2.482   7.734 -0.6196 -0.1964 -0.0620
   72CHL1  H18A 7762   4.938   2.434   7.634  1.6871 -1.2594  0.5627
   72CHL1  H18B 7763   4.989   2.578   7.736 -1.4621  0.3285 -0.7134
   72CHL1  H18C 7764   4.970   2.401   7.799 -0.4219 -2.3136 -2.7349
   72CHL1   C12 7765   4.695   2.391   7.746  0.5120 -0.3300 -0.0963
   72CHL1  H12A 7766   4.737   2.308   7.806 -1.2779 -0.7273  0.6175
   72CHL1  H12B 7767   4.594   2.415   7.785  0.3746 -0.2994 -0.4651
   72CHL1   C11 7768   4.685   2.361   7.599 -1.3184 -0.2655 -0.1744
   72CHL1  H11A 7769   4.779   2.319   7.557 -1.3459  1.6298 -2.2087
   72CHL1  H11B 7770   4.618   2.273   7.587 -1.2324 -0.2888 -0.4876
   72CHL1    C9 7771   4.644   2.478   7.510 -0.8423  0.2146 -0.3321
   72CHL1    H9 7772   4.541   2.501   7.546 -0.6015  2.1376 -0.7975
   72CHL1   C10 7773   4.614   2.450   7.356  0.6782  0.0624  0.2536
   72CHL1   C19 7774   4.742   2.375   7.306  0.9723 -0.0764 -0.7242
   72CHL1  H19A 7775   4.835   2.429   7.333 -0.2252  0.4388  2.5831
   72CHL1  H19B 7776   4.753   2.278   7.359  0.0294  1.0867  1.6911
   72CHL1  H19C 7777   4.745   2.347   7.198  1.5127 -1.3078 -0.3944
   72CHL1    C1 7778   4.486   2.358   7.335 -0.6203  0.4120  0.8095
   72CHL1   H1A 7779   4.508   2.259   7.381 -2.2965 -1.1000 -1.5225
   72CHL1   H1B 7780   4.397   2.398   7.388  0.2446  1.2304  1.6575
   72CHL1    C2 7781   4.439   2.343   7.183  1.0560 -0.3275 -0.0255
   72CHL1   H2A 7782   4.351   2.276   7.169  0.1183  1.0287 -0.6389
   72CHL1   H2B 7783   4.524   2.298   7.126 -0.4850 -1.8971 -1.1185
   72CHL1   C20 7784   4.856   2.497   8.040  0.7218  0.0668  0.1277
   72CHL1   H20 7785   4.962   2.498   8.007  0.0191  1.5777 -2.3050
   72CHL1   C21 7786   4.817   2.349   8.053 -0.5690  0.0278  0.0042
   72CHL1  H21A 7787   4.713   2.349   8.015 -0.5919 -0.7674  0.0465
   72CHL1  H21B 7788   4.828   2.302   8.153  0.8560 -1.0428 -0.6342
   72CHL1  H21C 7789   4.874   2.289   7.979  0.2500 -0.4633  1.0214
   72CHL1   C22 7790   4.853   2.572   8.173  0.4172 -1.1035  0.1907
   72CHL1  H22A 7791   4.908   2.664   8.143 -2.7923  0.4257 -1.2991
   72CHL1  H22B 7792   4.750   2.602   8.202  0.9961  0.2293  0.9164
   72CHL1   C23 7793   4.932   2.517   8.296 -0.0954  0.2748 -0.5561
   72CHL1  H23A 7794   4.869   2.443   8.349 -0.6278 -0.4587 -2.1671
   72CHL1  H23B 7795   5.027   2.471   8.261  0.0351 -0.4487  0.7400
   72CHL1   C24 7796   4.961   2.621   8.399 -0.3961  0.2479  0.5189
   72CHL1  H24A 7797   5.039   2.687   8.356  1.9677 -2.9088 -0.2476
   72CHL1  H24B 7798   4.864   2.670   8.421  0.9111  3.0882  0.0957
   72CHL1   C25 7799   5.015   2.571   8.535 -0.6863 -0.2785  0.3457
   72CHL1   H25 7800   4.938   2.512   8.589 -0.4998 -0.5243  0.3418
   72CHL1   C26 7801   5.132   2.469   8.524  0.0943 -0.9564  0.2316
   72CHL1  H26A 7802   5.164   2.427   8.621 -0.2399 -1.1023  0.2776
   72CHL1  H26B 7803   5.102   2.393   8.449  0.2360 -0.3208 -0.4822
   72CHL1  H26C 7804   5.219   2.518   8.475 -1.5055  0.5607 -1.1590
   72CHL1   C27 7805   5.042   2.695   8.621  0.6051 -0.5888  0.3115
   72CHL1  H27A 7806   5.046   2.671   8.729 -0.8007  0.9850  0.7341
   72CHL1  H27B 7807   5.134   2.747   8.585  0.9917 -1.1157  0.5466
   72CHL1  H27C 7808   4.957   2.765   8.604 -0.4557 -1.4991  1.7470
   73CHL1    C3 7809   4.249   5.977   6.923 -0.2281  0.0214 -0.0273
   73CHL1    H3 7810   4.156   6.034   6.900 -0.3380  0.2532  0.9692
   73CHL1    O3 7811   4.294   5.916   6.798  0.7508  0.3518 -0.0940
   73CHL1   H3' 7812   4.377   5.871   6.817  1.5574  1.0412 -1.8533
   73CHL1    C4 7813   4.355   6.076   6.977  0.7320 -0.8680  0.0725
   73CHL1   H4A 7814   4.459   6.040   6.964  1.5724  2.0678 -1.8377
   73CHL1   H4B 7815   4.345   6.167   6.914  1.7551 -2.5843 -2.6419
   73CHL1    C5 7816   4.338   6.103   7.128  0.1663 -0.3401 -0.3334
   73CHL1    C6 7817   4.346   6.232   7.169 -0.4904 -0.7714 -0.2416
   73CHL1    H6 7818   4.362   6.315   7.099  2.0311  0.5535  1.8324
   73CHL1    C7 7819   4.333   6.279   7.311 -1.1680  0.6193  0.0693
   73CHL1   H7A 7820   4.414   6.354   7.324  0.2869 -1.1397  1.4303
   73CHL1   H7B 7821   4.234   6.322   7.338 -2.6558 -1.4215 -1.9847
   73CHL1    C8 7822   4.354   6.158   7.408  0.2448 -0.6353  0.1699
   73CHL1    H8 7823   4.461   6.128   7.413 -0.4641 -3.1990  0.3844
   73CHL1   C14 7824   4.305   6.199   7.543 -0.0349  0.2570  0.1094
   73CHL1   H14 7825   4.203   6.241   7.529  1.0727  3.1417  0.2651
   73CHL1   C15 7826   4.382   6.316   7.610  0.4718  0.3579 -0.3130
   73CHL1  H15A 7827   4.489   6.289   7.605 -0.0134 -1.2451 -3.4866
   73CHL1  H15B 7828   4.356   6.405   7.549 -0.6113  0.4819  0.2972
   73CHL1   C16 7829   4.333   6.313   7.751 -0.0648  0.4973 -0.0420
   73CHL1  H16A 7830   4.421   6.309   7.819  0.2327 -1.1240 -0.5176
   73CHL1  H16B 7831   4.279   6.409   7.768 -0.6158 -0.0839  1.5901
   73CHL1   C17 7832   4.237   6.186   7.769 -0.4359 -0.5551 -0.0170
   73CHL1   H17 7833   4.136   6.217   7.737 -0.2317  1.9791  1.6552
   73CHL1   C13 7834   4.291   6.095   7.654 -1.2352  0.0127  0.0366
   73CHL1   C18 7835   4.432   6.031   7.693 -0.3654 -0.7265 -0.4926
   73CHL1  H18A 7836   4.502   6.035   7.606  2.1095 -0.2415  1.4764
   73CHL1  H18B 7837   4.474   6.102   7.767  0.1711 -0.4666 -1.0289
   73CHL1  H18C 7838   4.428   5.929   7.736 -1.8205 -0.9032 -1.0364
   73CHL1   C12 7839   4.196   5.984   7.603  0.7730 -0.6061 -0.5393
   73CHL1  H12A 7840   4.191   5.893   7.666  2.1960 -0.0468  0.4040
   73CHL1  H12B 7841   4.093   6.017   7.577  0.2302 -1.2144  0.8104
   73CHL1   C11 7842   4.260   5.926   7.471  0.0358 -0.1689 -0.5760
   73CHL1  H11A 7843   4.359   5.877   7.489 -0.6817 -1.8466 -1.0545
   73CHL1  H11B 7844   4.189   5.843   7.448 -0.2296  0.0421 -0.5118
   73CHL1    C9 7845   4.270   6.038   7.366  0.4260  0.0938  0.1520
   73CHL1    H9 7846   4.173   6.089   7.354  0.6216  0.3598 -0.3016
   73CHL1   C10 7847   4.311   5.989   7.224 -0.5587 -0.4317  0.9570
   73CHL1   C19 7848   4.434   5.897   7.238 -0.3872 -0.1425  0.3774
   73CHL1  H19A 7849   4.518   5.949   7.288  0.1928  0.4878 -1.2312
   73CHL1  H19B 7850   4.402   5.808   7.297  0.5475 -1.1057 -0.5547
   73CHL1  H19C 7851   4.466   5.864   7.137 -2.7726 -0.3895 -0.3309
   73CHL1    C1 7852   4.186   5.916   7.166 -0.4572 -0.5483  0.6336
   73CHL1   H1A 7853   4.168   5.828   7.232 -0.3560  0.1172  1.5633
   73CHL1   H1B 7854   4.095   5.980   7.166 -0.3315 -0.3714  0.5353
   73CHL1    C2 7855   4.214   5.865   7.023 -0.0705 -0.3596  0.4902
   73CHL1   H2A 7856   4.119   5.813   7.001 -0.6818  1.1706 -0.5390
   73CHL1   H2B 7857   4.289   5.783   7.025  1.0874  0.6684 -0.1769
   73CHL1   C20 7858   4.237   6.134   7.913 -0.1780 -0.2643 -0.1544
   73CHL1   H20 7859   4.329   6.076   7.933 -0.3767  0.0816  1.8870
   73CHL1   C21 7860   4.117   6.034   7.936  0.0316 -0.4388  0.1128
   73CHL1  H21A 7861   4.129   5.961   8.018  3.4646  1.5501  1.5025
   73CHL1  H21B 7862   4.119   5.969   7.846  0.2313 -0.7954  0.3766
   73CHL1  H21C 7863   4.017   6.083   7.933  0.9031  1.3600 -0.3032
   73CHL1   C22 7864   4.226   6.241   8.028  0.4585  0.6344 -0.2762
   73CHL1  H22A 7865   4.299   6.319   7.997  0.5169 -0.0944 -1.9961
   73CHL1  H22B 7866   4.126   6.290   8.020 -0.1685 -0.5993 -0.0743
   73CHL1   C23 7867   4.257   6.205   8.172  0.2937 -0.1115  0.3133
   73CHL1  H23A 7868   4.178   6.146   8.222  0.2617  0.3243  0.7808
   73CHL1  H23B 7869   4.336   6.127   8.170  0.2817 -0.1518  1.4366
   73CHL1   C24 7870   4.302   6.328   8.255  0.2137  0.0522 -0.3791
   73CHL1  H24A 7871   4.383   6.374   8.194  0.2990  0.0592 -0.2599
   73CHL1  H24B 7872   4.211   6.392   8.251  0.6317  0.7670  1.4848
   73CHL1   C25 7873   4.346   6.276   8.394  0.8710 -0.2131 -0.2014
   73CHL1   H25 7874   4.415   6.192   8.374  0.6805 -0.3499 -0.2822
   73CHL1   C26 7875   4.407   6.389   8.477  0.1660 -0.2608 -1.0998
   73CHL1  H26A 7876   4.495   6.425   8.418  0.5216  1.5210  0.4651
   73CHL1  H26B 7877   4.345   6.480   8.494 -1.3622 -1.7762  1.6465
   73CHL1  H26C 7878   4.454   6.360   8.573 -0.4398 -1.1007 -1.0556
   73CHL1   C27 7879   4.229   6.223   8.480  0.4660 -0.9325  0.2483
   73CHL1  H27A 7880   4.155   6.301   8.507 -0.3961 -0.8382 -2.3041
   73CHL1  H27B 7881   4.174   6.136   8.438  1.2159 -0.9577 -0.6901
   73CHL1  H27C 7882   4.264   6.184   8.579 -1.5623  1.1938  1.8486
   74CHL1    C3 7883   2.866   4.226   6.931 -0.0325  0.5397  0.3758
   74CHL1    H3 7884   2.810   4.132   6.952  0.1775  0.8150  2.2117
   74CHL1    O3 7885   2.876   4.235   6.789  0.1349  0.1967  0.8527
   74CHL1   H3' 7886   2.962   4.195   6.771 -0.2247 -1.3593  2.4188
   74CHL1    C4 7887   2.786   4.335   7.000  0.6975  0.0281  0.0619
   74CHL1   H4A 7888   2.830   4.434   6.977 -1.6803  1.0068 -0.4628
   74CHL1   H4B 7889   2.688   4.350   6.949  1.8630  0.5342 -2.0727
   74CHL1    C5 7890   2.783   4.306   7.146  0.1021  0.3156 -0.0456
   74CHL1    C6 7891   2.668   4.284   7.210 -0.0613 -0.3029 -0.0403
   74CHL1    H6 7892   2.579   4.289   7.146 -1.8698 -1.1037  2.3128
   74CHL1    C7 7893   2.661   4.265   7.358  0.3750  0.4791 -0.8921
   74CHL1   H7A 7894   2.578   4.321   7.406  0.2432 -1.7297  1.5869
   74CHL1   H7B 7895   2.629   4.159   7.366  0.1683  0.7069  1.9251
   74CHL1    C8 7896   2.793   4.306   7.437 -0.2261 -0.0524  0.9027
   74CHL1    H8 7897   2.803   4.416   7.449 -1.6542  0.1067  0.7029
   74CHL1   C14 7898   2.787   4.235   7.567 -0.3734  0.1621 -0.4032
   74CHL1   H14 7899   2.781   4.127   7.542 -1.5934  0.7933 -3.0354
   74CHL1   C15 7900   2.664   4.269   7.655  0.4678 -0.5657 -0.0960
   74CHL1  H15A 7901   2.633   4.375   7.661  0.1507 -0.6647  0.0442
   74CHL1  H15B 7902   2.583   4.204   7.614 -0.4245 -1.3260  2.7381
   74CHL1   C16 7903   2.711   4.226   7.800  0.3038  0.0814 -0.2994
   74CHL1  H16A 7904   2.724   4.317   7.862  1.7497  0.6142 -1.3511
   74CHL1  H16B 7905   2.645   4.149   7.845  0.8568  0.1715  0.6833
   74CHL1   C17 7906   2.861   4.170   7.790 -0.2639 -0.5555  0.1381
   74CHL1   H17 7907   2.846   4.063   7.765  0.2988 -0.3461 -1.1653
   74CHL1   C13 7908   2.910   4.251   7.660  0.3524  0.0665 -0.2234
   74CHL1   C18 7909   2.944   4.398   7.696 -0.1703  0.0900  0.7134
   74CHL1  H18A 7910   2.888   4.443   7.780 -1.5443 -0.0239 -0.1190
   74CHL1  H18B 7911   3.051   4.411   7.724 -0.1002  1.0257  0.0356
   74CHL1  H18C 7912   2.927   4.465   7.609  1.1265 -0.0964  0.3001
   74CHL1   C12 7913   3.031   4.191   7.577 -0.8411  0.1278 -0.3506
   74CHL1  H12A 7914   3.128   4.185   7.630 -1.7502 -0.2512  1.3349
   74CHL1  H12B 7915   3.003   4.085   7.559 -1.6182  0.3780 -0.6610
   74CHL1   C11 7916   3.042   4.261   7.439 -0.3651 -0.3594  0.4739
   74CHL1  H11A 7917   3.068   4.367   7.460 -0.1550  0.2127 -2.5018
   74CHL1  H11B 7918   3.132   4.212   7.395 -0.1168 -0.5222  1.1485
   74CHL1    C9 7919   2.920   4.255   7.360  0.3223 -0.4998 -0.2472
   74CHL1    H9 7920   2.915   4.145   7.345  0.9637 -0.6952  0.9140
   74CHL1   C10 7921   2.924   4.307   7.214  0.9085 -0.7569  0.1878
   74CHL1   C19 7922   2.979   4.453   7.215  0.7289  0.1391  0.2973
   74CHL1  H19A 7923   2.933   4.519   7.292  0.9371  1.6412 -0.8498
   74CHL1  H19B 7924   3.086   4.441   7.242  0.3538  0.6410  2.0933
   74CHL1  H19C 7925   2.979   4.499   7.114 -0.2783 -1.3199 -0.3913
   74CHL1    C1 7926   3.008   4.205   7.135  0.6636 -0.1850  0.3067
   74CHL1   H1A 7927   3.111   4.211   7.175  0.9276  0.5821 -0.4916
   74CHL1   H1B 7928   2.978   4.098   7.148 -1.3595  0.3788  0.4192
   74CHL1    C2 7929   3.005   4.232   6.983 -0.7792  0.3631  0.0719
   74CHL1   H2A 7930   3.068   4.154   6.936 -2.9238 -1.3076 -0.1413
   74CHL1   H2B 7931   3.042   4.334   6.962 -2.1084  0.5040 -1.7273
   74CHL1   C20 7932   2.939   4.183   7.914  0.3459 -0.3328 -0.3667
   74CHL1   H20 7933   2.950   4.291   7.938 -0.4015 -0.2242 -0.5078
   74CHL1   C21 7934   3.077   4.119   7.891  0.1495 -0.3550  0.3118
   74CHL1  H21A 7935   3.059   4.023   7.838 -0.3677  0.2697 -0.6699
   74CHL1  H21B 7936   3.125   4.098   7.988 -0.0196  0.7377  0.6409
   74CHL1  H21C 7937   3.141   4.195   7.839  2.0904 -1.8951  0.4098
   74CHL1   C22 7938   2.863   4.118   8.032  0.2194  0.1998 -0.8530
   74CHL1  H22A 7939   2.923   4.156   8.118 -1.5335 -0.7170  0.8212
   74CHL1  H22B 7940   2.759   4.158   8.036 -0.1504 -0.7040 -1.3086
   74CHL1   C23 7941   2.845   3.971   8.053  0.7156 -0.2243  0.2108
   74CHL1  H23A 7942   2.766   3.937   7.982  1.4697  1.2301 -1.3637
   74CHL1  H23B 7943   2.935   3.926   8.006 -0.1896 -0.4081 -1.4072
   74CHL1   C24 7944   2.820   3.931   8.197  0.2875  0.1737  0.1696
   74CHL1  H24A 7945   2.916   3.950   8.250  1.7465 -2.0844 -1.5727
   74CHL1  H24B 7946   2.743   3.991   8.250 -0.4445  0.0516 -0.7429
   74CHL1   C25 7947   2.782   3.785   8.236 -0.4099  0.0678 -0.0289
   74CHL1   H25 7948   2.841   3.713   8.175 -0.4581 -0.7155  0.8317
   74CHL1   C26 7949   2.811   3.759   8.381 -0.3599 -0.9797 -0.0504
   74CHL1  H26A 7950   2.758   3.835   8.442 -0.1903 -0.7211 -0.2183
   74CHL1  H26B 7951   2.794   3.658   8.423  0.4543 -0.5006  1.5026
   74CHL1  H26C 7952   2.922   3.770   8.391 -0.3386 -0.9611 -0.2963
   74CHL1   C27 7953   2.639   3.755   8.207  0.4038 -0.0713 -0.4150
   74CHL1  H27A 7954   2.619   3.646   8.219 -1.4909  0.4211  1.1919
   74CHL1  H27B 7955   2.570   3.811   8.274  2.8799  0.7886  1.4693
   74CHL1  H27C 7956   2.621   3.776   8.099 -0.2635 -3.0864 -0.9443
   75CHL1    C3 7957   6.177   5.014   6.800  0.2050 -0.8404 -0.2571
   75CHL1    H3 7958   6.144   5.116   6.772 -1.4146 -0.6935  2.0767
   75CHL1    O3 7959   6.120   4.925   6.707 -0.1186  0.2203 -0.3093
   75CHL1   H3' 7960   6.151   4.838   6.734 -0.5432  0.3019  0.4262
   75CHL1    C4 7961   6.330   4.987   6.806 -0.5607 -0.2996 -0.1607
   75CHL1   H4A 7962   6.350   4.881   6.835  1.4373  0.9164  3.3357
   75CHL1   H4B 7963   6.376   5.002   6.706 -0.6310 -0.6720 -0.2484
   75CHL1    C5 7964   6.401   5.079   6.901 -1.0195 -0.4438 -0.0587
   75CHL1    C6 7965   6.506   5.161   6.867  0.3140 -0.8601 -0.2138
   75CHL1    H6 7966   6.533   5.168   6.761 -0.0019 -0.1467 -0.2476
   75CHL1    C7 7967   6.582   5.246   6.961  0.4458 -0.3009 -0.1641
   75CHL1   H7A 7968   6.692   5.230   6.953  0.7140  0.6943  1.4785
   75CHL1   H7B 7969   6.566   5.347   6.919  1.8903 -0.0591 -0.1610
   75CHL1    C8 7970   6.543   5.224   7.109 -0.0966 -0.2149  0.6865
   75CHL1    H8 7971   6.600   5.135   7.142 -0.2669 -1.6301 -2.6720
   75CHL1   C14 7972   6.585   5.352   7.187 -0.4787 -0.1075 -0.3001
   75CHL1   H14 7973   6.510   5.427   7.153  0.6945  1.0823 -0.2853
   75CHL1   C15 7974   6.723   5.422   7.169 -0.3411 -0.1135 -0.2715
   75CHL1  H15A 7975   6.801   5.343   7.176  0.7577  0.9492 -0.3757
   75CHL1  H15B 7976   6.729   5.487   7.079 -0.7787 -0.2865 -0.4267
   75CHL1   C16 7977   6.736   5.504   7.303  0.0749 -0.9164 -0.4910
   75CHL1  H16A 7978   6.821   5.464   7.363 -0.5242 -0.6455  0.5474
   75CHL1  H16B 7979   6.764   5.611   7.302  0.7297 -1.0619  0.9995
   75CHL1   C17 7980   6.601   5.472   7.377  0.1217 -0.3664 -0.2692
   75CHL1   H17 7981   6.536   5.545   7.324 -1.7672 -1.9713 -0.2056
   75CHL1   C13 7982   6.554   5.333   7.336  0.0531  0.0891 -0.2541
   75CHL1   C18 7983   6.645   5.217   7.399  0.1375 -0.3548 -0.0400
   75CHL1  H18A 7984   6.747   5.260   7.405 -1.1353  2.8115 -0.4848
   75CHL1  H18B 7985   6.607   5.201   7.502  2.4467  2.7717  1.3896
   75CHL1  H18C 7986   6.648   5.118   7.349  3.4916 -0.5311  0.3442
   75CHL1   C12 7987   6.407   5.302   7.358 -0.1987 -1.2635 -0.0232
   75CHL1  H12A 7988   6.388   5.301   7.467  2.3121  1.9355  0.5026
   75CHL1  H12B 7989   6.344   5.386   7.320  0.9598 -0.1438  0.5014
   75CHL1   C11 7990   6.359   5.180   7.289 -0.3229  0.1240  0.1558
   75CHL1  H11A 7991   6.408   5.089   7.331 -1.9057 -1.1661 -0.6952
   75CHL1  H11B 7992   6.249   5.174   7.305 -0.3462  1.3271  0.4661
   75CHL1    C9 7993   6.391   5.191   7.134 -0.3189  0.0442  0.8359
   75CHL1    H9 7994   6.338   5.284   7.103 -0.1441 -0.0747  0.1784
   75CHL1   C10 7995   6.347   5.071   7.043  0.3770  0.0979  0.3058
   75CHL1   C19 7996   6.407   4.942   7.107  0.3678  0.7434  0.0267
   75CHL1  H19A 7997   6.382   4.930   7.214 -0.4863  1.9970 -0.0140
   75CHL1  H19B 7998   6.363   4.850   7.062 -1.8515  1.0546  1.4489
   75CHL1  H19C 7999   6.516   4.934   7.089  0.2859  0.0788 -0.2089
   75CHL1    C1 8000   6.189   5.082   7.041 -0.3381 -0.8395  0.5381
   75CHL1   H1A 8001   6.151   5.060   7.143 -1.2387 -0.0867  0.3778
   75CHL1   H1B 8002   6.160   5.186   7.014 -0.6251 -0.9917  0.2601
   75CHL1    C2 8003   6.121   4.985   6.938 -0.1688 -0.6250 -0.1179
   75CHL1   H2A 8004   6.010   4.993   6.934 -0.2153 -1.2515 -0.1178
   75CHL1   H2B 8005   6.153   4.883   6.965  1.6073 -0.4702 -1.5731
   75CHL1   C20 8006   6.591   5.514   7.525  0.4999  0.0427 -0.1226
   75CHL1   H20 8007   6.509   5.461   7.578 -0.1452 -0.6498 -1.7704
   75CHL1   C21 8008   6.551   5.664   7.531  0.9153  0.6193  0.2142
   75CHL1  H21A 8009   6.454   5.674   7.479  1.6646  0.6347 -1.2125
   75CHL1  H21B 8010   6.629   5.726   7.480  0.7365  1.1438  0.5773
   75CHL1  H21C 8011   6.537   5.698   7.636  0.6046  0.2224  0.3008
   75CHL1   C22 8012   6.723   5.481   7.601 -0.3390 -0.3776  0.5786
   75CHL1  H22A 8013   6.752   5.375   7.582 -4.2244 -1.2995 -0.6199
   75CHL1  H22B 8014   6.805   5.547   7.566 -1.2621  0.3590 -0.2142
   75CHL1   C23 8015   6.712   5.501   7.747 -0.2319 -0.0436  0.4997
   75CHL1  H23A 8016   6.692   5.606   7.775 -0.5848 -0.3996  1.6357
   75CHL1  H23B 8017   6.627   5.442   7.789 -0.1177  1.6924  3.3274
   75CHL1   C24 8018   6.818   5.440   7.839  0.0246 -0.0746 -0.0445
   75CHL1  H24A 8019   6.831   5.338   7.797 -0.8571  0.6492 -2.1609
   75CHL1  H24B 8020   6.916   5.489   7.822 -0.0917 -0.4002 -1.7756
   75CHL1   C25 8021   6.782   5.440   7.983  0.2924 -0.2559 -0.7101
   75CHL1   H25 8022   6.704   5.362   7.997 -0.7907  1.0304  0.5863
   75CHL1   C26 8023   6.901   5.384   8.061 -0.3045 -0.6981 -0.0074
   75CHL1  H26A 8024   6.885   5.385   8.170  0.2818 -1.5458  0.0888
   75CHL1  H26B 8025   6.907   5.282   8.018 -0.7327 -0.5109 -0.5234
   75CHL1  H26C 8026   6.993   5.438   8.028 -1.8247  1.1510 -1.3228
   75CHL1   C27 8027   6.737   5.580   8.050 -0.2063  0.3965  0.3215
   75CHL1  H27A 8028   6.805   5.658   8.008 -3.6286  2.2164 -2.0451
   75CHL1  H27B 8029   6.632   5.608   8.030  0.5625  2.6649 -0.6637
   75CHL1  H27C 8030   6.742   5.576   8.161 -3.1809 -0.1289  0.4634
   76CHL1    C3 8031   3.537   1.222   7.282  0.1077  0.0162 -0.3653
   76CHL1    H3 8032   3.647   1.223   7.290  0.0711  1.5608  0.0438
   76CHL1    O3 8033   3.487   1.210   7.150 -0.1538 -0.7100 -0.5279
   76CHL1   H3' 8034   3.547   1.153   7.101  0.4909 -0.1437 -0.3926
   76CHL1    C4 8035   3.473   1.101   7.352 -0.8041  0.0751 -0.6778
   76CHL1   H4A 8036   3.363   1.112   7.341 -0.9908  0.8147  1.7231
   76CHL1   H4B 8037   3.511   1.008   7.304  1.5854 -0.2527  1.7056
   76CHL1    C5 8038   3.510   1.108   7.499  0.7419  0.0752  0.7602
   76CHL1    C6 8039   3.575   1.009   7.559  0.6474  0.3531  0.1770
   76CHL1    H6 8040   3.584   0.919   7.497  1.3921 -1.5016  2.8678
   76CHL1    C7 8041   3.603   0.998   7.703  0.0168  0.0756 -0.4181
   76CHL1   H7A 8042   3.565   0.902   7.744  0.4782  0.3181  0.6130
   76CHL1   H7B 8043   3.712   1.010   7.721  0.2338 -2.8627  0.5933
   76CHL1    C8 8044   3.522   1.104   7.791  0.2891  0.2946  0.0480
   76CHL1    H8 8045   3.416   1.071   7.794 -0.4237  2.2904 -1.9681
   76CHL1   C14 8046   3.574   1.108   7.934  0.0352 -0.1187  0.8044
   76CHL1   H14 8047   3.683   1.126   7.924  0.2672 -1.7398  0.4286
   76CHL1   C15 8048   3.561   0.977   8.016 -0.1408  0.8422  0.4280
   76CHL1  H15A 8049   3.470   0.918   7.992  0.7389 -0.8425  1.1063
   76CHL1  H15B 8050   3.643   0.908   7.986 -1.4276 -0.5107 -0.0534
   76CHL1   C16 8051   3.581   1.021   8.154 -0.9715 -0.4812 -0.1784
   76CHL1  H16A 8052   3.500   0.976   8.216 -1.5935 -0.8647 -1.2407
   76CHL1  H16B 8053   3.675   0.971   8.186 -0.5158  0.4781  0.0015
   76CHL1   C17 8054   3.586   1.177   8.161 -0.4084  1.0925  0.1757
   76CHL1   H17 8055   3.687   1.222   8.155 -0.2144  0.5148 -1.1274
   76CHL1   C13 8056   3.524   1.221   8.020  0.0451  0.5906  0.0104
   76CHL1   C18 8057   3.373   1.196   8.035 -0.6400 -0.0850  0.3149
   76CHL1  H18A 8058   3.349   1.103   8.091  1.0725 -0.9363 -0.3418
   76CHL1  H18B 8059   3.320   1.285   8.075  1.9125  1.6273  0.0206
   76CHL1  H18C 8060   3.316   1.187   7.940 -1.0345  0.0505  0.5367
   76CHL1   C12 8061   3.558   1.356   7.952  0.9356  0.5147 -0.8408
   76CHL1  H12A 8062   3.502   1.434   8.007  1.0886  0.0081  0.0389
   76CHL1  H12B 8063   3.667   1.375   7.958  0.7083  1.7471 -0.3659
   76CHL1   C11 8064   3.486   1.353   7.810 -0.2064 -0.0842  0.6532
   76CHL1  H11A 8065   3.375   1.349   7.822 -0.8873  2.7018 -3.4496
   76CHL1  H11B 8066   3.516   1.448   7.761 -1.0519 -0.3632 -0.4291
   76CHL1    C9 8067   3.540   1.238   7.718  0.0129 -0.6789  1.0073
   76CHL1    H9 8068   3.647   1.267   7.711 -0.1919 -0.3285 -0.9470
   76CHL1   C10 8069   3.482   1.239   7.575  0.7653 -0.5904 -0.0537
   76CHL1   C19 8070   3.329   1.251   7.600  0.4732  0.6211  0.1348
   76CHL1  H19A 8071   3.299   1.347   7.647 -0.9944 -0.3292  1.1745
   76CHL1  H19B 8072   3.263   1.234   7.512 -1.9931 -0.7232  2.1512
   76CHL1  H19C 8073   3.292   1.170   7.666 -0.5321  0.7788 -0.2250
   76CHL1    C1 8074   3.528   1.363   7.488  0.1651  0.0425  0.1048
   76CHL1   H1A 8075   3.479   1.454   7.529 -0.3628  0.2014 -0.8580
   76CHL1   H1B 8076   3.639   1.362   7.495  0.1258 -0.8471  0.7194
   76CHL1    C2 8077   3.487   1.357   7.343 -0.4160 -0.3793  0.1129
   76CHL1   H2A 8078   3.526   1.447   7.292  0.1191  1.0285  2.9128
   76CHL1   H2B 8079   3.378   1.362   7.323 -0.1674  1.2541 -0.8758
   76CHL1   C20 8080   3.532   1.234   8.292  0.7236 -0.9679  0.7632
   76CHL1   H20 8081   3.421   1.230   8.293  0.7005 -0.3468  1.0730
   76CHL1   C21 8082   3.563   1.387   8.307 -0.0536  0.3200  0.9013
   76CHL1  H21A 8083   3.513   1.434   8.394 -0.4905  0.3864  0.6198
   76CHL1  H21B 8084   3.537   1.446   8.216 -0.0496 -0.0258  0.6764
   76CHL1  H21C 8085   3.673   1.396   8.320  0.4106 -1.4533 -1.4211
   76CHL1   C22 8086   3.584   1.160   8.417  0.4052 -0.7011 -0.3382
   76CHL1  H22A 8087   3.549   1.222   8.502 -0.0986 -0.0787 -0.9933
   76CHL1  H22B 8088   3.532   1.062   8.424 -2.1587  0.6294 -0.2482
   76CHL1   C23 8089   3.735   1.139   8.432 -0.2423 -0.1628 -0.4838
   76CHL1  H23A 8090   3.781   1.078   8.351  1.6600  1.7987 -0.9352
   76CHL1  H23B 8091   3.776   1.243   8.434 -0.6893  0.0119  2.6593
   76CHL1   C24 8092   3.767   1.085   8.572  0.2090  0.3146 -0.3720
   76CHL1  H24A 8093   3.691   1.123   8.643 -0.8405  0.6476 -1.6428
   76CHL1  H24B 8094   3.737   0.979   8.565  1.4752  0.0221 -1.6689
   76CHL1   C25 8095   3.914   1.111   8.614 -0.7390 -0.1277  0.2053
   76CHL1   H25 8096   3.981   1.057   8.543  1.0511 -0.3354  2.0111
   76CHL1   C26 8097   3.937   1.259   8.632  0.5165 -0.2951 -0.0874
   76CHL1  H26A 8098   3.937   1.317   8.537 -1.1136 -0.5712 -0.2584
   76CHL1  H26B 8099   3.864   1.299   8.705 -2.2583  1.2236 -3.5331
   76CHL1  H26C 8100   4.034   1.277   8.684  1.9282 -0.6759 -2.5073
   76CHL1   C27 8101   3.938   1.035   8.747 -0.0588 -0.1607  0.3499
   76CHL1  H27A 8102   3.873   1.073   8.828  1.3173 -0.1763  1.4921
   76CHL1  H27B 8103   3.921   0.927   8.732 -1.3466  0.2248 -1.0552
   76CHL1  H27C 8104   4.046   1.042   8.774  0.4066  0.6369 -1.6299
   77CHL1    C3 8105   3.781   6.283   6.936 -0.0409  0.8897  0.7711
   77CHL1    H3 8106   3.687   6.225   6.943  1.5288 -1.7354  0.9081
   77CHL1    O3 8107   3.823   6.301   6.805 -0.0241 -0.4261  0.1859
   77CHL1   H3' 8108   3.841   6.214   6.768  1.7067  0.9650 -2.4918
   77CHL1    C4 8109   3.752   6.418   7.006  0.3724  0.3687 -0.1330
   77CHL1   H4A 8110   3.842   6.482   6.988 -0.8364  2.9777  2.7288
   77CHL1   H4B 8111   3.667   6.466   6.953  1.1409  2.4600  0.4891
   77CHL1    C5 8112   3.720   6.407   7.154 -0.2567 -0.1027  0.6844
   77CHL1    C6 8113   3.613   6.471   7.211 -0.5884 -0.3169  0.6857
   77CHL1    H6 8114   3.544   6.520   7.141 -1.8780 -0.4302  1.8569
   77CHL1    C7 8115   3.584   6.474   7.362 -0.6354  0.5998 -0.2884
   77CHL1   H7A 8116   3.559   6.579   7.388 -1.3233  0.6369 -1.0927
   77CHL1   H7B 8117   3.488   6.420   7.375  0.5838 -2.2219 -2.3008
   77CHL1    C8 8118   3.693   6.413   7.441 -0.7233  0.1506  0.6065
   77CHL1    H8 8119   3.764   6.496   7.454  0.9767 -1.0344 -0.8733
   77CHL1   C14 8120   3.642   6.376   7.578  0.0993 -0.4241 -0.4908
   77CHL1   H14 8121   3.571   6.294   7.555 -2.1697  0.8334  1.7738
   77CHL1   C15 8122   3.553   6.470   7.652  0.4133 -0.2613  0.5985
   77CHL1  H15A 8123   3.607   6.562   7.685  1.4071 -0.6513  0.0931
   77CHL1  H15B 8124   3.459   6.494   7.597  1.7306  1.8479 -0.8111
   77CHL1   C16 8125   3.516   6.389   7.779 -0.1060  0.5482  0.6288
   77CHL1  H16A 8126   3.492   6.468   7.854 -2.5607  1.7761 -1.3716
   77CHL1  H16B 8127   3.423   6.344   7.738 -0.0357  0.8157  0.1727
   77CHL1   C17 8128   3.628   6.280   7.791 -0.4176 -0.3905 -0.5447
   77CHL1   H17 8129   3.587   6.184   7.752 -1.9970 -0.0041  0.1634
   77CHL1   C13 8130   3.733   6.312   7.678  0.4274 -0.6406 -0.6768
   77CHL1   C18 8131   3.843   6.411   7.727 -0.1139  0.3751 -0.2065
   77CHL1  H18A 8132   3.796   6.505   7.763  1.9253  0.9487  1.0861
   77CHL1  H18B 8133   3.902   6.351   7.800 -0.6052 -0.1068 -0.2100
   77CHL1  H18C 8134   3.918   6.432   7.648  1.6359 -2.8452  0.5148
   77CHL1   C12 8135   3.805   6.189   7.618 -0.6005 -0.4890  0.3168
   77CHL1  H12A 8136   3.887   6.151   7.683  0.2914  2.6011  1.1006
   77CHL1  H12B 8137   3.730   6.108   7.615  0.4271 -1.5319  1.9664
   77CHL1   C11 8138   3.861   6.217   7.475 -0.1002  0.0491 -0.8916
   77CHL1  H11A 8139   3.952   6.281   7.483  0.6470 -1.0901 -0.1823
   77CHL1  H11B 8140   3.887   6.117   7.436 -0.6661 -0.1856 -0.6564
   77CHL1    C9 8141   3.758   6.289   7.377  0.0874  0.1033  0.1649
   77CHL1    H9 8142   3.673   6.218   7.365  1.1529 -0.8727 -1.9260
   77CHL1   C10 8143   3.823   6.319   7.235 -0.0484  0.0292 -0.1042
   77CHL1   C19 8144   3.968   6.377   7.255 -0.4924 -0.8490  0.1045
   77CHL1  H19A 8145   4.039   6.309   7.306  1.1030  1.4327  0.9959
   77CHL1  H19B 8146   4.011   6.400   7.155  1.3533  1.2047  1.3241
   77CHL1  H19C 8147   3.967   6.473   7.312 -3.3287 -1.5852  1.3920
   77CHL1    C1 8148   3.833   6.179   7.160 -0.4112  0.1216 -0.1007
   77CHL1   H1A 8149   3.893   6.108   7.220 -1.0839  0.1954  0.6740
   77CHL1   H1B 8150   3.735   6.126   7.166 -0.3180  0.2018  3.6111
   77CHL1    C2 8151   3.881   6.200   7.016  0.7287  0.1801  0.3672
   77CHL1   H2A 8152   3.868   6.102   6.965 -1.3973  0.2519  0.7252
   77CHL1   H2B 8153   3.987   6.229   6.998  1.0532 -0.5076  1.1391
   77CHL1   C20 8154   3.682   6.246   7.931  0.4975  0.4867 -0.2296
   77CHL1   H20 8155   3.787   6.210   7.925  0.0308 -0.9911  0.3314
   77CHL1   C21 8156   3.603   6.129   7.979 -0.5967  0.4132  0.4859
   77CHL1  H21A 8157   3.492   6.133   7.978 -0.5902  0.7861 -1.1274
   77CHL1  H21B 8158   3.629   6.121   8.087  0.6868  0.8396  0.2155
   77CHL1  H21C 8159   3.631   6.035   7.925  0.6794  0.8744  0.3222
   77CHL1   C22 8160   3.673   6.370   8.024 -0.5182  0.2999 -0.4778
   77CHL1  H22A 8161   3.748   6.439   7.980  1.0670 -1.3303 -0.3916
   77CHL1  H22B 8162   3.568   6.406   8.023 -0.1282  1.5864 -4.5045
   77CHL1   C23 8163   3.735   6.356   8.160  0.1915  0.2398 -0.2293
   77CHL1  H23A 8164   3.663   6.289   8.212 -0.6447  0.7656 -0.6915
   77CHL1  H23B 8165   3.834   6.308   8.145 -0.6666 -1.8447  0.6206
   77CHL1   C24 8166   3.741   6.488   8.239  0.9873  0.0531  1.2087
   77CHL1  H24A 8167   3.760   6.582   8.183  0.1724  0.0425  0.9014
   77CHL1  H24B 8168   3.640   6.524   8.270  0.5921  0.2270 -0.2302
   77CHL1   C25 8169   3.831   6.477   8.363 -0.7468 -0.0916  0.6409
   77CHL1   H25 8170   3.932   6.448   8.326 -1.7551 -0.8626 -1.5451
   77CHL1   C26 8171   3.831   6.604   8.447  0.8316 -0.1329 -0.0083
   77CHL1  H26A 8172   3.917   6.608   8.517  0.8847  1.6363 -0.1633
   77CHL1  H26B 8173   3.841   6.690   8.378  0.2005  0.6822  0.9070
   77CHL1  H26C 8174   3.732   6.619   8.494  0.3235  2.4150 -1.7938
   77CHL1   C27 8175   3.795   6.355   8.448  0.6048 -0.0183 -0.4331
   77CHL1  H27A 8176   3.871   6.346   8.529 -1.8090  3.2837  2.3569
   77CHL1  H27B 8177   3.693   6.368   8.491  0.8909 -1.9972  0.8676
   77CHL1  H27C 8178   3.805   6.263   8.387  1.8831 -0.1029 -0.1094
   78CHL1    C3 8179   6.066   0.364   6.844 -0.0687  0.0675  0.0880
   78CHL1    H3 8180   6.104   0.260   6.841  1.7607  0.7045  0.4044
   78CHL1    O3 8181   6.067   0.398   6.705  0.3439  0.8516  0.0840
   78CHL1   H3' 8182   6.035   0.489   6.700 -1.1779  0.2487 -1.6285
   78CHL1    C4 8183   5.920   0.383   6.896 -0.0644  0.1456  0.1225
   78CHL1   H4A 8184   5.891   0.489   6.877 -0.5356  0.5098  2.7049
   78CHL1   H4B 8185   5.857   0.321   6.829  2.4577 -1.1648 -1.0993
   78CHL1    C5 8186   5.919   0.353   7.047  0.3111  0.1885  0.2313
   78CHL1    C6 8187   5.837   0.259   7.089  0.1193 -0.5336  1.2687
   78CHL1    H6 8188   5.779   0.197   7.019  1.2403  1.4376 -1.4601
   78CHL1    C7 8189   5.816   0.224   7.234  0.3353 -0.3229  0.1802
   78CHL1   H7A 8190   5.710   0.210   7.265  0.5262  0.4623  1.2185
   78CHL1   H7B 8191   5.875   0.133   7.261  2.0826  0.0179 -2.3127
   78CHL1    C8 8192   5.865   0.340   7.329 -0.1751 -0.4597 -0.1031
   78CHL1    H8 8193   5.789   0.421   7.318  0.8726  1.0359  2.9662
   78CHL1   C14 8194   5.868   0.300   7.470 -0.5216 -0.1370  0.5442
   78CHL1   H14 8195   5.936   0.212   7.470  1.3051  1.2029 -2.0824
   78CHL1   C15 8196   5.743   0.255   7.540  0.3698  0.6188 -0.1620
   78CHL1  H15A 8197   5.659   0.324   7.517 -1.0718 -1.6130 -1.7625
   78CHL1  H15B 8198   5.705   0.152   7.522 -0.7537  0.7508  1.3085
   78CHL1   C16 8199   5.780   0.253   7.688 -0.5840 -0.2928 -0.6275
   78CHL1  H16A 8200   5.712   0.328   7.736  2.1545  0.4539  2.2890
   78CHL1  H16B 8201   5.774   0.154   7.737 -1.1275  0.3345  0.6020
   78CHL1   C17 8202   5.922   0.324   7.696 -0.1309  0.3439 -0.0193
   78CHL1   H17 8203   5.992   0.238   7.698  0.0527  0.5227  1.7416
   78CHL1   C13 8204   5.939   0.400   7.564  0.1848 -0.2027 -0.1740
   78CHL1   C18 8205   5.860   0.532   7.571 -0.2843 -0.0680  0.9294
   78CHL1  H18A 8206   5.917   0.614   7.619  0.2520  0.2084 -0.1788
   78CHL1  H18B 8207   5.840   0.576   7.471  0.5126 -0.4010  0.6233
   78CHL1  H18C 8208   5.765   0.512   7.626 -0.3051 -0.2602  0.8248
   78CHL1   C12 8209   6.085   0.421   7.516  0.0973  0.6923 -0.8054
   78CHL1  H12A 8210   6.132   0.503   7.574 -0.9066 -0.2350  1.3776
   78CHL1  H12B 8211   6.152   0.332   7.523  0.2980  0.7946 -1.3908
   78CHL1   C11 8212   6.084   0.474   7.374 -0.0115 -0.0126 -0.2163
   78CHL1  H11A 8213   6.039   0.576   7.371  1.5923  0.6903 -1.2321
   78CHL1  H11B 8214   6.189   0.490   7.340 -0.0876 -1.4928 -1.1968
   78CHL1    C9 8215   6.005   0.389   7.276 -0.3455 -0.3296  0.0514
   78CHL1    H9 8216   6.061   0.293   7.275  2.2866  1.1256  1.5684
   78CHL1   C10 8217   6.010   0.437   7.130  0.1335  0.1995 -0.5334
   78CHL1   C19 8218   5.962   0.587   7.124 -0.0569  0.6476  0.5576
   78CHL1  H19A 8219   5.947   0.625   7.020 -1.6694  0.5572  0.7453
   78CHL1  H19B 8220   5.861   0.593   7.170 -0.5777  3.1309 -0.8271
   78CHL1  H19C 8221   6.029   0.658   7.178  0.1774  0.4103  0.5820
   78CHL1    C1 8222   6.154   0.427   7.078 -0.4225  0.3958  0.4604
   78CHL1   H1A 8223   6.213   0.514   7.115  0.0970 -0.3522  1.4151
   78CHL1   H1B 8224   6.197   0.328   7.104  0.6372  0.9766  0.9511
   78CHL1    C2 8225   6.166   0.442   6.925  0.0359 -0.8718 -0.3499
   78CHL1   H2A 8226   6.272   0.415   6.902  0.9296 -0.6420  3.2646
   78CHL1   H2B 8227   6.153   0.548   6.895  1.5321 -0.9991 -1.5214
   78CHL1   C20 8228   5.933   0.401   7.828 -0.3141 -0.1830  0.1342
   78CHL1   H20 8229   5.864   0.488   7.823 -0.2086 -0.1354 -0.6519
   78CHL1   C21 8230   6.072   0.467   7.851  0.9463 -0.2195  0.4128
   78CHL1  H21A 8231   6.076   0.557   7.785  0.8985 -0.9033 -0.5219
   78CHL1  H21B 8232   6.168   0.419   7.825  0.2996 -0.8114 -0.9691
   78CHL1  H21C 8233   6.071   0.497   7.958 -0.7468  0.6228  0.1838
   78CHL1   C22 8234   5.901   0.311   7.944  0.1313  0.4952  0.5679
   78CHL1  H22A 8235   5.909   0.378   8.032 -0.2163  2.0575 -0.5589
   78CHL1  H22B 8236   5.800   0.268   7.934  0.9131 -0.9697 -1.5210
   78CHL1   C23 8237   6.002   0.193   7.965 -0.2839  0.9385 -0.6881
   78CHL1  H23A 8238   6.005   0.135   7.870 -0.3595  2.4001 -1.6048
   78CHL1  H23B 8239   6.100   0.238   7.992  0.2759 -0.3546 -0.5150
   78CHL1   C24 8240   5.978   0.095   8.081  0.0808  0.4455 -0.8140
   78CHL1  H24A 8241   6.067   0.030   8.086  0.1578  0.6964  1.1324
   78CHL1  H24B 8242   5.959   0.151   8.175  0.4720  0.6453 -0.8527
   78CHL1   C25 8243   5.857  -0.006   8.079 -0.9263  0.1074  0.1774
   78CHL1   H25 8244   5.771   0.061   8.101 -1.0373 -0.7348  2.4445
   78CHL1   C26 8245   5.839  -0.068   7.936  0.0596  1.0298  0.0438
   78CHL1  H26A 8246   5.871   0.001   7.855  0.4695 -0.7491 -1.3572
   78CHL1  H26B 8247   5.902  -0.159   7.925  0.1009  1.2124 -1.3293
   78CHL1  H26C 8248   5.735  -0.101   7.912  1.4027 -2.2956 -1.5350
   78CHL1   C27 8249   5.867  -0.113   8.190  0.0016 -0.1242  0.3587
   78CHL1  H27A 8250   5.855  -0.062   8.288 -0.5793 -0.4375  0.4483
   78CHL1  H27B 8251   5.787  -0.190   8.186  1.2521 -1.5336  1.6465
   78CHL1  H27C 8252   5.967  -0.160   8.178  1.1893  2.7730 -1.6381
   79CHL1    C3 8253   4.279   0.275   7.205 -0.1090  0.5316  0.7189
   79CHL1    H3 8254   4.310   0.180   7.254  0.7331  0.6185  0.3669
   79CHL1    O3 8255   4.250   0.261   7.069  0.0171 -0.7412 -0.4734
   79CHL1   H3' 8256   4.210   0.347   7.051  1.1399  0.2885  1.7608
   79CHL1    C4 8257   4.162   0.326   7.279 -0.0513 -0.4796  0.8615
   79CHL1   H4A 8258   4.124   0.423   7.239  0.8333 -0.0475  1.0507
   79CHL1   H4B 8259   4.084   0.248   7.271 -1.0702  0.3045  2.7897
   79CHL1    C5 8260   4.186   0.335   7.428  0.3396 -0.7400  0.0572
   79CHL1    C6 8261   4.107   0.275   7.517  0.1692 -0.0259  0.5357
   79CHL1    H6 8262   4.017   0.224   7.480  0.6727  0.0666 -0.8180
   79CHL1    C7 8263   4.112   0.304   7.668 -0.4636  0.2021  0.0674
   79CHL1   H7A 8264   4.017   0.336   7.715  0.4460 -1.1119  2.9194
   79CHL1   H7B 8265   4.142   0.216   7.728  2.1357 -0.0814 -1.5371
   79CHL1    C8 8266   4.218   0.414   7.709  0.1862 -0.2891  0.4829
   79CHL1    H8 8267   4.170   0.511   7.684  2.0436  1.4050  3.2850
   79CHL1   C14 8268   4.256   0.394   7.855  0.0717 -0.3532 -0.0131
   79CHL1   H14 8269   4.309   0.296   7.857  0.0037 -0.4079 -0.6824
   79CHL1   C15 8270   4.147   0.393   7.962 -0.2443  0.4690  0.3491
   79CHL1  H15A 8271   4.062   0.464   7.948  0.5250  1.5793  1.1793
   79CHL1  H15B 8272   4.115   0.288   7.980 -1.0891  0.6749  0.0960
   79CHL1   C16 8273   4.226   0.449   8.081 -0.1994 -0.4218 -0.2626
   79CHL1  H16A 8274   4.176   0.539   8.122 -0.3426 -0.7231  0.2329
   79CHL1  H16B 8275   4.229   0.377   8.166 -1.8430  0.8293  0.8887
   79CHL1   C17 8276   4.373   0.475   8.046 -0.3224 -0.1180 -0.8447
   79CHL1   H17 8277   4.431   0.382   8.063  0.1504  0.5509  1.3623
   79CHL1   C13 8278   4.364   0.496   7.896  0.3152  0.5327 -0.5074
   79CHL1   C18 8279   4.316   0.638   7.873  0.8205 -0.0066  0.2409
   79CHL1  H18A 8280   4.229   0.650   7.941 -1.4324 -0.5523 -2.4197
   79CHL1  H18B 8281   4.394   0.712   7.898  2.5164 -1.2403 -1.2280
   79CHL1  H18C 8282   4.269   0.664   7.775  1.1143  0.7227  0.2907
   79CHL1   C12 8283   4.493   0.468   7.816 -0.4108 -0.9578 -0.2177
   79CHL1  H12A 8284   4.576   0.534   7.849 -0.1305 -0.3236 -2.1013
   79CHL1  H12B 8285   4.524   0.362   7.832 -2.6043 -1.9088 -1.9551
   79CHL1   C11 8286   4.461   0.485   7.664  0.3651  0.0629 -0.6312
   79CHL1  H11A 8287   4.440   0.593   7.650  0.0793  0.2859  1.3645
   79CHL1  H11B 8288   4.545   0.459   7.596  0.8247 -0.4115  0.1031
   79CHL1    C9 8289   4.342   0.394   7.620  0.2554 -0.7021  0.5353
   79CHL1    H9 8290   4.384   0.294   7.640  1.1124 -0.1418  1.5758
   79CHL1   C10 8291   4.311   0.418   7.467 -0.3256  0.1925  0.4834
   79CHL1   C19 8292   4.284   0.570   7.447 -0.3656 -0.9611 -0.3515
   79CHL1  H19A 8293   4.186   0.596   7.493  0.0672  2.3354 -1.1593
   79CHL1  H19B 8294   4.365   0.644   7.466 -0.0616 -0.9726 -1.5798
   79CHL1  H19C 8295   4.279   0.590   7.338 -2.2529 -2.4684 -0.5587
   79CHL1    C1 8296   4.439   0.389   7.377  0.8674 -1.1464  0.2136
   79CHL1   H1A 8297   4.512   0.472   7.380  1.7099 -1.7945 -1.3827
   79CHL1   H1B 8298   4.482   0.294   7.415  3.0264 -0.4540 -0.4098
   79CHL1    C2 8299   4.404   0.365   7.229 -0.4942 -0.1168  0.3604
   79CHL1   H2A 8300   4.494   0.318   7.183 -1.8169 -1.7622 -0.5702
   79CHL1   H2B 8301   4.386   0.463   7.180  1.7149 -1.0693 -2.4818
   79CHL1   C20 8302   4.456   0.577   8.129 -0.7206  0.2511 -0.1365
   79CHL1   H20 8303   4.421   0.677   8.095 -0.3222  0.8288  1.1548
   79CHL1   C21 8304   4.607   0.567   8.102 -0.2030  0.2582  0.7033
   79CHL1  H21A 8305   4.631   0.635   8.017  0.1235 -0.7513 -0.0266
   79CHL1  H21B 8306   4.631   0.460   8.080 -1.5860  0.1573 -0.3711
   79CHL1  H21C 8307   4.665   0.595   8.192 -0.3088 -0.0097  0.8550
   79CHL1   C22 8308   4.431   0.571   8.286  1.4596 -0.0999 -0.0606
   79CHL1  H22A 8309   4.325   0.555   8.317  1.7976 -1.9198  0.1913
   79CHL1  H22B 8310   4.490   0.486   8.324  0.0765 -1.5458 -1.0910
   79CHL1   C23 8311   4.483   0.698   8.354 -0.8967 -0.1866 -0.6409
   79CHL1  H23A 8312   4.588   0.721   8.329 -0.4669 -0.1843  1.0992
   79CHL1  H23B 8313   4.424   0.786   8.321 -0.1891  0.7448  0.5520
   79CHL1   C24 8314   4.473   0.697   8.510 -0.0121  0.5023  0.2250
   79CHL1  H24A 8315   4.365   0.715   8.531 -0.0611 -0.0415  0.4289
   79CHL1  H24B 8316   4.493   0.600   8.559  0.1360  0.3039 -0.2244
   79CHL1   C25 8317   4.558   0.797   8.588 -0.0946  0.2582 -0.2843
   79CHL1   H25 8318   4.663   0.793   8.551  0.9920  5.0117  1.8917
   79CHL1   C26 8319   4.509   0.942   8.577 -0.3215 -0.2552 -0.7562
   79CHL1  H26A 8320   4.401   0.936   8.601  0.2834 -2.7225  1.5807
   79CHL1  H26B 8321   4.559   1.011   8.649  0.2384 -2.6685  1.2360
   79CHL1  H26C 8322   4.520   0.974   8.471  1.6540 -0.8166 -0.7462
   79CHL1   C27 8323   4.574   0.755   8.735 -0.3191  0.5120 -0.1708
   79CHL1  H27A 8324   4.643   0.669   8.731  1.3524  1.8649 -0.7202
   79CHL1  H27B 8325   4.613   0.843   8.790  1.5105 -2.6752  3.8911
   79CHL1  H27C 8326   4.483   0.728   8.793  0.6816 -0.3916  0.9927
   80CHL1    C3 8327   2.698   4.733   7.062  0.0264 -0.1282 -0.1407
   80CHL1    H3 8328   2.800   4.709   7.096 -0.1336  0.2797  0.6485
   80CHL1    O3 8329   2.674   4.680   6.932 -0.0495 -0.1076 -0.1052
   80CHL1   H3' 8330   2.739   4.721   6.874 -1.7023  1.2232 -1.0527
   80CHL1    C4 8331   2.591   4.678   7.162 -0.7354 -0.1062 -0.0731
   80CHL1   H4A 8332   2.488   4.707   7.133 -0.9991  0.7868  1.6977
   80CHL1   H4B 8333   2.598   4.568   7.150 -1.2906 -0.0394 -1.1278
   80CHL1    C5 8334   2.621   4.742   7.300  0.3242 -0.6009  0.2761
   80CHL1    C6 8335   2.651   4.670   7.406 -0.7217  0.3633  0.0718
   80CHL1    H6 8336   2.656   4.560   7.402 -2.2668  0.3310 -1.0862
   80CHL1    C7 8337   2.666   4.726   7.542 -0.1058  0.9066  0.2314
   80CHL1   H7A 8338   2.624   4.655   7.617  0.7390 -0.1374 -0.2726
   80CHL1   H7B 8339   2.771   4.717   7.576 -0.1587  1.3308  0.5126
   80CHL1    C8 8340   2.618   4.873   7.567 -0.7851 -0.5072 -1.3946
   80CHL1    H8 8341   2.509   4.869   7.592 -0.0359 -0.9195  2.1715
   80CHL1   C14 8342   2.688   4.941   7.688 -0.2041 -0.0031 -0.3792
   80CHL1   H14 8343   2.796   4.949   7.667  0.0305  1.0282  1.1495
   80CHL1   C15 8344   2.685   4.862   7.821 -1.0863  0.3136  0.5076
   80CHL1  H15A 8345   2.581   4.826   7.835 -0.4776 -0.4352  3.5298
   80CHL1  H15B 8346   2.748   4.771   7.832  1.3944  1.6941 -1.5734
   80CHL1   C16 8347   2.701   4.970   7.931  0.0912 -0.2764  0.3718
   80CHL1  H16A 8348   2.612   4.970   7.997  0.5728 -0.8709  1.0235
   80CHL1  H16B 8349   2.795   4.972   7.991 -0.5426  0.9717  1.3541
   80CHL1   C17 8350   2.701   5.106   7.853  0.0738  0.1744  0.4865
   80CHL1   H17 8351   2.807   5.126   7.825 -0.0095  0.2557  0.2283
   80CHL1   C13 8352   2.628   5.084   7.724 -0.0877  0.1236  0.3070
   80CHL1   C18 8353   2.475   5.081   7.754 -0.1888 -0.4981  0.1696
   80CHL1  H18A 8354   2.418   5.038   7.668  2.5769 -1.7246 -1.0942
   80CHL1  H18B 8355   2.461   5.005   7.833 -0.2641 -0.2409  0.4064
   80CHL1  H18C 8356   2.432   5.180   7.780 -1.6793 -0.2107 -3.0802
   80CHL1   C12 8357   2.655   5.172   7.600  0.1045 -0.6893  0.3515
   80CHL1  H12A 8358   2.618   5.276   7.615  2.0854 -0.1429  1.7319
   80CHL1  H12B 8359   2.765   5.191   7.594  0.1015 -1.1741 -1.5278
   80CHL1   C11 8360   2.603   5.111   7.468  0.4427 -0.1434  1.0037
   80CHL1  H11A 8361   2.492   5.107   7.474  0.4839 -1.7995  0.7464
   80CHL1  H11B 8362   2.634   5.172   7.380 -2.5723 -1.2986 -0.9344
   80CHL1    C9 8363   2.645   4.967   7.443 -0.1233  0.3907 -0.0934
   80CHL1    H9 8364   2.755   4.980   7.453 -0.4392  2.3231  1.4043
   80CHL1   C10 8365   2.606   4.900   7.307 -0.2217 -0.8508  0.3280
   80CHL1   C19 8366   2.461   4.946   7.274 -0.2224 -0.5344 -0.0219
   80CHL1  H19A 8367   2.447   5.055   7.286  4.2191 -0.0669  1.9813
   80CHL1  H19B 8368   2.435   4.899   7.177 -0.6345  1.2432 -0.7884
   80CHL1  H19C 8369   2.386   4.902   7.343 -0.6264  2.3320  1.4117
   80CHL1    C1 8370   2.703   4.952   7.192 -0.2930  0.0001  0.5978
   80CHL1   H1A 8371   2.686   5.061   7.182 -1.8232 -0.2065  0.8816
   80CHL1   H1B 8372   2.809   4.941   7.224 -0.1399 -0.5698 -0.0818
   80CHL1    C2 8373   2.684   4.887   7.052 -0.8133  0.3364 -0.4455
   80CHL1   H2A 8374   2.753   4.941   6.985  1.0829 -0.7184  0.6077
   80CHL1   H2B 8375   2.585   4.911   7.008 -0.5574 -0.0640 -1.2565
   80CHL1   C20 8376   2.661   5.229   7.930  0.2492 -0.4660  0.0252
   80CHL1   H20 8377   2.554   5.214   7.956  0.5719 -1.6943  0.6848
   80CHL1   C21 8378   2.662   5.366   7.850 -0.3833 -0.3068 -0.0165
   80CHL1  H21A 8379   2.762   5.359   7.801  0.8648 -1.3110  2.5727
   80CHL1  H21B 8380   2.660   5.452   7.920 -3.2656  2.0599 -2.8448
   80CHL1  H21C 8381   2.578   5.372   7.778  0.8986  0.3469 -1.4832
   80CHL1   C22 8382   2.737   5.241   8.066 -0.1869  0.5815 -0.4145
   80CHL1  H22A 8383   2.716   5.338   8.115 -0.3412  0.7444 -0.8004
   80CHL1  H22B 8384   2.712   5.156   8.133  2.7350  0.2181  0.2629
   80CHL1   C23 8385   2.888   5.236   8.070 -0.2075 -0.5076  0.2342
   80CHL1  H23A 8386   2.927   5.145   8.020 -0.9242 -0.0984 -1.0963
   80CHL1  H23B 8387   2.923   5.323   8.010 -0.5056 -1.9862 -2.1491
   80CHL1   C24 8388   2.951   5.241   8.207 -0.4134  0.0393  0.4299
   80CHL1  H24A 8389   3.058   5.261   8.186 -0.7368  0.2915 -1.0848
   80CHL1  H24B 8390   2.912   5.329   8.262  2.1991  0.9116  0.9339
   80CHL1   C25 8391   2.933   5.117   8.295  0.8923 -0.1754  0.4804
   80CHL1   H25 8392   2.826   5.121   8.324  0.7806 -0.7100  0.1521
   80CHL1   C26 8393   2.974   4.990   8.226  0.0555  0.1645  0.1733
   80CHL1  H26A 8394   3.081   5.000   8.197 -0.2286  1.9451 -0.2883
   80CHL1  H26B 8395   2.953   4.906   8.296  0.0850  0.1539  0.1685
   80CHL1  H26C 8396   2.924   4.975   8.128  0.8168  0.7857 -0.3213
   80CHL1   C27 8397   3.006   5.133   8.425  0.1532 -0.9905  0.4770
   80CHL1  H27A 8398   2.981   5.054   8.499  0.4703  0.8604  2.5993
   80CHL1  H27B 8399   3.115   5.147   8.406 -0.0013 -0.1335  0.2257
   80CHL1  H27C 8400   2.977   5.233   8.463  0.4325 -1.4503  1.9540
   81CHL1    C3 8401   0.911   4.759   6.895 -0.6065  0.1823  0.1086
   81CHL1    H3 8402   0.802   4.740   6.896 -0.4918 -0.5006  0.8578
   81CHL1    O3 8403   0.954   4.755   6.760  0.3411 -0.4692  0.2247
   81CHL1   H3' 8404   1.047   4.777   6.764  0.5959  0.2293 -5.2583
   81CHL1    C4 8405   0.927   4.899   6.947 -0.0110  0.2514 -0.3278
   81CHL1   H4A 8406   1.028   4.942   6.933 -0.2118  1.3633  1.3722
   81CHL1   H4B 8407   0.869   4.970   6.885  0.3564  1.0954  0.2716
   81CHL1    C5 8408   0.899   4.901   7.100 -0.5683 -1.2863 -0.4404
   81CHL1    C6 8409   0.796   4.974   7.155 -0.1653  0.2892  0.3951
   81CHL1    H6 8410   0.727   5.026   7.087  0.6372  0.0128 -0.6326
   81CHL1    C7 8411   0.774   4.986   7.300 -0.1009 -0.4007 -1.0906
   81CHL1   H7A 8412   0.748   5.091   7.324 -2.6166 -0.8096 -1.8596
   81CHL1   H7B 8413   0.676   4.935   7.314 -1.4621  1.6368 -2.7846
   81CHL1    C8 8414   0.888   4.926   7.393 -0.3259  0.2901  0.2125
   81CHL1    H8 8415   0.974   4.996   7.386  2.4205 -3.1010 -2.0051
   81CHL1   C14 8416   0.850   4.915   7.539  0.7763 -0.3618  1.2873
   81CHL1   H14 8417   0.779   4.831   7.552 -0.4214  0.3936 -0.2026
   81CHL1   C15 8418   0.795   5.033   7.610  0.4890  0.0695  0.7365
   81CHL1  H15A 8419   0.840   5.126   7.569  0.3569  0.0384  0.5214
   81CHL1  H15B 8420   0.685   5.048   7.600  0.4574  0.1642  1.2379
   81CHL1   C16 8421   0.826   5.018   7.760  0.0717 -0.1695 -0.3900
   81CHL1  H16A 8422   0.892   5.103   7.787 -1.3955  0.7713  0.2848
   81CHL1  H16B 8423   0.726   5.011   7.807 -0.5691  0.9233 -1.5492
   81CHL1   C17 8424   0.903   4.887   7.769  0.2540  0.4760 -0.2111
   81CHL1   H17 8425   0.821   4.812   7.769  1.4236 -0.8312 -1.3434
   81CHL1   C13 8426   0.966   4.863   7.627 -0.4554  0.2527 -0.5496
   81CHL1   C18 8427   1.089   4.957   7.623  0.1229 -0.4460 -0.3547
   81CHL1  H18A 8428   1.082   5.060   7.664  0.8710 -0.5801  0.1088
   81CHL1  H18B 8429   1.173   4.900   7.668 -0.0061 -1.9180 -1.9350
   81CHL1  H18C 8430   1.128   4.946   7.520  1.5196  1.1615 -0.0186
   81CHL1   C12 8431   1.011   4.720   7.592 -0.7356 -0.6811 -1.1755
   81CHL1  H12A 8432   1.097   4.686   7.654 -0.9947  1.6394  0.5308
   81CHL1  H12B 8433   0.929   4.646   7.603  1.1907 -2.9205 -1.5057
   81CHL1   C11 8434   1.040   4.718   7.440  0.2759  0.2097  0.5179
   81CHL1  H11A 8435   1.140   4.758   7.415 -0.2886  1.2946 -0.0552
   81CHL1  H11B 8436   1.041   4.613   7.403  0.0756  1.0031 -1.8255
   81CHL1    C9 8437   0.938   4.790   7.339 -0.4972  0.4989 -0.2893
   81CHL1    H9 8438   0.845   4.730   7.340 -0.2097  0.0580  1.8477
   81CHL1   C10 8439   0.982   4.798   7.184  0.2777  0.3184 -0.3033
   81CHL1   C19 8440   1.122   4.854   7.185  0.4929  0.2019 -0.6738
   81CHL1  H19A 8441   1.155   4.874   7.081  0.2428 -1.4664 -1.0936
   81CHL1  H19B 8442   1.135   4.949   7.240  1.5148 -1.5398  2.2233
   81CHL1  H19C 8443   1.204   4.790   7.225  0.6950  0.0629 -1.3057
   81CHL1    C1 8444   0.969   4.660   7.117  0.8193  0.4428 -0.1542
   81CHL1   H1A 8445   1.032   4.594   7.180 -1.2800  0.7047  2.2575
   81CHL1   H1B 8446   0.862   4.630   7.117  1.3966 -1.7300 -1.7992
   81CHL1    C2 8447   1.005   4.661   6.968 -0.0213 -0.0026 -0.0250
   81CHL1   H2A 8448   0.976   4.562   6.927 -2.5171 -0.5556  2.9172
   81CHL1   H2B 8449   1.111   4.694   6.960 -0.7431  2.2890 -0.3066
   81CHL1   C20 8450   0.983   4.866   7.895 -0.6612 -0.5956  1.1210
   81CHL1   H20 8451   1.082   4.914   7.884 -1.7791  1.8785  1.3347
   81CHL1   C21 8452   1.005   4.713   7.921 -0.2938  0.0078  1.1246
   81CHL1  H21A 8453   1.053   4.694   8.019  0.7575  0.7382  0.7675
   81CHL1  H21B 8454   1.069   4.666   7.843 -0.3678 -0.4361  1.3311
   81CHL1  H21C 8455   0.907   4.661   7.918  1.7743 -4.0421 -0.4234
   81CHL1   C22 8456   0.934   4.945   8.028  0.1512 -0.6038  0.5942
   81CHL1  H22A 8457   0.952   5.053   8.012  1.0339 -1.3525 -4.1917
   81CHL1  H22B 8458   0.829   4.912   8.046  0.0243 -1.8460 -2.2388
   81CHL1   C23 8459   1.000   4.916   8.160 -0.0796 -0.4145 -0.1224
   81CHL1  H23A 8460   0.954   4.828   8.211  0.0986  0.3991  1.4895
   81CHL1  H23B 8461   1.108   4.897   8.144 -0.6595 -3.0180 -1.2375
   81CHL1   C24 8462   0.988   5.034   8.259  0.1750 -0.2401 -0.4098
   81CHL1  H24A 8463   1.074   5.105   8.261  1.2836 -1.5781 -0.3388
   81CHL1  H24B 8464   0.902   5.090   8.216  0.6539 -0.2860 -1.4413
   81CHL1   C25 8465   0.963   4.985   8.404  0.1571 -0.7708 -0.9490
   81CHL1   H25 8466   0.879   4.912   8.414 -0.3236  0.0018  0.8335
   81CHL1   C26 8467   1.079   4.904   8.463 -0.3313 -0.0897  0.2836
   81CHL1  H26A 8468   1.085   4.806   8.412  2.5115  0.3791 -0.3769
   81CHL1  H26B 8469   1.180   4.948   8.447  0.2417 -1.4659  0.0364
   81CHL1  H26C 8470   1.056   4.900   8.572  2.1699 -1.2369  0.8159
   81CHL1   C27 8471   0.932   5.109   8.497 -0.0897  0.5407  0.1044
   81CHL1  H27A 8472   0.829   5.147   8.484 -0.3486 -0.3832 -0.5987
   81CHL1  H27B 8473   0.931   5.076   8.604 -2.3739  1.4687  0.3826
   81CHL1  H27C 8474   1.012   5.186   8.487  2.6764 -2.2482 -0.0853
   82CHL1    C3 8475   1.721   5.848   6.943  1.0791  0.3108 -0.7469
   82CHL1    H3 8476   1.822   5.824   6.984  0.3627  0.6703  1.2982
   82CHL1    O3 8477   1.705   5.815   6.805  0.2194 -0.3668 -0.4005
   82CHL1   H3' 8478   1.651   5.882   6.763 -1.1958 -3.0071 -2.9334
   82CHL1    C4 8479   1.605   5.786   7.023  0.4532 -0.5577  1.0280
   82CHL1   H4A 8480   1.509   5.809   6.972  1.4137  0.7889 -0.1710
   82CHL1   H4B 8481   1.620   5.677   7.012 -0.4504 -0.3385 -2.8217
   82CHL1    C5 8482   1.596   5.826   7.171  0.0095 -0.2740 -0.6519
   82CHL1    C6 8483   1.595   5.740   7.273 -0.0896  0.6277  0.0545
   82CHL1    H6 8484   1.599   5.632   7.253 -0.1458  0.2801  1.8229
   82CHL1    C7 8485   1.587   5.780   7.416  0.0236 -0.2249 -0.4539
   82CHL1   H7A 8486   1.503   5.730   7.469  0.1680  0.2282  0.1956
   82CHL1   H7B 8487   1.680   5.763   7.474 -0.4528  0.5765  0.5600
   82CHL1    C8 8488   1.552   5.929   7.445  0.3881  0.0538  0.3243
   82CHL1    H8 8489   1.443   5.940   7.431  0.4102  0.5103  0.5086
   82CHL1   C14 8490   1.602   5.973   7.587  0.2051  0.3972  0.8049
   82CHL1   H14 8491   1.712   5.969   7.578  0.1919 -0.5826  1.0318
   82CHL1   C15 8492   1.569   5.879   7.702  0.3934  0.2886  0.2786
   82CHL1  H15A 8493   1.466   5.840   7.687  0.4267 -0.2359  1.3248
   82CHL1  H15B 8494   1.635   5.792   7.725  2.3729  1.7280  0.1189
   82CHL1   C16 8495   1.576   5.972   7.819 -0.5566  0.1700  0.4818
   82CHL1  H16A 8496   1.480   5.978   7.874 -0.2479  1.7567  0.8719
   82CHL1  H16B 8497   1.654   5.942   7.891 -0.2600 -0.3642 -0.0558
   82CHL1   C17 8498   1.626   6.110   7.766 -0.2538 -0.3639 -0.5926
   82CHL1   H17 8499   1.735   6.105   7.749 -0.4484 -0.3000 -1.9644
   82CHL1   C13 8500   1.560   6.117   7.627  0.8347  0.2258  0.4663
   82CHL1   C18 8501   1.407   6.130   7.633  0.2369  0.1463  0.0269
   82CHL1  H18A 8502   1.355   6.119   7.535 -3.6580  3.4625  1.5674
   82CHL1  H18B 8503   1.352   6.071   7.710 -2.1643  3.3670  0.9147
   82CHL1  H18C 8504   1.390   6.238   7.652 -0.5071  0.4219 -2.0458
   82CHL1   C12 8505   1.635   6.210   7.518  0.0523 -0.4717  0.3184
   82CHL1  H12A 8506   1.605   6.315   7.536 -1.2238 -0.8911  0.7354
   82CHL1  H12B 8507   1.744   6.196   7.534 -0.1539  0.3760  2.6485
   82CHL1   C11 8508   1.596   6.178   7.374 -1.2012  0.1468  0.2901
   82CHL1  H11A 8509   1.491   6.208   7.355 -0.6207  1.3225 -1.1246
   82CHL1  H11B 8510   1.652   6.233   7.294 -1.2730  0.4422  0.4440
   82CHL1    C9 8511   1.624   6.024   7.345 -0.0874  0.3632  0.1387
   82CHL1    H9 8512   1.735   6.012   7.350  0.0396  0.6736 -1.6211
   82CHL1   C10 8513   1.599   5.985   7.199 -0.2154  0.1754  0.6107
   82CHL1   C19 8514   1.455   6.036   7.152 -0.1260 -0.0018  0.7418
   82CHL1  H19A 8515   1.383   5.984   7.218  0.2721  0.0840  1.2434
   82CHL1  H19B 8516   1.441   6.146   7.141  1.7795  0.0430 -1.4621
   82CHL1  H19C 8517   1.445   5.994   7.049 -0.3198  0.3106  0.6298
   82CHL1    C1 8518   1.712   6.034   7.099 -0.2010 -0.2676  0.1201
   82CHL1   H1A 8519   1.717   6.144   7.111 -1.6803 -0.2663  0.7994
   82CHL1   H1B 8520   1.808   5.996   7.142 -0.2256 -1.8104 -1.1376
   82CHL1    C2 8521   1.717   6.002   6.951 -0.6380  0.8908  0.2493
   82CHL1   H2A 8522   1.810   6.048   6.910 -0.0885  0.1613  0.6609
   82CHL1   H2B 8523   1.634   6.042   6.889 -0.4552 -1.7511 -1.7863
   82CHL1   C20 8524   1.589   6.214   7.866 -0.0825 -0.1504 -0.4254
   82CHL1   H20 8525   1.479   6.224   7.858 -0.0780  0.3133  0.0487
   82CHL1   C21 8526   1.663   6.340   7.832 -0.0246 -0.3441 -0.4387
   82CHL1  H21A 8527   1.629   6.382   7.735  0.2241  1.5563  0.2941
   82CHL1  H21B 8528   1.773   6.320   7.827  0.4775  2.5077 -1.4438
   82CHL1  H21C 8529   1.654   6.424   7.903  1.6491  1.3449 -2.1510
   82CHL1   C22 8530   1.614   6.176   8.013  0.5094  0.3869 -0.5944
   82CHL1  H22A 8531   1.571   6.257   8.076 -1.5607 -0.6607 -0.6316
   82CHL1  H22B 8532   1.553   6.085   8.034 -0.0338  0.1185 -3.1046
   82CHL1   C23 8533   1.763   6.162   8.042  0.5030  0.4687  0.0905
   82CHL1  H23A 8534   1.820   6.121   7.956  0.2659 -1.4568  0.8228
   82CHL1  H23B 8535   1.791   6.265   8.073  0.7768  0.3231  0.3254
   82CHL1   C24 8536   1.811   6.069   8.161 -0.3353 -0.4083 -0.0750
   82CHL1  H24A 8537   1.783   5.966   8.130  2.0423 -1.4074  1.0089
   82CHL1  H24B 8538   1.922   6.072   8.167 -0.2090 -2.0504 -1.1937
   82CHL1   C25 8539   1.742   6.094   8.298  0.6174 -0.1725 -0.9214
   82CHL1   H25 8540   1.636   6.070   8.277  0.7028 -1.0806 -0.3390
   82CHL1   C26 8541   1.799   6.000   8.400  0.5145 -0.3420  0.5330
   82CHL1  H26A 8542   1.752   6.012   8.500 -1.6782 -0.4360 -0.4585
   82CHL1  H26B 8543   1.781   5.891   8.384  0.4752 -0.2822  0.1899
   82CHL1  H26C 8544   1.908   6.024   8.398 -0.1152  2.8435  1.4849
   82CHL1   C27 8545   1.757   6.235   8.350  0.7734 -0.4107 -0.1112
   82CHL1  H27A 8546   1.732   6.312   8.274  2.3570  1.2122  0.9513
   82CHL1  H27B 8547   1.699   6.251   8.443  2.6965 -0.4140  1.1288
   82CHL1  H27C 8548   1.866   6.249   8.370  1.1029 -1.4532 -1.1392
   83CHL1    C3 8549   4.830   6.693   6.967 -0.4066 -0.2381  0.3950
   83CHL1    H3 8550   4.891   6.612   7.012  2.3085  1.4810 -0.1131
   83CHL1    O3 8551   4.822   6.701   6.822  0.0079 -0.0803 -0.4706
   83CHL1   H3' 8552   4.766   6.779   6.809 -2.1924 -1.6310 -0.6329
   83CHL1    C4 8553   4.688   6.671   7.028 -0.2036  0.3913 -0.2620
   83CHL1   H4A 8554   4.621   6.742   6.976 -0.8144  0.4825  0.6410
   83CHL1   H4B 8555   4.657   6.566   7.006  2.9918 -0.4831 -0.8013
   83CHL1    C5 8556   4.694   6.687   7.183  0.6715  0.1695 -1.1066
   83CHL1    C6 8557   4.647   6.588   7.262  0.6072  0.5543 -0.6992
   83CHL1    H6 8558   4.601   6.497   7.219  0.2136  1.1987 -1.6597
   83CHL1    C7 8559   4.644   6.590   7.409 -0.1616 -0.3420 -1.0756
   83CHL1   H7A 8560   4.551   6.553   7.456  0.5194  0.0931  0.6248
   83CHL1   H7B 8561   4.723   6.522   7.445 -1.3975 -1.3223 -0.1906
   83CHL1    C8 8562   4.670   6.733   7.471  0.5002  0.3700  0.2538
   83CHL1    H8 8563   4.569   6.777   7.470  0.4871  0.3113 -1.3700
   83CHL1   C14 8564   4.714   6.722   7.609  0.2353  0.2302  0.1214
   83CHL1   H14 8565   4.817   6.679   7.608  0.0825 -0.2873  3.1368
   83CHL1   C15 8566   4.633   6.632   7.706  0.6008  0.7640 -0.8360
   83CHL1  H15A 8567   4.529   6.652   7.672  0.7390 -0.4059 -1.9836
   83CHL1  H15B 8568   4.642   6.522   7.691  1.1454  0.2263  3.1288
   83CHL1   C16 8569   4.653   6.690   7.850  0.4170  0.0561  0.4850
   83CHL1  H16A 8570   4.557   6.726   7.890  1.4032  1.0003  2.0262
   83CHL1  H16B 8571   4.697   6.607   7.910 -0.5337 -0.7940  0.0396
   83CHL1   C17 8572   4.737   6.815   7.829  0.4442  0.0784  0.3231
   83CHL1   H17 8573   4.845   6.793   7.837  0.6066  0.9705  0.6234
   83CHL1   C13 8574   4.714   6.856   7.684 -0.1690 -0.0604 -0.2365
   83CHL1   C18 8575   4.575   6.929   7.680  0.3783 -0.0635 -0.7432
   83CHL1  H18A 8576   4.546   6.939   7.573 -2.0249 -4.0309 -0.5776
   83CHL1  H18B 8577   4.489   6.874   7.724  0.3545  0.6744  0.1486
   83CHL1  H18C 8578   4.585   7.031   7.722  0.1760 -0.2892 -0.1437
   83CHL1   C12 8579   4.825   6.941   7.616  0.0401 -0.0320  0.2815
   83CHL1  H12A 8580   4.821   7.043   7.661  0.9813  0.1797 -0.1025
   83CHL1  H12B 8581   4.922   6.890   7.631  1.2596  2.0788 -0.1595
   83CHL1   C11 8582   4.796   6.951   7.467  0.2132 -0.1020 -0.2904
   83CHL1  H11A 8583   4.710   7.022   7.471 -0.3950 -0.8470 -0.2012
   83CHL1  H11B 8584   4.884   6.994   7.414 -0.0065 -1.4457 -1.7972
   83CHL1    C9 8585   4.773   6.815   7.391 -0.0628  0.3556 -0.5351
   83CHL1    H9 8586   4.868   6.760   7.410 -0.4625  0.2413  1.2381
   83CHL1   C10 8587   4.755   6.824   7.235 -0.4031  0.3593 -0.0623
   83CHL1   C19 8588   4.655   6.936   7.203 -0.0411  0.5229 -0.1196
   83CHL1  H19A 8589   4.580   6.934   7.284  0.4345 -0.7682  0.3082
   83CHL1  H19B 8590   4.710   7.032   7.214  1.4827 -0.4224  0.7450
   83CHL1  H19C 8591   4.609   6.933   7.101  2.8507  1.9790 -1.5242
   83CHL1    C1 8592   4.889   6.855   7.157 -0.0253  0.4203  0.6219
   83CHL1   H1A 8593   4.912   6.963   7.168 -2.8065  0.8639  2.4907
   83CHL1   H1B 8594   4.972   6.797   7.204  1.1956  1.4674 -0.2159
   83CHL1    C2 8595   4.886   6.828   7.009 -0.3296  0.2888  0.4366
   83CHL1   H2A 8596   4.989   6.832   6.968 -0.9024  0.4602 -1.0358
   83CHL1   H2B 8597   4.830   6.908   6.956 -0.3784 -2.1088 -3.3373
   83CHL1   C20 8598   4.710   6.921   7.938  0.2164 -0.0789  0.1817
   83CHL1   H20 8599   4.607   6.956   7.916  0.7563 -0.4170 -3.0478
   83CHL1   C21 8600   4.812   7.041   7.931 -0.2148 -0.2864 -0.1333
   83CHL1  H21A 8601   4.917   7.006   7.930 -0.2613 -0.4211 -0.3864
   83CHL1  H21B 8602   4.797   7.099   8.025 -0.7772 -2.7306  1.3162
   83CHL1  H21C 8603   4.786   7.105   7.844  0.7776 -0.0954 -0.2911
   83CHL1   C22 8604   4.699   6.876   8.087  0.4538  0.4207  0.0815
   83CHL1  H22A 8605   4.676   6.968   8.145  3.6569  2.7923 -2.2493
   83CHL1  H22B 8606   4.605   6.818   8.096 -0.7067  2.0070 -1.4881
   83CHL1   C23 8607   4.821   6.818   8.150 -0.1554  0.0334 -0.1972
   83CHL1  H23A 8608   4.873   6.748   8.081  1.8600 -0.7717  2.0714
   83CHL1  H23B 8609   4.888   6.899   8.184  0.2168 -0.6460  0.6861
   83CHL1   C24 8610   4.779   6.723   8.257 -0.2325  0.0618 -0.0302
   83CHL1  H24A 8611   4.696   6.771   8.314  0.3850  0.3439  0.6262
   83CHL1  H24B 8612   4.738   6.632   8.207 -0.3325 -0.8114  1.6309
   83CHL1   C25 8613   4.894   6.695   8.358  0.1662 -0.3931  0.6166
   83CHL1   H25 8614   4.942   6.784   8.401  0.5313  0.0590 -0.7018
   83CHL1   C26 8615   4.849   6.628   8.493 -0.1366 -0.0576  0.4721
   83CHL1  H26A 8616   4.935   6.589   8.552  0.1051  1.7858  1.3751
   83CHL1  H26B 8617   4.792   6.705   8.551  0.3602  0.0791  0.7769
   83CHL1  H26C 8618   4.785   6.542   8.465 -0.4937 -0.1387  1.5157
   83CHL1   C27 8619   5.001   6.616   8.291  0.5296 -0.2831  0.0709
   83CHL1  H27A 8620   5.016   6.641   8.184 -0.2249 -0.2359 -0.0286
   83CHL1  H27B 8621   5.102   6.617   8.337  0.9130 -1.2388 -0.7405
   83CHL1  H27C 8622   4.955   6.516   8.275 -1.0851  0.4879 -0.2791
   84CHL1    C3 8623   0.112   2.951   6.935 -0.5755  1.0779  1.0404
   84CHL1    H3 8624   0.200   3.011   6.965  0.2239  0.2461  0.4002
   84CHL1    O3 8625   0.124   2.925   6.797 -0.2083  0.4434  0.1449
   84CHL1   H3' 8626   0.046   2.883   6.760  1.2023 -2.4769  0.3525
   84CHL1    C4 8627   0.096   2.812   7.016  0.8834  0.2787 -0.2971
   84CHL1   H4A 8628   0.010   2.752   6.980 -0.2663  2.5538 -1.4809
   84CHL1   H4B 8629   0.191   2.762   6.991 -0.4740 -3.4472  1.6294
   84CHL1    C5 8630   0.078   2.842   7.165 -0.7089 -0.1905 -0.3988
   84CHL1    C6 8631   0.163   2.797   7.257  0.2458  0.2687  0.1215
   84CHL1    H6 8632   0.247   2.734   7.225  1.1307  0.2972  2.2793
   84CHL1    C7 8633   0.146   2.817   7.410  0.4427  0.1699  0.0128
   84CHL1   H7A 8634   0.149   2.718   7.459 -2.9323  0.6414  1.2775
   84CHL1   H7B 8635   0.240   2.862   7.447  0.4975 -0.7986  1.0618
   84CHL1    C8 8636   0.010   2.884   7.446 -0.1937  0.0889 -0.2379
   84CHL1    H8 8637  -0.059   2.798   7.429 -1.2055  1.1747 -1.7103
   84CHL1   C14 8638   0.013   2.939   7.588  0.4120  0.0769  0.1523
   84CHL1   H14 8639   0.089   3.019   7.577  0.6659 -0.2609 -0.5470
   84CHL1   C15 8640   0.061   2.853   7.706 -1.1768 -0.2892  1.0926
   84CHL1  H15A 8641   0.024   2.749   7.702  0.9605 -1.0700  0.9488
   84CHL1  H15B 8642   0.171   2.843   7.716 -1.0528 -0.9974 -0.7949
   84CHL1   C16 8643   0.002   2.929   7.831 -1.0854  0.6019  0.4022
   84CHL1  H16A 8644  -0.042   2.857   7.903 -0.3507 -0.4396 -0.1807
   84CHL1  H16B 8645   0.085   2.981   7.884 -1.4813  1.2969  0.3561
   84CHL1   C17 8646  -0.092   3.040   7.775 -0.0260 -0.1747 -0.8079
   84CHL1   H17 8647  -0.029   3.130   7.766  0.7186 -0.7004 -0.8450
   84CHL1   C13 8648  -0.125   3.000   7.632  0.3354  0.0011  0.3858
   84CHL1   C18 8649  -0.237   2.897   7.640 -0.0344  0.2943  0.7318
   84CHL1  H18A 8650  -0.335   2.935   7.676 -1.1697 -0.9244 -0.9509
   84CHL1  H18B 8651  -0.257   2.848   7.542 -1.5061  0.6326  0.8578
   84CHL1  H18C 8652  -0.216   2.817   7.714 -2.5331  0.0191  1.1678
   84CHL1   C12 8653  -0.155   3.117   7.539 -0.3714 -0.9581  0.1524
   84CHL1  H12A 8654  -0.251   3.161   7.573  0.3143 -1.1264  2.3942
   84CHL1  H12B 8655  -0.084   3.201   7.537 -1.3936 -0.0728  0.4532
   84CHL1   C11 8656  -0.152   3.068   7.393 -1.1863 -0.7645  0.1622
   84CHL1  H11A 8657  -0.232   2.991   7.396 -3.7306  1.8209  0.6244
   84CHL1  H11B 8658  -0.189   3.141   7.318  0.0648 -3.1386 -2.8995
   84CHL1    C9 8659  -0.026   2.990   7.344 -0.0440  0.0257  0.2842
   84CHL1    H9 8660   0.058   3.062   7.340 -1.4071  1.6202 -0.7053
   84CHL1   C10 8661  -0.040   2.934   7.200  0.3259  0.3400 -0.0025
   84CHL1   C19 8662  -0.167   2.852   7.184  0.0500 -0.1939 -0.4461
   84CHL1  H19A 8663  -0.169   2.769   7.257 -0.9102  1.1921  1.1217
   84CHL1  H19B 8664  -0.258   2.915   7.191 -0.9920 -1.5799 -1.0874
   84CHL1  H19C 8665  -0.180   2.802   7.085  0.2239  0.0839 -0.6116
   84CHL1    C1 8666  -0.036   3.063   7.107 -0.2930 -0.3707 -0.4014
   84CHL1   H1A 8667  -0.135   3.113   7.119 -0.3965 -1.1601  2.1397
   84CHL1   H1B 8668   0.045   3.133   7.136 -0.9782  0.0937  0.4187
   84CHL1    C2 8669  -0.016   3.030   6.958 -0.1702  0.5014 -0.3236
   84CHL1   H2A 8670  -0.023   3.120   6.893 -1.4822  0.4607 -0.2435
   84CHL1   H2B 8671  -0.096   2.963   6.922  1.0795 -1.3519  0.2932
   84CHL1   C20 8672  -0.207   3.092   7.864  0.2953 -0.4072 -0.0630
   84CHL1   H20 8673  -0.282   3.137   7.796  0.6733 -1.3002 -1.0762
   84CHL1   C21 8674  -0.151   3.207   7.949  0.4111 -0.0875  0.1300
   84CHL1  H21A 8675  -0.123   3.304   7.901  0.4237  0.7502  1.7998
   84CHL1  H21B 8676  -0.058   3.169   7.997 -0.1101 -1.8057 -0.2041
   84CHL1  H21C 8677  -0.223   3.239   8.028  0.1551  2.1344 -0.9715
   84CHL1   C22 8678  -0.278   2.982   7.944  0.0196  0.7787 -0.0070
   84CHL1  H22A 8679  -0.306   2.891   7.887 -1.4776  1.3352 -0.1821
   84CHL1  H22B 8680  -0.220   2.946   8.032  1.1018  3.2547  0.3331
   84CHL1   C23 8681  -0.406   3.035   8.010 -0.2532  0.3054 -0.0357
   84CHL1  H23A 8682  -0.395   3.122   8.077  1.3759 -1.9977  2.7854
   84CHL1  H23B 8683  -0.476   3.076   7.933  0.8236  2.3162  0.0299
   84CHL1   C24 8684  -0.476   2.927   8.093  0.2636  0.2623 -0.2976
   84CHL1  H24A 8685  -0.514   2.851   8.021  1.2570 -1.0304  0.5106
   84CHL1  H24B 8686  -0.402   2.869   8.154 -1.8929 -1.6191  0.6151
   84CHL1   C25 8687  -0.598   2.977   8.169 -0.0047 -0.0301  0.3948
   84CHL1   H25 8688  -0.560   3.055   8.240 -0.2535 -2.0585  2.8389
   84CHL1   C26 8689  -0.704   3.038   8.076 -0.0835 -0.6758  0.0995
   84CHL1  H26A 8690  -0.791   3.055   8.144 -0.3900  1.7326 -0.8358
   84CHL1  H26B 8691  -0.675   3.134   8.028 -1.3186  0.7459  2.0736
   84CHL1  H26C 8692  -0.744   2.967   8.001 -0.8338 -0.8549  0.6596
   84CHL1   C27 8693  -0.655   2.853   8.245  0.9545  0.2966  0.4900
   84CHL1  H27A 8694  -0.744   2.867   8.310  2.6721  0.8091  2.8080
   84CHL1  H27B 8695  -0.678   2.771   8.174 -0.3026  0.5559  0.5823
   84CHL1  H27C 8696  -0.585   2.817   8.324 -0.7588 -1.5558  1.2019
   85CHL1    C3 8697   6.793   0.314   6.776  0.0014  0.1230  0.5360
   85CHL1    H3 8698   6.873   0.382   6.811  0.5745 -1.2191  1.8946
   85CHL1    O3 8699   6.797   0.281   6.635 -0.1237 -0.6441  0.1525
   85CHL1   H3' 8700   6.717   0.233   6.613 -0.5028 -0.2333  0.5996
   85CHL1    C4 8701   6.797   0.186   6.859 -0.6306 -0.4416 -1.2672
   85CHL1   H4A 8702   6.714   0.117   6.830 -0.6723 -1.0289  0.1879
   85CHL1   H4B 8703   6.891   0.135   6.829 -1.6699 -2.1065 -1.7610
   85CHL1    C5 8704   6.779   0.207   7.003 -0.2834 -0.3187 -0.5332
   85CHL1    C6 8705   6.868   0.153   7.097  0.4281 -0.3468 -0.7953
   85CHL1    H6 8706   6.965   0.106   7.074 -0.3027 -2.4365  0.3511
   85CHL1    C7 8707   6.864   0.190   7.242  0.0750  0.4294 -0.8759
   85CHL1   H7A 8708   6.874   0.105   7.313 -2.1900 -0.2648 -1.3340
   85CHL1   H7B 8709   6.938   0.267   7.271 -0.6644  0.4088  1.2197
   85CHL1    C8 8710   6.715   0.239   7.288  0.4431 -0.5240  0.3970
   85CHL1    H8 8711   6.649   0.150   7.275 -1.4236  0.9063 -0.0382
   85CHL1   C14 8712   6.718   0.292   7.428  0.7730  0.1656 -0.4222
   85CHL1   H14 8713   6.783   0.383   7.424  0.4988  0.3774 -0.0491
   85CHL1   C15 8714   6.760   0.196   7.535  0.2512 -0.2870  0.1335
   85CHL1  H15A 8715   6.711   0.098   7.515  0.9093 -0.6431  0.2401
   85CHL1  H15B 8716   6.869   0.173   7.533  0.2617 -0.3449 -4.4441
   85CHL1   C16 8717   6.702   0.260   7.666 -0.7430  0.0857  0.1284
   85CHL1  H16A 8718   6.640   0.189   7.724  0.5801 -0.3728  0.9942
   85CHL1  H16B 8719   6.787   0.285   7.732 -1.7889  1.0730  1.1368
   85CHL1   C17 8720   6.620   0.385   7.628  0.1215  0.8576  0.1734
   85CHL1   H17 8721   6.697   0.465   7.629  0.5841  0.4264 -0.7674
   85CHL1   C13 8722   6.581   0.349   7.484  0.4431  0.4286  0.5784
   85CHL1   C18 8723   6.482   0.241   7.467 -0.1684  0.4397 -0.2947
   85CHL1  H18A 8724   6.383   0.272   7.508 -1.1782  0.3915 -2.6029
   85CHL1  H18B 8725   6.451   0.215   7.363 -1.8954 -1.5755  0.6979
   85CHL1  H18C 8726   6.509   0.142   7.509 -1.6542 -0.2410 -0.8838
   85CHL1   C12 8727   6.535   0.468   7.389  0.5050  0.5579  0.5211
   85CHL1  H12A 8728   6.432   0.498   7.418  0.7765  1.2104  0.8163
   85CHL1  H12B 8729   6.596   0.558   7.408  1.3329 -0.0442  0.7148
   85CHL1   C11 8730   6.540   0.420   7.243 -0.1396 -0.0293  0.0350
   85CHL1  H11A 8731   6.455   0.352   7.222  0.5581 -0.9639  0.1795
   85CHL1  H11B 8732   6.524   0.511   7.182  2.3685  1.1403  1.0409
   85CHL1    C9 8733   6.669   0.349   7.191 -0.4551 -0.3225 -0.6330
   85CHL1    H9 8734   6.747   0.428   7.195 -1.3942  0.5200  1.6971
   85CHL1   C10 8735   6.667   0.302   7.043 -0.4046  0.3758 -0.4579
   85CHL1   C19 8736   6.542   0.215   7.017 -0.3790 -0.1484  0.4032
   85CHL1  H19A 8737   6.441   0.262   7.023 -0.3600  0.0204 -0.5289
   85CHL1  H19B 8738   6.540   0.177   6.913 -0.3541 -0.5867  0.5631
   85CHL1  H19C 8739   6.542   0.130   7.088  1.2404  0.9182  1.7285
   85CHL1    C1 8740   6.661   0.432   6.951  0.2182  0.3151 -0.0910
   85CHL1   H1A 8741   6.567   0.490   6.965  0.5139  0.6850  0.3742
   85CHL1   H1B 8742   6.739   0.506   6.980 -1.1429  1.3004  1.1000
   85CHL1    C2 8743   6.660   0.389   6.801  0.3981 -0.6529  0.0969
   85CHL1   H2A 8744   6.655   0.476   6.732 -0.4184 -1.5620 -1.0141
   85CHL1   H2B 8745   6.572   0.325   6.777  0.4357 -0.5891 -0.2048
   85CHL1   C20 8746   6.512   0.413   7.731  0.5954  0.2005 -0.0752
   85CHL1   H20 8747   6.446   0.324   7.735 -0.2190  0.7569 -1.0399
   85CHL1   C21 8748   6.421   0.518   7.686 -0.9945 -0.1874 -0.0682
   85CHL1  H21A 8749   6.358   0.552   7.771 -0.7990  0.7345 -0.2857
   85CHL1  H21B 8750   6.348   0.480   7.612 -2.5265  1.1180  0.7458
   85CHL1  H21C 8751   6.480   0.603   7.644 -1.7878  0.0529 -0.6922
   85CHL1   C22 8752   6.566   0.442   7.875  0.4471 -0.5775 -0.1407
   85CHL1  H22A 8753   6.670   0.408   7.898  0.7330  0.6906  0.5094
   85CHL1  H22B 8754   6.565   0.552   7.887  1.6677 -0.1015 -3.7163
   85CHL1   C23 8755   6.478   0.376   7.986  0.1740  0.1270  0.1171
   85CHL1  H23A 8756   6.369   0.393   7.977  0.2678  1.3570  1.2949
   85CHL1  H23B 8757   6.488   0.265   7.981  1.6059  0.2524 -0.1655
   85CHL1   C24 8758   6.508   0.429   8.119  0.0940  0.0774 -0.7480
   85CHL1  H24A 8759   6.616   0.427   8.145 -0.0348  3.2783  0.2456
   85CHL1  H24B 8760   6.499   0.540   8.112 -0.8333  0.0849  0.3715
   85CHL1   C25 8761   6.410   0.391   8.233 -0.6980 -0.3001  0.0826
   85CHL1   H25 8762   6.310   0.398   8.184 -0.8334 -3.9639 -0.2832
   85CHL1   C26 8763   6.423   0.244   8.284 -0.1388 -0.1369  0.1405
   85CHL1  H26A 8764   6.428   0.167   8.204 -0.1254 -0.4343  0.4274
   85CHL1  H26B 8765   6.518   0.222   8.337 -0.8223  0.8619  1.8043
   85CHL1  H26C 8766   6.338   0.222   8.352 -0.7763  1.3476 -0.1645
   85CHL1   C27 8767   6.407   0.493   8.346  0.0418  0.0143 -0.3153
   85CHL1  H27A 8768   6.350   0.453   8.432  0.3325 -0.0053 -0.1314
   85CHL1  H27B 8769   6.504   0.508   8.397 -0.6393  1.0360  0.7070
   85CHL1  H27C 8770   6.364   0.592   8.319 -0.7096 -0.5491 -1.2394
   86CHL1    C3 8771   1.480   4.770   6.987 -0.6875 -0.3120 -0.3743
   86CHL1    H3 8772   1.371   4.788   6.997 -0.6462  0.2887 -0.9989
   86CHL1    O3 8773   1.530   4.757   6.850  0.1566 -0.4460  0.0741
   86CHL1   H3' 8774   1.619   4.720   6.852  0.7091  0.7884 -0.7721
   86CHL1    C4 8775   1.550   4.899   7.044  0.3404  0.3230  0.6219
   86CHL1   H4A 8776   1.661   4.901   7.039  0.3685 -1.2778  0.3268
   86CHL1   H4B 8777   1.498   4.984   6.995  0.3053 -1.1856 -2.0479
   86CHL1    C5 8778   1.533   4.912   7.197 -0.1135  0.1258  0.4362
   86CHL1    C6 8779   1.487   5.025   7.252  0.3548 -0.5491  0.1898
   86CHL1    H6 8780   1.465   5.109   7.184  1.5465 -2.0593 -2.0866
   86CHL1    C7 8781   1.478   5.055   7.400  0.1515  0.5576  0.6931
   86CHL1   H7A 8782   1.515   5.158   7.419  1.9912 -0.3935  2.4526
   86CHL1   H7B 8783   1.372   5.055   7.433  0.5129  0.1339  1.8741
   86CHL1    C8 8784   1.550   4.943   7.479  0.2452 -0.1084  0.3018
   86CHL1    H8 8785   1.658   4.967   7.473  0.4084 -0.9685 -0.3849
   86CHL1   C14 8786   1.497   4.948   7.619 -0.1861  0.5880  0.3036
   86CHL1   H14 8787   1.393   4.907   7.619  0.4031 -0.9502  0.8985
   86CHL1   C15 8788   1.481   5.086   7.684  0.3361 -0.1292 -0.1665
   86CHL1  H15A 8789   1.568   5.148   7.653  0.6764  0.3462  1.6776
   86CHL1  H15B 8790   1.386   5.132   7.652  0.1973 -0.8777 -0.8314
   86CHL1   C16 8791   1.500   5.056   7.834  0.3467 -0.1231  0.5336
   86CHL1  H16A 8792   1.602   5.092   7.860  0.8332 -1.7324  0.9465
   86CHL1  H16B 8793   1.430   5.119   7.893 -0.1520 -1.0599  0.9646
   86CHL1   C17 8794   1.493   4.902   7.849 -0.0434  0.0703  0.2406
   86CHL1   H17 8795   1.384   4.878   7.842 -0.2604  0.4304  2.0620
   86CHL1   C13 8796   1.566   4.852   7.724  0.2410 -0.2273  1.7590
   86CHL1   C18 8797   1.720   4.876   7.729  0.5986 -0.6150 -0.1883
   86CHL1  H18A 8798   1.785   4.789   7.708  1.4952  0.3373 -1.4221
   86CHL1  H18B 8799   1.761   4.956   7.664  0.5453  1.9871  2.8460
   86CHL1  H18C 8800   1.744   4.907   7.833 -1.6963 -1.2425  0.5527
   86CHL1   C12 8801   1.526   4.718   7.669 -0.0228 -0.5945 -0.3706
   86CHL1  H12A 8802   1.552   4.625   7.724 -0.1484 -0.1176  0.4931
   86CHL1  H12B 8803   1.416   4.708   7.655 -0.2292  3.0899 -1.8022
   86CHL1   C11 8804   1.591   4.698   7.530 -0.3165 -0.4181 -0.2971
   86CHL1  H11A 8805   1.702   4.706   7.524 -0.3057 -0.4423 -0.1075
   86CHL1  H11B 8806   1.567   4.595   7.494 -1.5217  0.3330 -1.6912
   86CHL1    C9 8807   1.532   4.802   7.426 -0.5157 -0.6428  0.7152
   86CHL1    H9 8808   1.422   4.789   7.432 -0.5975  0.1694  0.9781
   86CHL1   C10 8809   1.571   4.781   7.276  0.0093  0.0188 -0.7281
   86CHL1   C19 8810   1.725   4.760   7.267 -0.3931  0.0407 -0.3266
   86CHL1  H19A 8811   1.755   4.754   7.161 -2.1779 -0.8932 -0.8103
   86CHL1  H19B 8812   1.771   4.853   7.307 -0.5873  0.4588 -1.0792
   86CHL1  H19C 8813   1.755   4.676   7.334 -1.7304 -1.0247 -1.0428
   86CHL1    C1 8814   1.501   4.657   7.213 -0.0374  0.2807  0.0303
   86CHL1   H1A 8815   1.533   4.564   7.265 -1.1100 -0.3127 -0.3654
   86CHL1   H1B 8816   1.391   4.671   7.223 -0.0031 -1.2675  3.2024
   86CHL1    C2 8817   1.528   4.645   7.066  0.0439 -0.3344  0.5271
   86CHL1   H2A 8818   1.468   4.558   7.031 -1.4794  0.8503  0.1610
   86CHL1   H2B 8819   1.633   4.624   7.035  0.2725 -1.9987  2.3395
   86CHL1   C20 8820   1.537   4.858   7.988  0.4623 -0.3994 -0.0934
   86CHL1   H20 8821   1.646   4.877   8.001  0.9902 -2.9300 -0.6963
   86CHL1   C21 8822   1.487   4.710   8.013 -0.2346  0.5448 -0.4730
   86CHL1  H21A 8823   1.522   4.669   8.110  0.4679  0.1605 -0.8764
   86CHL1  H21B 8824   1.531   4.635   7.943  0.0769  0.7523 -0.4985
   86CHL1  H21C 8825   1.380   4.682   8.017  0.1886 -0.9955  1.1686
   86CHL1   C22 8826   1.472   4.937   8.103  0.4447 -0.8774  0.0268
   86CHL1  H22A 8827   1.511   5.039   8.086 -0.7860  0.0838  2.6988
   86CHL1  H22B 8828   1.361   4.941   8.096  0.4750 -0.1336 -0.0705
   86CHL1   C23 8829   1.514   4.892   8.246 -0.7883 -0.1175  1.2004
   86CHL1  H23A 8830   1.459   4.803   8.282 -0.4189 -0.5162  0.7877
   86CHL1  H23B 8831   1.623   4.870   8.253 -0.5612  1.1493  1.8384
   86CHL1   C24 8832   1.479   4.998   8.357 -0.0380  0.4861 -0.5371
   86CHL1  H24A 8833   1.570   5.062   8.367  2.8327 -3.4916 -0.0072
   86CHL1  H24B 8834   1.395   5.066   8.329  0.2040  0.7615 -0.6057
   86CHL1   C25 8835   1.453   4.940   8.499  0.2532  0.1728  0.2682
   86CHL1   H25 8836   1.370   4.867   8.506  2.6470 -2.4628  2.7274
   86CHL1   C26 8837   1.583   4.878   8.537  0.1210  0.0008 -0.3054
   86CHL1  H26A 8838   1.669   4.930   8.490 -0.6792  2.0260  0.4143
   86CHL1  H26B 8839   1.600   4.875   8.647 -1.6658  0.1806  0.0034
   86CHL1  H26C 8840   1.587   4.772   8.504 -0.2183 -0.1980  0.2777
   86CHL1   C27 8841   1.399   5.051   8.596  0.0830 -0.4820 -0.6642
   86CHL1  H27A 8842   1.475   5.130   8.611 -0.2738 -0.2652  0.0318
   86CHL1  H27B 8843   1.312   5.107   8.557  0.6842  0.3759 -0.7886
   86CHL1  H27C 8844   1.365   5.009   8.693  0.3390  0.4827 -0.1491
   87CHL1    C3 8845   1.578   2.888   6.945  0.1730  0.3600  0.0878
   87CHL1    H3 8846   1.497   2.816   6.965 -0.0505  0.9149  1.2381
   87CHL1    O3 8847   1.590   2.892   6.801 -0.0845 -0.2629 -0.8430
   87CHL1   H3' 8848   1.670   2.940   6.780  0.7383 -0.5508  1.5468
   87CHL1    C4 8849   1.557   3.031   6.997 -0.3537  0.4989  0.0113
   87CHL1   H4A 8850   1.638   3.092   6.950 -0.0274 -0.7926 -1.1443
   87CHL1   H4B 8851   1.464   3.063   6.945  0.1295  2.3592  0.2741
   87CHL1    C5 8852   1.573   3.052   7.143  0.5646  0.6357  0.3689
   87CHL1    C6 8853   1.474   3.116   7.211  0.5376 -0.2816 -0.8562
   87CHL1    H6 8854   1.401   3.169   7.149  3.0875  0.5015 -3.2864
   87CHL1    C7 8855   1.481   3.139   7.357 -0.4379 -0.1245 -0.0910
   87CHL1   H7A 8856   1.450   3.244   7.373  1.5752  0.7203 -1.5320
   87CHL1   H7B 8857   1.402   3.074   7.400 -0.0261 -1.0222 -0.6640
   87CHL1    C8 8858   1.611   3.102   7.431 -0.0580 -0.5343  0.0786
   87CHL1    H8 8859   1.675   3.192   7.412 -2.7572  1.6553  1.0462
   87CHL1   C14 8860   1.596   3.073   7.578 -0.3714 -0.2324  0.2208
   87CHL1   H14 8861   1.535   2.981   7.591 -1.9236  0.7724  0.2472
   87CHL1   C15 8862   1.521   3.179   7.662 -0.0650  0.5302 -1.4251
   87CHL1  H15A 8863   1.558   3.276   7.621 -1.0699  0.7266 -1.8775
   87CHL1  H15B 8864   1.411   3.191   7.648 -0.0824  0.8722 -1.0072
   87CHL1   C16 8865   1.567   3.148   7.807 -0.0528  1.0361  0.0784
   87CHL1  H16A 8866   1.622   3.234   7.849  0.2220 -0.3516  2.6388
   87CHL1  H16B 8867   1.469   3.134   7.858 -1.0777  4.7185 -0.7501
   87CHL1   C17 8868   1.664   3.025   7.798 -0.4653 -0.2203 -0.1072
   87CHL1   H17 8869   1.601   2.934   7.803 -0.1497 -0.4290  0.0909
   87CHL1   C13 8870   1.721   3.036   7.658  0.1031 -0.1118  0.6051
   87CHL1   C18 8871   1.826   3.144   7.640  0.3001  0.8305 -0.0938
   87CHL1  H18A 8872   1.848   3.159   7.532 -0.4903  1.9908 -0.1005
   87CHL1  H18B 8873   1.791   3.242   7.678 -2.8251  0.3599 -1.6475
   87CHL1  H18C 8874   1.918   3.116   7.697 -1.3769  1.1137  2.8356
   87CHL1   C12 8875   1.766   2.896   7.602  0.0581 -0.5435 -0.4320
   87CHL1  H12A 8876   1.865   2.856   7.634  0.0472  0.7778  1.3315
   87CHL1  H12B 8877   1.681   2.831   7.630 -1.1550  1.7422  1.3334
   87CHL1   C11 8878   1.796   2.910   7.449 -0.3998 -0.1884  1.0859
   87CHL1  H11A 8879   1.884   2.976   7.432 -0.6850 -0.2266 -0.6707
   87CHL1  H11B 8880   1.822   2.811   7.404 -1.5253  0.3051 -0.7216
   87CHL1    C9 8881   1.675   2.977   7.364  0.4295 -0.6604 -0.0946
   87CHL1    H9 8882   1.588   2.908   7.368  1.0266 -1.3834  0.8203
   87CHL1   C10 8883   1.699   2.986   7.205  0.6325 -0.4004 -1.0818
   87CHL1   C19 8884   1.826   3.076   7.182  0.1605  0.0850 -0.3235
   87CHL1  H19A 8885   1.848   3.074   7.073 -1.5926  1.8207 -0.7430
   87CHL1  H19B 8886   1.785   3.178   7.201 -0.1012 -0.1496  0.3909
   87CHL1  H19C 8887   1.912   3.047   7.245  0.3405  1.8606  0.2793
   87CHL1    C1 8888   1.725   2.842   7.147  0.4523  0.1068  0.0563
   87CHL1   H1A 8889   1.814   2.801   7.200  1.0125 -0.4851 -1.3347
   87CHL1   H1B 8890   1.643   2.784   7.194 -0.5339 -0.0094 -1.7622
   87CHL1    C2 8891   1.717   2.837   6.997 -0.4761  0.1332  0.1802
   87CHL1   H2A 8892   1.738   2.729   6.982 -1.0344  0.0088  0.2676
   87CHL1   H2B 8893   1.791   2.904   6.948  0.0221  1.9337  3.2748
   87CHL1   C20 8894   1.757   3.037   7.923 -0.2078  0.3248 -0.7209
   87CHL1   H20 8895   1.815   3.130   7.904  1.9640 -0.8431  0.0502
   87CHL1   C21 8896   1.850   2.906   7.923  0.1244 -0.0577 -0.0828
   87CHL1  H21A 8897   1.920   2.907   7.837 -0.1291  1.0372 -0.2804
   87CHL1  H21B 8898   1.780   2.820   7.915 -2.5455  1.8419  1.8535
   87CHL1  H21C 8899   1.905   2.899   8.019 -0.4444  0.7944  0.3131
   87CHL1   C22 8900   1.687   3.057   8.059  0.3026 -0.3722 -0.0080
   87CHL1  H22A 8901   1.640   3.158   8.055 -0.0879 -0.5494  0.1110
   87CHL1  H22B 8902   1.615   2.974   8.075 -0.5628 -0.0050 -1.8181
   87CHL1   C23 8903   1.775   3.075   8.183 -0.2076 -0.5860 -0.1314
   87CHL1  H23A 8904   1.723   3.095   8.279  1.2792 -0.4499  0.6671
   87CHL1  H23B 8905   1.817   2.973   8.198 -0.6481 -0.4779  2.1267
   87CHL1   C24 8906   1.891   3.175   8.156 -0.1191 -0.2562 -0.2926
   87CHL1  H24A 8907   1.944   3.167   8.058 -1.4055 -2.5970 -0.8189
   87CHL1  H24B 8908   1.845   3.275   8.169 -1.1424 -0.9166  1.2948
   87CHL1   C25 8909   1.999   3.158   8.268  0.1928 -0.3997 -0.6032
   87CHL1   H25 8910   2.040   3.058   8.244 -1.6006 -1.1249 -0.7782
   87CHL1   C26 8911   2.112   3.267   8.258 -0.4125 -0.6623  0.6846
   87CHL1  H26A 8912   2.075   3.371   8.272  3.9693  0.6923  2.8845
   87CHL1  H26B 8913   2.179   3.244   8.343 -0.0176 -2.1882 -0.0264
   87CHL1  H26C 8914   2.171   3.248   8.166 -1.0866 -0.0614  0.1200
   87CHL1   C27 8915   1.940   3.176   8.407  0.2410  0.3087 -0.2021
   87CHL1  H27A 8916   1.920   3.284   8.426 -0.6938  0.0183  0.4278
   87CHL1  H27B 8917   1.849   3.118   8.430 -0.0464  1.1810  0.9100
   87CHL1  H27C 8918   2.013   3.161   8.490 -1.1809 -2.0189  0.6457
   88CHL1    C3 8919   5.995   1.630   6.883 -0.7359 -0.6106 -0.6767
   88CHL1    H3 8920   6.102   1.638   6.909 -0.8046 -2.2652  0.1867
   88CHL1    O3 8921   5.983   1.615   6.742 -0.5494 -0.2037 -0.3235
   88CHL1   H3' 8922   5.888   1.624   6.733 -0.7506  0.9496  2.3548
   88CHL1    C4 8923   5.934   1.511   6.955 -0.2871  0.7054 -0.4092
   88CHL1   H4A 8924   5.825   1.527   6.938 -0.6457  0.8222  1.7591
   88CHL1   H4B 8925   5.963   1.412   6.915 -2.3607 -1.1620  2.5170
   88CHL1    C5 8926   5.963   1.519   7.106 -0.4702  0.8520 -0.2419
   88CHL1    C6 8927   6.043   1.429   7.167  0.4804  0.0750 -0.8399
   88CHL1    H6 8928   6.082   1.344   7.109 -0.0803 -0.4794 -0.4115
   88CHL1    C7 8929   6.076   1.428   7.313  0.3645  0.2148 -0.9022
   88CHL1   H7A 8930   6.051   1.326   7.349  2.1829  0.5189  1.3320
   88CHL1   H7B 8931   6.184   1.451   7.328 -0.0879  2.1621 -0.5624
   88CHL1    C8 8932   5.983   1.533   7.393 -0.9043  0.3196 -1.2438
   88CHL1    H8 8933   5.882   1.490   7.410 -0.2284 -0.2589  1.6034
   88CHL1   C14 8934   6.032   1.551   7.544  0.0574 -0.2562  0.3488
   88CHL1   H14 8935   6.135   1.592   7.534 -1.2326  3.3411  1.3211
   88CHL1   C15 8936   6.041   1.433   7.634 -0.4266  0.5091 -0.1015
   88CHL1  H15A 8937   5.951   1.367   7.640  0.4574 -0.7408 -0.5121
   88CHL1  H15B 8938   6.133   1.377   7.608 -0.3884 -0.0159  1.1455
   88CHL1   C16 8939   6.069   1.488   7.773  0.8005 -0.1387  0.5077
   88CHL1  H16A 8940   5.993   1.448   7.843  0.3929 -1.0641 -0.4363
   88CHL1  H16B 8941   6.167   1.461   7.817  0.7295  0.6130  1.1268
   88CHL1   C17 8942   6.051   1.643   7.755  0.0553  0.8894 -0.2379
   88CHL1   H17 8943   6.154   1.681   7.739 -0.4254  1.8837 -1.0532
   88CHL1   C13 8944   5.966   1.668   7.628 -0.4329  0.6790 -0.1699
   88CHL1   C18 8945   5.822   1.619   7.659  1.2749 -0.0096 -0.2522
   88CHL1  H18A 8946   5.760   1.611   7.567  0.6730  1.6892 -0.0113
   88CHL1  H18B 8947   5.820   1.519   7.708  0.0770 -0.9794 -2.2512
   88CHL1  H18C 8948   5.766   1.685   7.729  0.9536 -0.4994 -0.0373
   88CHL1   C12 8949   5.974   1.796   7.546 -1.2519 -0.2245 -0.5501
   88CHL1  H12A 8950   5.930   1.880   7.604 -1.6662 -0.4548 -0.5242
   88CHL1  H12B 8951   6.080   1.826   7.534 -1.3929  1.8260  2.6621
   88CHL1   C11 8952   5.906   1.781   7.405  0.0485  0.1597 -0.5971
   88CHL1  H11A 8953   5.798   1.758   7.420  0.0660  0.7648  0.5996
   88CHL1  H11B 8954   5.924   1.880   7.358  3.0802 -0.4921 -0.9180
   88CHL1    C9 8955   5.972   1.669   7.319 -0.6403 -0.3104  0.2626
   88CHL1    H9 8956   6.074   1.702   7.294 -0.7953 -0.8098 -1.0438
   88CHL1   C10 8957   5.909   1.645   7.184  0.6045 -0.1807  1.1696
   88CHL1   C19 8958   5.758   1.625   7.186  0.1129  0.6251 -0.2337
   88CHL1  H19A 8959   5.702   1.702   7.244 -0.6607  0.3328 -0.5753
   88CHL1  H19B 8960   5.710   1.625   7.086  1.7973  0.0526 -1.0470
   88CHL1  H19C 8961   5.728   1.528   7.232  0.9196  1.0177  1.1615
   88CHL1    C1 8962   5.940   1.765   7.090 -0.1854 -0.1199  1.0671
   88CHL1   H1A 8963   5.889   1.860   7.117 -1.2743  0.1727 -1.8906
   88CHL1   H1B 8964   6.049   1.782   7.106  0.1877  1.0666 -2.4454
   88CHL1    C2 8965   5.926   1.761   6.937  0.6074 -0.6432  0.2032
   88CHL1   H2A 8966   5.982   1.848   6.897 -0.7227 -0.2641 -0.8593
   88CHL1   H2B 8967   5.821   1.765   6.901  0.7059  1.7990  0.1274
   88CHL1   C20 8968   6.007   1.710   7.884 -0.6958 -0.0165 -0.3965
   88CHL1   H20 8969   5.905   1.674   7.910 -0.1431 -0.0442  1.7839
   88CHL1   C21 8970   6.005   1.862   7.856 -0.1351  0.3903 -0.3434
   88CHL1  H21A 8971   6.084   1.900   7.788 -0.3337  0.3465 -0.5971
   88CHL1  H21B 8972   6.021   1.911   7.955 -1.3866 -1.2782  0.7234
   88CHL1  H21C 8973   5.913   1.890   7.802  1.3279  0.6478 -2.7686
   88CHL1   C22 8974   6.105   1.687   8.004 -0.1537  0.2474  0.1828
   88CHL1  H22A 8975   6.141   1.582   8.001  0.0495  0.3164  0.2300
   88CHL1  H22B 8976   6.187   1.753   7.969  2.0154 -1.1752  2.4606
   88CHL1   C23 8977   6.046   1.736   8.141 -0.0830  0.2767  0.7066
   88CHL1  H23A 8978   6.129   1.729   8.214 -0.5455  0.2451  1.2333
   88CHL1  H23B 8979   5.999   1.837   8.140  0.3445  0.4759 -0.5503
   88CHL1   C24 8980   5.938   1.643   8.190  0.4443 -0.3094 -0.4386
   88CHL1  H24A 8981   5.858   1.651   8.113 -1.7047 -2.8436  1.4435
   88CHL1  H24B 8982   5.988   1.544   8.180  2.7527  0.4546  2.7669
   88CHL1   C25 8983   5.874   1.670   8.328  0.0194 -0.3084 -0.9804
   88CHL1   H25 8984   5.839   1.775   8.337 -0.8988 -0.7811  1.1496
   88CHL1   C26 8985   5.753   1.575   8.352  0.6339  0.1045  0.1435
   88CHL1  H26A 8986   5.684   1.609   8.432  0.6311 -0.4093  0.3654
   88CHL1  H26B 8987   5.693   1.571   8.258 -1.1151 -0.7628  1.2856
   88CHL1  H26C 8988   5.789   1.476   8.388  0.1656 -0.0413  0.2196
   88CHL1   C27 8989   5.977   1.648   8.445  0.2401 -0.2368 -0.1175
   88CHL1  H27A 8990   5.947   1.680   8.548  1.7835  1.7038 -0.2335
   88CHL1  H27B 8991   6.006   1.541   8.440  1.5085  0.0776  0.2682
   88CHL1  H27C 8992   6.074   1.700   8.428  0.9806 -2.5983 -3.4823
   89CHL1    C3 8993   2.206   4.509   7.128  0.0562  0.6303 -0.7600
   89CHL1    H3 8994   2.267   4.579   7.189  0.9302 -0.2963 -0.5595
   89CHL1    O3 8995   2.232   4.515   6.995 -0.7409 -0.4692  0.1183
   89CHL1   H3' 8996   2.275   4.431   6.979 -1.0113 -0.2643 -1.9153
   89CHL1    C4 8997   2.229   4.367   7.178  0.2603  0.1327 -0.0775
   89CHL1   H4A 8998   2.169   4.304   7.108 -0.8505  0.2762  0.7264
   89CHL1   H4B 8999   2.335   4.341   7.160 -0.2672 -0.8079 -1.9981
   89CHL1    C5 9000   2.184   4.348   7.320  0.0704 -0.6449 -0.2047
   89CHL1    C6 9001   2.261   4.290   7.411 -0.1730 -0.4580  0.0644
   89CHL1    H6 9002   2.362   4.249   7.393  0.2799 -0.3185  2.0616
   89CHL1    C7 9003   2.219   4.255   7.549  0.4579 -0.2101 -0.1841
   89CHL1   H7A 9004   2.253   4.151   7.571  0.5244  0.2556  1.9912
   89CHL1   H7B 9005   2.274   4.324   7.616  0.9073  0.5741 -1.3378
   89CHL1    C8 9006   2.069   4.270   7.579  0.6070 -0.1295  0.1078
   89CHL1    H8 9007   2.026   4.173   7.546  0.0934 -0.0046  0.4013
   89CHL1   C14 9008   2.056   4.297   7.726  0.4578  0.4055 -0.4721
   89CHL1   H14 9009   2.095   4.400   7.740  2.0061 -0.0813 -1.1081
   89CHL1   C15 9010   2.136   4.220   7.828  0.4738  0.0565 -0.4382
   89CHL1  H15A 9011   2.136   4.115   7.791  2.1371  0.3990 -1.4194
   89CHL1  H15B 9012   2.243   4.249   7.830  0.7065 -0.6011 -2.6328
   89CHL1   C16 9013   2.059   4.231   7.963 -0.1536 -0.6146 -0.3267
   89CHL1  H16A 9014   2.040   4.140   8.023 -1.5271 -0.7010 -0.8578
   89CHL1  H16B 9015   2.118   4.289   8.036  0.4288  0.2504 -1.4615
   89CHL1   C17 9016   1.926   4.297   7.933  0.0113 -0.6313  0.5624
   89CHL1   H17 9017   1.933   4.405   7.958  1.0773 -0.9353  1.6462
   89CHL1   C13 9018   1.910   4.292   7.772 -0.4614 -0.3224  0.6493
   89CHL1   C18 9019   1.857   4.148   7.737  0.6550 -0.4617 -0.0159
   89CHL1  H18A 9020   1.923   4.067   7.772 -0.1868  0.2000  3.3250
   89CHL1  H18B 9021   1.758   4.126   7.785  1.2418  0.4547  1.6652
   89CHL1  H18C 9022   1.828   4.140   7.630 -2.7526 -1.3638  0.8933
   89CHL1   C12 9023   1.826   4.405   7.701 -0.3373 -0.6579  0.2722
   89CHL1  H12A 9024   1.718   4.402   7.725 -0.0422  1.1189  1.9253
   89CHL1  H12B 9025   1.868   4.493   7.753  0.9056 -1.3154  0.3968
   89CHL1   C11 9026   1.855   4.415   7.552  0.6572  0.4191 -0.5555
   89CHL1  H11A 9027   1.799   4.335   7.499  0.3073  0.6268 -0.4931
   89CHL1  H11B 9028   1.812   4.505   7.503  0.1393  0.1146 -0.6656
   89CHL1    C9 9029   2.005   4.389   7.505 -0.0502  0.4194  0.2613
   89CHL1    H9 9030   2.060   4.480   7.538  0.4362 -0.7559  2.7693
   89CHL1   C10 9031   2.035   4.389   7.349  0.4989 -0.5482 -0.3998
   89CHL1   C19 9032   1.938   4.297   7.276  0.0799  0.0107  0.6484
   89CHL1  H19A 9033   1.935   4.316   7.166 -1.5054  0.1786  0.7069
   89CHL1  H19B 9034   1.969   4.190   7.280 -3.9967 -1.2936 -0.4239
   89CHL1  H19C 9035   1.833   4.299   7.313  0.8982  1.5419  2.9312
   89CHL1    C1 9036   2.011   4.535   7.293 -0.3314  0.7455  0.6252
   89CHL1   H1A 9037   1.902   4.549   7.279 -0.4455 -0.8301 -0.2661
   89CHL1   H1B 9038   2.051   4.617   7.356 -0.9156  1.5784 -0.0872
   89CHL1    C2 9039   2.062   4.556   7.143  0.4813 -0.5614  0.6508
   89CHL1   H2A 9040   2.050   4.656   7.098  0.0070 -1.5305 -1.4416
   89CHL1   H2B 9041   1.993   4.496   7.079 -0.2873  2.4152 -1.3909
   89CHL1   C20 9042   1.808   4.255   8.027  0.4167 -0.2261 -0.2490
   89CHL1   H20 9043   1.793   4.145   8.021 -1.0105  0.0558 -2.1427
   89CHL1   C21 9044   1.685   4.336   7.986 -0.6882 -0.1691 -0.5387
   89CHL1  H21A 9045   1.719   4.438   7.959  0.5687  0.3086  2.6579
   89CHL1  H21B 9046   1.614   4.345   8.071 -0.2988 -1.3304 -0.0874
   89CHL1  H21C 9047   1.637   4.290   7.896  0.2287 -1.6490 -0.2861
   89CHL1   C22 9048   1.850   4.289   8.177 -0.5649  0.9042  0.0497
   89CHL1  H22A 9049   1.945   4.235   8.198 -0.9834  0.7737  1.7128
   89CHL1  H22B 9050   1.883   4.393   8.198  2.4193 -0.3253  1.7302
   89CHL1   C23 9051   1.751   4.234   8.285  0.0290  0.3560  0.1417
   89CHL1  H23A 9052   1.797   4.253   8.384  2.3982 -2.3027 -0.3940
   89CHL1  H23B 9053   1.654   4.289   8.289  0.7876  1.8700 -1.3763
   89CHL1   C24 9054   1.731   4.082   8.269 -0.2365 -0.4534  0.4856
   89CHL1  H24A 9055   1.679   4.044   8.178  0.5677 -2.3319  0.7912
   89CHL1  H24B 9056   1.832   4.038   8.263  0.0826  0.1857  1.1968
   89CHL1   C25 9057   1.651   4.027   8.384 -0.0929 -0.4545 -0.7245
   89CHL1   H25 9058   1.680   4.086   8.473  2.1995  2.0618 -3.0233
   89CHL1   C26 9059   1.498   4.046   8.376 -0.0983 -0.6106  1.2184
   89CHL1  H26A 9060   1.475   4.155   8.373 -1.3638 -0.9171 -2.3692
   89CHL1  H26B 9061   1.464   4.001   8.280 -1.0646  0.4789  1.0379
   89CHL1  H26C 9062   1.440   4.022   8.467 -2.5283 -2.4723 -0.7377
   89CHL1   C27 9063   1.677   3.884   8.414 -0.2600 -0.5288 -0.3034
   89CHL1  H27A 9064   1.634   3.828   8.328 -1.6007  1.5340 -1.0297
   89CHL1  H27B 9065   1.786   3.867   8.430 -0.4330 -1.3137  0.0745
   89CHL1  H27C 9066   1.627   3.857   8.509  0.3968 -0.2528  0.1196
   90CHL1    C3 9067   2.290   6.117   6.741 -0.5987  0.2381 -0.5667
   90CHL1    H3 9068   2.243   6.017   6.754  1.3320 -0.8912 -1.8536
   90CHL1    O3 9069   2.307   6.135   6.602 -0.6049  0.1807  0.2598
   90CHL1   H3' 9070   2.218   6.151   6.569 -0.8539 -0.9080  0.3516
   90CHL1    C4 9071   2.206   6.231   6.798  0.5614 -0.5314 -0.3926
   90CHL1   H4A 9072   2.256   6.329   6.781  3.1064 -1.9732 -1.5476
   90CHL1   H4B 9073   2.109   6.235   6.744 -0.9876  1.5122  2.3870
   90CHL1    C5 9074   2.181   6.225   6.952 -0.3789 -0.4408  0.3553
   90CHL1    C6 9075   2.058   6.236   7.002  0.6455  0.1017 -0.5644
   90CHL1    H6 9076   1.974   6.237   6.932 -0.4489 -2.3404  0.6480
   90CHL1    C7 9077   2.033   6.250   7.151 -1.5646 -0.4586  0.1644
   90CHL1   H7A 9078   1.980   6.343   7.182  1.3581  1.8598 -1.4661
   90CHL1   H7B 9079   1.984   6.160   7.193  0.6603 -1.8820 -0.1646
   90CHL1    C8 9080   2.167   6.274   7.231 -0.0431 -0.2324  0.4561
   90CHL1    H8 9081   2.188   6.383   7.224 -2.6731  0.3915  1.5983
   90CHL1   C14 9082   2.145   6.232   7.380 -0.0172 -0.4126  0.3825
   90CHL1   H14 9083   2.129   6.122   7.378  0.9701 -0.5801  1.1025
   90CHL1   C15 9084   2.024   6.293   7.453  0.9630  0.3466 -0.1739
   90CHL1  H15A 9085   2.006   6.402   7.459  1.0515  0.3490  0.0553
   90CHL1  H15B 9086   1.931   6.246   7.413  0.5990  0.7920  0.1505
   90CHL1   C16 9087   2.041   6.246   7.601 -0.3783 -0.5826  0.3542
   90CHL1  H16A 9088   2.005   6.330   7.665  0.5151  0.7658 -0.8632
   90CHL1  H16B 9089   1.980   6.156   7.624 -0.2982 -0.6643  0.2450
   90CHL1   C17 9090   2.198   6.217   7.621  0.6270 -0.1000  0.0883
   90CHL1   H17 9091   2.211   6.107   7.614 -0.0029 -0.3231  2.1101
   90CHL1   C13 9092   2.254   6.260   7.479  0.3602  0.4774  0.4197
   90CHL1   C18 9093   2.293   6.417   7.476 -0.9264  0.2069  0.1513
   90CHL1  H18A 9094   2.198   6.471   7.495 -0.8805 -0.1448  1.4535
   90CHL1  H18B 9095   2.368   6.437   7.556  0.7121  2.6549 -1.9140
   90CHL1  H18C 9096   2.339   6.441   7.378  2.3898 -3.0330  0.7650
   90CHL1   C12 9097   2.372   6.177   7.431 -0.5537 -0.7786 -0.0270
   90CHL1  H12A 9098   2.465   6.181   7.490  0.4782 -0.7671 -1.6297
   90CHL1  H12B 9099   2.329   6.075   7.443 -2.6555 -0.1648 -1.9525
   90CHL1   C11 9100   2.406   6.191   7.276 -1.3153 -0.5180 -0.1449
   90CHL1  H11A 9101   2.454   6.291   7.267  1.0756 -1.5856  0.4513
   90CHL1  H11B 9102   2.476   6.110   7.249 -0.9453 -0.5854  1.0095
   90CHL1    C9 9103   2.287   6.191   7.174  0.0219 -0.0970 -0.3828
   90CHL1    H9 9104   2.236   6.092   7.171 -2.3542  1.0472  0.5433
   90CHL1   C10 9105   2.317   6.217   7.025  0.2357 -0.4055  0.0257
   90CHL1   C19 9106   2.389   6.347   7.009  0.2062  0.3057 -0.3175
   90CHL1  H19A 9107   2.413   6.379   6.905 -2.0630  0.1374 -0.9113
   90CHL1  H19B 9108   2.316   6.423   7.044 -1.3019 -0.8671 -0.8702
   90CHL1  H19C 9109   2.485   6.348   7.065 -0.6031  3.0722  1.0896
   90CHL1    C1 9110   2.400   6.091   6.963 -0.4697  0.2495 -0.0129
   90CHL1   H1A 9111   2.499   6.090   7.013 -0.2882  3.8056 -0.1316
   90CHL1   H1B 9112   2.348   5.994   6.976  0.2935  0.2542  3.5257
   90CHL1    C2 9113   2.428   6.104   6.813 -0.1678 -0.3724  0.1252
   90CHL1   H2A 9114   2.490   6.019   6.777  0.5298  0.4398 -0.5983
   90CHL1   H2B 9115   2.483   6.198   6.789  0.1357 -0.6317 -0.2021
   90CHL1   C20 9116   2.260   6.261   7.755  0.9983  0.5328  0.1300
   90CHL1   H20 9117   2.246   6.372   7.754 -2.3083  0.1516 -0.5876
   90CHL1   C21 9118   2.409   6.219   7.765  0.7745 -0.9012  0.4727
   90CHL1  H21A 9119   2.419   6.109   7.766  3.1437 -0.7293 -0.4282
   90CHL1  H21B 9120   2.455   6.258   7.858 -0.1580  0.6909  0.2967
   90CHL1  H21C 9121   2.472   6.266   7.686 -2.1416  0.1487 -1.3159
   90CHL1   C22 9122   2.181   6.215   7.878 -0.3229  0.7340 -0.1615
   90CHL1  H22A 9123   2.071   6.220   7.866 -0.2553 -1.5322 -2.1903
   90CHL1  H22B 9124   2.201   6.110   7.908  0.3784  0.2619 -2.2213
   90CHL1   C23 9125   2.215   6.292   8.011  0.3776  0.2796 -0.2044
   90CHL1  H23A 9126   2.166   6.246   8.100  0.7885  0.8455  0.3199
   90CHL1  H23B 9127   2.325   6.286   8.029  0.8168 -0.2433 -2.8948
   90CHL1   C24 9128   2.186   6.444   8.015  0.1317  1.0193  0.3488
   90CHL1  H24A 9129   2.267   6.487   7.951 -1.3933 -0.8135 -2.8989
   90CHL1  H24B 9130   2.084   6.473   7.984  0.2462  2.0933  0.9417
   90CHL1   C25 9131   2.217   6.486   8.164 -0.2249  0.3029  0.4171
   90CHL1   H25 9132   2.314   6.444   8.199  0.3793 -1.0905 -2.7482
   90CHL1   C26 9133   2.227   6.637   8.188 -0.0969  0.2945 -0.9586
   90CHL1  H26A 9134   2.321   6.685   8.154  1.5447 -1.3442  1.1087
   90CHL1  H26B 9135   2.135   6.685   8.148 -0.2613  1.5908  0.8985
   90CHL1  H26C 9136   2.221   6.657   8.298 -0.2267  1.2440 -1.1311
   90CHL1   C27 9137   2.119   6.429   8.263 -0.3002 -0.5641 -0.1188
   90CHL1  H27A 9138   2.013   6.450   8.236 -0.1939 -0.8939 -0.8015
   90CHL1  H27B 9139   2.135   6.321   8.282 -0.0074 -0.7254 -1.2865
   90CHL1  H27C 9140   2.142   6.467   8.365 -0.3078 -0.2466 -0.2380
   91CHL1    C3 9141   3.329   0.696   7.172 -0.9156 -0.4912 -0.6087
   91CHL1    H3 9142   3.432   0.734   7.186 -0.9996 -1.0435  1.6909
   91CHL1    O3 9143   3.329   0.677   7.035  0.0278 -0.4732  0.6396
   91CHL1   H3' 9144   3.237   0.671   7.007  0.0492  0.6539  0.3015
   91CHL1    C4 9145   3.303   0.560   7.245  0.4746  0.3625 -0.3327
   91CHL1   H4A 9146   3.209   0.518   7.202  1.6347 -0.7772 -1.8324
   91CHL1   H4B 9147   3.386   0.491   7.218  0.4357  0.0010  0.4685
   91CHL1    C5 9148   3.290   0.575   7.392 -0.8845 -1.1118  0.2809
   91CHL1    C6 9149   3.364   0.491   7.474  0.5956 -0.0440  0.4828
   91CHL1    H6 9150   3.430   0.411   7.438  0.9358 -0.1800  1.3844
   91CHL1    C7 9151   3.347   0.491   7.622 -0.1887 -0.0852 -0.1857
   91CHL1   H7A 9152   3.312   0.393   7.660 -2.0295  0.5049 -0.3302
   91CHL1   H7B 9153   3.450   0.507   7.662 -0.9253  0.5192  1.5247
   91CHL1    C8 9154   3.235   0.592   7.681 -0.2808  0.1462 -0.9365
   91CHL1    H8 9155   3.137   0.540   7.679 -0.6336  0.8215 -1.0056
   91CHL1   C14 9156   3.258   0.626   7.827 -0.0279  0.1316 -0.6316
   91CHL1   H14 9157   3.351   0.686   7.819  1.0335 -1.7832 -3.3042
   91CHL1   C15 9158   3.293   0.512   7.913  0.5831 -0.4663 -0.6047
   91CHL1  H15A 9159   3.214   0.435   7.895 -0.1092 -0.4256  2.0643
   91CHL1  H15B 9160   3.394   0.467   7.897  0.6039 -0.1931 -1.2487
   91CHL1   C16 9161   3.263   0.564   8.053 -0.3401  0.3486  0.3090
   91CHL1  H16A 9162   3.180   0.511   8.106 -1.0069  0.3255 -0.7564
   91CHL1  H16B 9163   3.350   0.552   8.122  1.1207  0.6440 -1.4603
   91CHL1   C17 9164   3.220   0.715   8.040  0.6056  0.7318  0.2381
   91CHL1   H17 9165   3.312   0.776   8.028  0.6489  0.8166  0.9807
   91CHL1   C13 9166   3.155   0.712   7.899 -0.3596  0.4809 -0.1369
   91CHL1   C18 9167   3.021   0.643   7.911 -0.2238 -0.2706  0.5281
   91CHL1  H18A 9168   2.962   0.638   7.817  0.1470  0.8144  0.2366
   91CHL1  H18B 9169   3.033   0.542   7.957 -0.3659 -1.3769 -1.7745
   91CHL1  H18C 9170   2.962   0.705   7.982 -0.2528 -0.5918  0.7863
   91CHL1   C12 9171   3.152   0.844   7.811  0.0106  0.1594 -0.1052
   91CHL1  H12A 9172   3.074   0.905   7.862  0.3433 -0.1749  0.8099
   91CHL1  H12B 9173   3.249   0.899   7.817  1.0699 -1.5902 -1.0471
   91CHL1   C11 9174   3.121   0.811   7.661 -0.7365 -0.5803  0.4047
   91CHL1  H11A 9175   3.020   0.769   7.643 -0.9868  0.1949 -0.0172
   91CHL1  H11B 9176   3.115   0.913   7.618 -1.2247 -1.3000 -1.2732
   91CHL1    C9 9177   3.230   0.722   7.601 -0.2761 -0.0583  0.0443
   91CHL1    H9 9178   3.331   0.767   7.610 -0.9918  1.8530 -1.2558
   91CHL1   C10 9179   3.203   0.692   7.447 -0.3760  0.0603  0.4340
   91CHL1   C19 9180   3.053   0.649   7.418 -0.4172 -0.2394 -0.2699
   91CHL1  H19A 9181   3.011   0.568   7.481 -0.7678  2.1715  2.7388
   91CHL1  H19B 9182   2.988   0.739   7.428 -0.0482 -0.2108  2.2317
   91CHL1  H19C 9183   3.040   0.629   7.310 -0.2756 -1.4406 -0.0706
   91CHL1    C1 9184   3.233   0.821   7.362 -0.2042 -0.2938  0.9950
   91CHL1   H1A 9185   3.166   0.900   7.401  0.6147  1.2034 -0.5684
   91CHL1   H1B 9186   3.331   0.859   7.399 -0.0179  0.8949 -0.6940
   91CHL1    C2 9187   3.225   0.808   7.212 -0.2766 -0.6731 -0.0264
   91CHL1   H2A 9188   3.249   0.902   7.158 -1.4093 -0.7977 -0.7768
   91CHL1   H2B 9189   3.123   0.775   7.183  0.1521  0.2429 -2.7980
   91CHL1   C20 9190   3.143   0.761   8.162  0.5120 -0.7352  0.1670
   91CHL1   H20 9191   3.056   0.693   8.174 -0.6639  0.2561 -2.3901
   91CHL1   C21 9192   3.079   0.906   8.131 -1.1791 -0.6642  0.4758
   91CHL1  H21A 9193   3.149   0.972   8.075 -1.5082 -1.8562 -1.3811
   91CHL1  H21B 9194   3.043   0.964   8.219  0.5574  1.5948 -0.2549
   91CHL1  H21C 9195   2.982   0.897   8.077 -2.0601 -0.6672  2.0241
   91CHL1   C22 9196   3.236   0.764   8.286  0.7395  0.1568 -0.3169
   91CHL1  H22A 9197   3.281   0.665   8.308 -0.7856 -0.5338 -0.2576
   91CHL1  H22B 9198   3.326   0.829   8.280  0.3481  0.6428 -0.8910
   91CHL1   C23 9199   3.158   0.800   8.416  0.1007 -0.1004  0.2335
   91CHL1  H23A 9200   3.138   0.909   8.425 -0.3321 -0.3700  3.0212
   91CHL1  H23B 9201   3.066   0.737   8.412  0.7420 -0.9415 -2.8128
   91CHL1   C24 9202   3.230   0.770   8.551  0.1604  0.7235  0.7724
   91CHL1  H24A 9203   3.232   0.660   8.569 -0.3169  0.6783  0.5574
   91CHL1  H24B 9204   3.339   0.788   8.539  0.1910 -0.5231 -1.0613
   91CHL1   C25 9205   3.168   0.831   8.675  0.3205  0.3113 -0.2090
   91CHL1   H25 9206   3.168   0.942   8.666  0.5592  0.5522  2.3241
   91CHL1   C26 9207   3.033   0.766   8.708 -1.1910 -0.0379  0.3937
   91CHL1  H26A 9208   2.960   0.790   8.627  0.7079  0.3841 -1.2462
   91CHL1  H26B 9209   3.032   0.655   8.710 -1.1326 -0.1332 -2.2141
   91CHL1  H26C 9210   2.995   0.800   8.807 -2.2321 -0.6281  0.2037
   91CHL1   C27 9211   3.266   0.811   8.793  0.3913  0.2047  0.3487
   91CHL1  H27A 9212   3.367   0.852   8.771  0.5206  0.0699  0.6890
   91CHL1  H27B 9213   3.221   0.854   8.884 -2.0558  0.5341 -0.9831
   91CHL1  H27C 9214   3.285   0.702   8.807  2.0452  0.4207 -0.0671
   92CHL1    C3 9215   6.656   2.362   6.779  0.1055 -0.5546 -0.4590
   92CHL1    H3 9216   6.760   2.340   6.745 -0.6218 -3.8547 -0.7163
   92CHL1    O3 9217   6.564   2.367   6.666 -0.2191 -0.3987 -0.0499
   92CHL1   H3' 9218   6.477   2.370   6.707  0.0914  2.2104  0.4502
   92CHL1    C4 9219   6.618   2.239   6.863  0.0428 -0.5867 -0.9341
   92CHL1   H4A 9220   6.507   2.233   6.864 -0.1671  2.3650 -1.6916
   92CHL1   H4B 9221   6.655   2.151   6.807 -0.4321 -2.3988  1.5324
   92CHL1    C5 9222   6.667   2.237   7.003  0.4545 -0.0491 -0.3009
   92CHL1    C6 9223   6.748   2.130   7.037  0.8557 -0.1651  0.3573
   92CHL1    H6 9224   6.760   2.042   6.973  0.0032 -0.6135  0.7908
   92CHL1    C7 9225   6.817   2.116   7.168 -0.0733  0.1991 -0.8500
   92CHL1   H7A 9226   6.816   2.011   7.205  1.2468 -0.5465 -2.8282
   92CHL1   H7B 9227   6.923   2.147   7.155  0.2834 -0.0693  1.2799
   92CHL1    C8 9228   6.743   2.207   7.274 -0.3510  0.3126  0.3289
   92CHL1    H8 9229   6.643   2.167   7.302 -0.0425 -0.1480  0.7811
   92CHL1   C14 9230   6.827   2.216   7.399  0.5453  0.2559  0.4876
   92CHL1   H14 9231   6.923   2.260   7.363  0.3486  0.9472  0.7924
   92CHL1   C15 9232   6.867   2.080   7.460 -0.0416  0.0507 -0.4080
   92CHL1  H15A 9233   6.776   2.016   7.463 -0.5947  0.8594  0.3567
   92CHL1  H15B 9234   6.952   2.040   7.400 -0.0397 -2.4207  1.1633
   92CHL1   C16 9235   6.909   2.116   7.603  0.3221 -0.0875  0.1292
   92CHL1  H16A 9236   6.869   2.052   7.684  0.7748  0.1213  0.5222
   92CHL1  H16B 9237   7.019   2.103   7.595  0.2474 -0.2407 -0.6085
   92CHL1   C17 9238   6.879   2.268   7.628 -0.2759 -0.0628  0.0710
   92CHL1   H17 9239   6.968   2.329   7.602  0.5467 -0.8447  1.0084
   92CHL1   C13 9240   6.776   2.299   7.514  0.4355 -0.0233 -0.3012
   92CHL1   C18 9241   6.636   2.248   7.557  0.4874  0.0970  0.4441
   92CHL1  H18A 9242   6.592   2.309   7.638 -1.4043 -1.1059  0.3540
   92CHL1  H18B 9243   6.553   2.248   7.483 -0.1818 -2.6152  1.1308
   92CHL1  H18C 9244   6.644   2.146   7.601 -0.8204 -0.2305 -0.0614
   92CHL1   C12 9245   6.766   2.443   7.465 -0.2937  0.2693  0.0539
   92CHL1  H12A 9246   6.712   2.513   7.532 -0.9757 -1.8117  1.7496
   92CHL1  H12B 9247   6.867   2.488   7.454  1.2114 -2.9365  0.1872
   92CHL1   C11 9248   6.697   2.449   7.329 -0.1330  0.2404 -0.1176
   92CHL1  H11A 9249   6.590   2.428   7.352 -0.6578  0.9443 -1.8442
   92CHL1  H11B 9250   6.692   2.553   7.290  2.5360  0.0650 -1.0019
   92CHL1    C9 9251   6.738   2.345   7.218  0.5439  0.4734 -0.0779
   92CHL1    H9 9252   6.842   2.371   7.190 -0.1260  1.7753 -1.4795
   92CHL1   C10 9253   6.656   2.355   7.090  0.2600  0.3348  0.4163
   92CHL1   C19 9254   6.506   2.367   7.114 -0.4895 -1.4664 -0.8333
   92CHL1  H19A 9255   6.490   2.460   7.172 -1.8236 -1.0807 -1.8135
   92CHL1  H19B 9256   6.459   2.374   7.014 -1.5217  0.1308 -0.2494
   92CHL1  H19C 9257   6.451   2.282   7.161 -0.9958 -0.4721  0.3938
   92CHL1    C1 9258   6.706   2.475   7.003  0.6442  0.3852 -0.2666
   92CHL1   H1A 9259   6.679   2.562   7.067 -0.4603  0.5574 -0.9461
   92CHL1   H1B 9260   6.816   2.479   6.991  0.8041  0.0356  0.9951
   92CHL1    C2 9261   6.643   2.486   6.860  0.2400  0.4335 -1.2973
   92CHL1   H2A 9262   6.703   2.566   6.812 -2.3563  3.1082 -0.2411
   92CHL1   H2B 9263   6.537   2.520   6.865  0.5787  1.1715  2.4597
   92CHL1   C20 9264   6.842   2.302   7.780 -0.3280 -0.8035 -0.0992
   92CHL1   H20 9265   6.745   2.249   7.792  0.0732 -1.5775 -0.2084
   92CHL1   C21 9266   6.832   2.452   7.811 -0.2647 -0.6982  0.0400
   92CHL1  H21A 9267   6.790   2.515   7.730  0.2445 -1.3912 -0.7752
   92CHL1  H21B 9268   6.930   2.492   7.843 -0.3692  1.3023 -2.0224
   92CHL1  H21C 9269   6.769   2.452   7.903  0.2971  1.3840  0.4533
   92CHL1   C22 9270   6.944   2.234   7.882  0.4986  0.4455 -0.3626
   92CHL1  H22A 9271   6.951   2.123   7.873 -0.8950  0.3787 -0.7436
   92CHL1  H22B 9272   7.045   2.274   7.857  1.1939  0.1371  1.8521
   92CHL1   C23 9273   6.911   2.269   8.031  0.5504 -0.2510 -0.8661
   92CHL1  H23A 9274   6.925   2.377   8.055  1.4649 -0.4083 -0.6554
   92CHL1  H23B 9275   6.810   2.229   8.053  0.0422  2.0262  1.1655
   92CHL1   C24 9276   7.007   2.186   8.119 -0.2886 -0.2064  0.9231
   92CHL1  H24A 9277   6.995   2.097   8.054  0.4159  0.8849 -0.7333
   92CHL1  H24B 9278   7.115   2.208   8.110 -0.5200  0.6935  0.2155
   92CHL1   C25 9279   6.960   2.171   8.271  0.3180  0.4541  0.7269
   92CHL1   H25 9280   6.852   2.145   8.267  0.5115 -0.3312  0.5799
   92CHL1   C26 9281   7.024   2.051   8.334  0.6553 -0.3200 -0.9073
   92CHL1  H26A 9282   7.005   2.062   8.443  1.4601  0.1069 -0.8059
   92CHL1  H26B 9283   6.972   1.960   8.299 -0.3491 -0.4073  0.7459
   92CHL1  H26C 9284   7.133   2.039   8.318  0.5716 -2.8828  0.3436
   92CHL1   C27 9285   6.989   2.294   8.354  0.5205 -0.0137  0.0540
   92CHL1  H27A 9286   6.935   2.378   8.307  0.3412  0.7736  1.6479
   92CHL1  H27B 9287   6.964   2.281   8.462 -3.0396  2.4738 -0.3880
   92CHL1  H27C 9288   7.092   2.329   8.330 -0.1964  1.6693 -0.6308
   93CHL1    C3 9289   5.251   6.422   7.031 -1.2025 -0.1160  0.1627
   93CHL1    H3 9290   5.198   6.327   7.052 -0.7031 -0.2659  0.7602
   93CHL1    O3 9291   5.250   6.449   6.892 -0.1184 -0.4253  0.2716
   93CHL1   H3' 9292   5.307   6.379   6.859 -0.1200  0.8695 -2.5906
   93CHL1    C4 9293   5.193   6.535   7.107 -0.0530  0.1277  0.5350
   93CHL1   H4A 9294   5.230   6.631   7.067 -0.2533  0.2102  0.5447
   93CHL1   H4B 9295   5.087   6.539   7.072  0.1872 -1.3908 -0.4120
   93CHL1    C5 9296   5.198   6.532   7.258 -0.4724  0.5967 -0.4647
   93CHL1    C6 9297   5.096   6.553   7.335  0.7620  0.0128 -0.2070
   93CHL1    H6 9298   5.004   6.597   7.293 -0.0094 -1.1372  0.2455
   93CHL1    C7 9299   5.095   6.545   7.482 -0.0832 -0.2840 -0.0189
   93CHL1   H7A 9300   5.048   6.637   7.523  1.4231  0.6477 -0.3616
   93CHL1   H7B 9301   5.038   6.454   7.511 -1.6505  0.2148 -1.4590
   93CHL1    C8 9302   5.241   6.533   7.543  0.5472  0.0165 -0.0659
   93CHL1    H8 9303   5.297   6.629   7.539 -0.0287  0.3224 -1.1951
   93CHL1   C14 9304   5.233   6.487   7.690 -0.5238 -0.1102  0.2773
   93CHL1   H14 9305   5.187   6.386   7.687  0.4754 -0.6116  1.4307
   93CHL1   C15 9306   5.141   6.564   7.783 -0.6379 -0.3534 -0.1897
   93CHL1  H15A 9307   5.147   6.674   7.770 -2.8035 -0.0811  0.9731
   93CHL1  H15B 9308   5.033   6.542   7.788 -0.7579  0.2880  0.1055
   93CHL1   C16 9309   5.193   6.536   7.923  0.6451  0.0644 -0.1082
   93CHL1  H16A 9310   5.219   6.628   7.979  0.9242 -2.2936  3.7959
   93CHL1  H16B 9311   5.121   6.488   7.992  1.5148  0.4335  1.0844
   93CHL1   C17 9312   5.322   6.449   7.906 -0.2895 -0.3662  0.4243
   93CHL1   H17 9313   5.292   6.342   7.909  0.3448 -0.5848 -0.5698
   93CHL1   C13 9314   5.372   6.479   7.760  0.2274  1.2361 -0.2875
   93CHL1   C18 9315   5.455   6.615   7.752  0.1489  0.0625  0.2922
   93CHL1  H18A 9316   5.493   6.646   7.652  1.5720  2.9018  1.6686
   93CHL1  H18B 9317   5.382   6.692   7.783 -0.8844 -0.3036 -1.1702
   93CHL1  H18C 9318   5.545   6.621   7.817 -0.8918 -1.0132  1.8780
   93CHL1   C12 9319   5.449   6.371   7.690 -0.0169  0.4104  0.5310
   93CHL1  H12A 9320   5.541   6.347   7.746  1.0816  3.2888  0.0739
   93CHL1  H12B 9321   5.385   6.281   7.696  0.8445 -0.3702 -1.7563
   93CHL1   C11 9322   5.463   6.408   7.535 -0.2944  0.3793 -0.2460
   93CHL1  H11A 9323   5.536   6.490   7.517 -1.4883  1.6168  0.4118
   93CHL1  H11B 9324   5.499   6.318   7.482 -0.0878 -0.6732  1.6250
   93CHL1    C9 9325   5.327   6.444   7.465  0.1034  0.0879  0.3682
   93CHL1    H9 9326   5.265   6.352   7.455 -4.0602  2.8549 -0.7278
   93CHL1   C10 9327   5.335   6.491   7.313 -0.2537  0.6059 -0.0643
   93CHL1   C19 9328   5.424   6.615   7.307 -0.2766  0.4273  0.3446
   93CHL1  H19A 9329   5.435   6.656   7.205 -0.3512  0.8443  0.5016
   93CHL1  H19B 9330   5.388   6.698   7.372  1.8770  1.0039  0.8545
   93CHL1  H19C 9331   5.529   6.586   7.327 -0.9322 -0.7001  2.2146
   93CHL1    C1 9332   5.403   6.376   7.227 -0.4179 -0.3897 -0.4452
   93CHL1   H1A 9333   5.511   6.373   7.253 -0.8674  1.2885  1.7607
   93CHL1   H1B 9334   5.347   6.286   7.263 -0.5687  0.0927  0.5459
   93CHL1    C2 9335   5.399   6.406   7.074 -0.5097 -0.3407  0.1655
   93CHL1   H2A 9336   5.438   6.315   7.024 -0.6994 -0.6406  0.5591
   93CHL1   H2B 9337   5.462   6.494   7.048 -2.5626  0.9429 -0.5414
   93CHL1   C20 9338   5.418   6.471   8.021 -0.0689 -0.5284 -0.5702
   93CHL1   H20 9339   5.453   6.577   8.024  0.9513 -0.8912  0.6318
   93CHL1   C21 9340   5.556   6.395   8.016  0.0958 -0.0412 -0.5117
   93CHL1  H21A 9341   5.544   6.285   8.017  1.0536 -0.1471 -0.2553
   93CHL1  H21B 9342   5.623   6.419   8.101 -0.7325  0.1314  0.0976
   93CHL1  H21C 9343   5.620   6.418   7.928  1.4679  1.3211  0.8100
   93CHL1   C22 9344   5.354   6.457   8.165 -0.5655  0.3957 -0.5222
   93CHL1  H22A 9345   5.425   6.480   8.247 -0.8094 -0.3287 -0.1010
   93CHL1  H22B 9346   5.268   6.528   8.171 -0.4988  0.5615 -1.4947
   93CHL1   C23 9347   5.301   6.318   8.201 -0.2460  0.2322 -0.4621
   93CHL1  H23A 9348   5.219   6.304   8.128 -1.2359 -3.1389  1.2127
   93CHL1  H23B 9349   5.373   6.234   8.195  0.5018  0.5855  2.7735
   93CHL1   C24 9350   5.232   6.320   8.344 -0.3884 -0.7933 -0.1354
   93CHL1  H24A 9351   5.314   6.328   8.418  0.3818 -0.2788 -1.0294
   93CHL1  H24B 9352   5.148   6.391   8.353  0.5933  0.2131  1.0739
   93CHL1   C25 9353   5.151   6.180   8.360 -0.1497 -0.2267 -0.2651
   93CHL1   H25 9354   5.204   6.096   8.308 -0.9362 -1.7206  1.2933
   93CHL1   C26 9355   5.125   6.164   8.507 -0.5030  0.2173  0.3002
   93CHL1  H26A 9356   5.108   6.057   8.533 -0.9112  0.4056  0.8139
   93CHL1  H26B 9357   5.217   6.196   8.560  0.8746 -2.5061 -0.3399
   93CHL1  H26C 9358   5.039   6.220   8.548 -0.7591 -0.2423  0.3897
   93CHL1   C27 9359   5.017   6.178   8.290  0.5470  0.6895  0.6136
   93CHL1  H27A 9360   4.961   6.271   8.316 -1.4262 -1.0403  2.8065
   93CHL1  H27B 9361   5.026   6.173   8.180  2.8156  0.7746  0.7618
   93CHL1  H27C 9362   4.960   6.091   8.328 -1.3149  0.7806 -1.8674
   94CHL1    C3 9363   0.610   3.090   6.897 -0.1117 -0.0815  0.1756
   94CHL1    H3 9364   0.549   3.175   6.934  0.2297  0.2580 -0.0304
   94CHL1    O3 9365   0.652   3.117   6.765 -0.2986  0.3598  0.2451
   94CHL1   H3' 9366   0.717   3.050   6.742  1.8092  1.6484  2.2537
   94CHL1    C4 9367   0.727   3.072   6.978  0.2516 -0.3278 -0.1180
   94CHL1   H4A 9368   0.792   2.996   6.930  1.4233  0.1421  0.7074
   94CHL1   H4B 9369   0.780   3.170   6.985 -0.2649 -0.0792  0.3578
   94CHL1    C5 9370   0.694   3.032   7.121 -0.9214 -0.4063 -0.0923
   94CHL1    C6 9371   0.744   3.094   7.233  0.2733  0.7199  0.1397
   94CHL1    H6 9372   0.814   3.178   7.218  2.9371 -1.3273  0.6172
   94CHL1    C7 9373   0.720   3.047   7.375  0.5487  0.8087 -1.2056
   94CHL1   H7A 9374   0.811   3.057   7.437 -0.1589  2.1765 -0.3653
   94CHL1   H7B 9375   0.651   3.116   7.429  0.6100 -0.1346  0.0881
   94CHL1    C8 9376   0.670   2.904   7.372  0.0503  0.6880 -0.9182
   94CHL1    H8 9377   0.752   2.836   7.343 -2.0503 -2.5446  0.4318
   94CHL1   C14 9378   0.619   2.859   7.507 -0.4986 -0.2085 -0.5554
   94CHL1   H14 9379   0.518   2.903   7.520  0.1341  0.6908  1.4612
   94CHL1   C15 9380   0.701   2.907   7.625  0.2618  0.4522 -0.1014
   94CHL1  H15A 9381   0.804   2.867   7.608  0.4660  0.2526  1.5923
   94CHL1  H15B 9382   0.710   3.016   7.643  1.1677  0.3484  0.1179
   94CHL1   C16 9383   0.615   2.840   7.736  0.0108 -0.6125 -0.3369
   94CHL1  H16A 9384   0.681   2.821   7.823 -1.1281  1.0261  0.9272
   94CHL1  H16B 9385   0.563   2.928   7.781  3.1088  1.1385 -0.0762
   94CHL1   C17 9386   0.535   2.724   7.679 -0.1054 -0.0109 -0.1758
   94CHL1   H17 9387   0.429   2.755   7.674  0.1678  0.8754 -0.6007
   94CHL1   C13 9388   0.589   2.715   7.534 -0.3567 -0.4051 -0.2897
   94CHL1   C18 9389   0.709   2.624   7.518 -0.8313 -0.7582 -0.4563
   94CHL1  H18A 9390   0.792   2.668   7.579  0.3225 -2.3377 -0.8513
   94CHL1  H18B 9391   0.703   2.515   7.538 -4.9307 -0.8280 -1.7269
   94CHL1  H18C 9392   0.740   2.635   7.412 -1.6345 -0.5867 -0.6771
   94CHL1   C12 9393   0.486   2.671   7.431 -0.3500 -0.1330  0.3338
   94CHL1  H12A 9394   0.464   2.562   7.432  0.4881 -0.3051  0.3720
   94CHL1  H12B 9395   0.394   2.730   7.451  1.0030  2.0416  0.4248
   94CHL1   C11 9396   0.522   2.713   7.286 -0.1962 -0.0556 -0.6885
   94CHL1  H11A 9397   0.608   2.652   7.251 -0.5540 -0.4902 -0.8170
   94CHL1  H11B 9398   0.436   2.683   7.222 -0.0709  0.8622 -1.2818
   94CHL1    C9 9399   0.560   2.863   7.272 -0.2259  0.4556 -0.3331
   94CHL1    H9 9400   0.471   2.927   7.284 -0.8912 -0.3486 -0.9447
   94CHL1   C10 9401   0.602   2.900   7.132 -0.3375 -0.0272 -0.3938
   94CHL1   C19 9402   0.695   2.785   7.079 -0.2867 -0.3702 -0.0619
   94CHL1  H19A 9403   0.785   2.769   7.143  0.1148 -0.4454 -0.6353
   94CHL1  H19B 9404   0.638   2.690   7.075 -1.3667  0.2322  0.7512
   94CHL1  H19C 9405   0.722   2.799   6.972  0.8671  0.6040  0.3479
   94CHL1    C1 9406   0.475   2.927   7.046 -0.4232  0.4306 -0.1011
   94CHL1   H1A 9407   0.412   2.837   7.032  0.1887 -0.0107 -0.0474
   94CHL1   H1B 9408   0.416   3.006   7.096 -0.3996 -0.3140  1.1042
   94CHL1    C2 9409   0.514   2.966   6.903 -0.0470  1.0480  0.2341
   94CHL1   H2A 9410   0.430   2.994   6.837 -0.3925 -3.3940 -1.4304
   94CHL1   H2B 9411   0.551   2.879   6.844 -0.0416  2.8442 -2.4977
   94CHL1   C20 9412   0.528   2.587   7.763  0.0636  0.0698 -1.4285
   94CHL1   H20 9413   0.624   2.531   7.758  1.3596  1.9930  1.1514
   94CHL1   C21 9414   0.413   2.497   7.717  0.6207 -0.4593  0.1309
   94CHL1  H21A 9415   0.316   2.551   7.723  0.0721 -1.4536  0.3765
   94CHL1  H21B 9416   0.418   2.412   7.789 -0.7577 -0.7605 -0.1203
   94CHL1  H21C 9417   0.423   2.458   7.613  0.6686 -1.6818  0.5871
   94CHL1   C22 9418   0.499   2.624   7.911  0.0839  0.2815  0.6676
   94CHL1  H22A 9419   0.498   2.535   7.978  1.3698 -0.7417 -0.6550
   94CHL1  H22B 9420   0.589   2.680   7.942 -0.0734  0.7633  0.2675
   94CHL1   C23 9421   0.373   2.712   7.949 -0.7241  0.7767 -0.1716
   94CHL1  H23A 9422   0.385   2.811   7.899 -0.1277  1.5649  1.4946
   94CHL1  H23B 9423   0.291   2.651   7.906 -1.1931 -2.0096  4.4020
   94CHL1   C24 9424   0.351   2.724   8.099 -0.4562  0.2667 -0.1357
   94CHL1  H24A 9425   0.347   2.633   8.163 -0.6345 -0.2840 -0.9216
   94CHL1  H24B 9426   0.444   2.777   8.129  0.3994 -0.9873 -0.5532
   94CHL1   C25 9427   0.226   2.814   8.124  0.5474  0.1213 -0.8592
   94CHL1   H25 9428   0.226   2.894   8.046 -0.4999 -1.2887 -2.3386
   94CHL1   C26 9429   0.095   2.733   8.106  0.2860 -0.2103  0.0066
   94CHL1  H26A 9430   0.007   2.786   8.147 -0.9446 -1.3978 -1.0872
   94CHL1  H26B 9431   0.078   2.719   7.997 -2.0034  0.4068  0.2736
   94CHL1  H26C 9432   0.088   2.634   8.157 -1.9393 -1.0192 -1.7938
   94CHL1   C27 9433   0.229   2.873   8.264 -0.5058 -0.0224  0.0650
   94CHL1  H27A 9434   0.223   2.785   8.332 -1.3250 -0.5982 -0.7400
   94CHL1  H27B 9435   0.320   2.933   8.286 -1.6760  1.2157  1.7190
   94CHL1  H27C 9436   0.157   2.956   8.281  0.9039  0.8262  2.1935
   95CHL1    C3 9437   0.478   2.012   6.613  1.2034  0.1273 -0.5285
   95CHL1    H3 9438   0.579   1.966   6.612  0.7772 -0.8629 -0.0145
   95CHL1    O3 9439   0.464   2.095   6.508  0.6406 -0.3546 -0.4335
   95CHL1   H3' 9440   0.511   2.176   6.531  0.3919 -0.8881  2.1844
   95CHL1    C4 9441   0.363   1.908   6.614  0.5098 -0.6266  0.0734
   95CHL1   H4A 9442   0.264   1.958   6.605  0.7267  0.2473  2.2366
   95CHL1   H4B 9443   0.372   1.850   6.520  3.6680  0.7927 -0.5511
   95CHL1    C5 9444   0.348   1.824   6.736 -0.4037 -0.0205 -0.3748
   95CHL1    C6 9445   0.353   1.687   6.742  0.9361 -0.1057  0.3750
   95CHL1    H6 9446   0.368   1.632   6.648 -0.8264 -0.2617  0.1646
   95CHL1    C7 9447   0.339   1.615   6.871 -0.6036  0.3100  0.1590
   95CHL1   H7A 9448   0.277   1.523   6.861 -0.8192  0.1649  2.4739
   95CHL1   H7B 9449   0.437   1.575   6.903  0.5018  0.1027 -3.2827
   95CHL1    C8 9450   0.276   1.695   6.981 -0.6141 -0.1220  0.3006
   95CHL1    H8 9451   0.171   1.716   6.953 -0.7843 -2.7236 -1.1299
   95CHL1   C14 9452   0.287   1.614   7.109  0.0319  0.1785 -0.5288
   95CHL1   H14 9453   0.393   1.584   7.122 -0.1469 -0.6722 -1.0253
   95CHL1   C15 9454   0.217   1.483   7.116 -0.9732 -0.3853 -0.1857
   95CHL1  H15A 9455   0.119   1.486   7.063 -1.6037 -1.3728  0.9126
   95CHL1  H15B 9456   0.271   1.397   7.071 -0.1571 -1.1562  2.1655
   95CHL1   C16 9457   0.189   1.456   7.261 -0.1075 -0.0768 -0.1202
   95CHL1  H16A 9458   0.080   1.444   7.281 -0.5645  0.6728 -2.0662
   95CHL1  H16B 9459   0.238   1.369   7.309 -0.5819  1.0582  2.5406
   95CHL1   C17 9460   0.246   1.584   7.341 -0.9071  0.6793  0.3716
   95CHL1   H17 9461   0.351   1.578   7.376 -1.5288 -1.3752  1.9525
   95CHL1   C13 9462   0.246   1.691   7.234 -0.0287 -0.3951  0.1019
   95CHL1   C18 9463   0.101   1.740   7.220 -0.2571 -1.0921  0.4068
   95CHL1  H18A 9464   0.031   1.656   7.203  2.5368 -2.9445 -2.8217
   95CHL1  H18B 9465   0.073   1.797   7.310 -2.1287 -1.1290 -0.1412
   95CHL1  H18C 9466   0.089   1.817   7.140 -0.4964 -0.1146  1.3850
   95CHL1   C12 9467   0.347   1.810   7.253  0.3617 -0.1165  0.5918
   95CHL1  H12A 9468   0.317   1.879   7.334 -0.6905 -1.5610  1.4541
   95CHL1  H12B 9469   0.451   1.774   7.269  0.2725 -0.5196  0.2815
   95CHL1   C11 9470   0.340   1.902   7.126  0.1330  0.1384 -0.3987
   95CHL1  H11A 9471   0.242   1.955   7.123  0.1832  0.2084 -0.9000
   95CHL1  H11B 9472   0.422   1.976   7.137  0.0211  0.3659 -1.0629
   95CHL1    C9 9473   0.359   1.821   6.995  0.1877  0.2751 -0.0956
   95CHL1    H9 9474   0.467   1.796   7.007  0.4259  0.5378 -1.5917
   95CHL1   C10 9475   0.344   1.907   6.870  0.8496 -0.1470  0.0236
   95CHL1   C19 9476   0.211   1.988   6.876  0.1387  0.1350  0.2028
   95CHL1  H19A 9477   0.192   2.049   6.784  2.6445 -1.2031 -1.2439
   95CHL1  H19B 9478   0.121   1.926   6.896 -1.2354  1.7260 -0.8398
   95CHL1  H19C 9479   0.226   2.060   6.959 -1.0846  0.2287  0.3605
   95CHL1    C1 9480   0.467   2.003   6.866  0.5474 -0.0788 -0.5786
   95CHL1   H1A 9481   0.462   2.077   6.949  0.7793  0.1249 -0.7469
   95CHL1   H1B 9482   0.569   1.957   6.865 -0.1495 -1.6347 -1.7134
   95CHL1    C2 9483   0.469   2.096   6.741  0.5710 -0.5513  0.2903
   95CHL1   H2A 9484   0.544   2.176   6.759  0.2671 -1.0999  4.6587
   95CHL1   H2B 9485   0.368   2.139   6.728  0.3130 -1.8082 -2.1096
   95CHL1   C20 9486   0.175   1.590   7.479  0.9617  0.4258  0.0864
   95CHL1   H20 9487   0.065   1.590   7.460  1.0210 -1.1584 -0.3879
   95CHL1   C21 9488   0.210   1.722   7.553 -0.2411  0.3241  0.3433
   95CHL1  H21A 9489   0.166   1.728   7.655 -1.6412 -2.6086 -0.0233
   95CHL1  H21B 9490   0.186   1.818   7.503  0.7311  1.1565  1.4386
   95CHL1  H21C 9491   0.320   1.723   7.567 -0.1882 -0.3060 -0.0007
   95CHL1   C22 9492   0.195   1.457   7.566 -0.0010 -0.9127 -0.4589
   95CHL1  H22A 9493   0.142   1.373   7.517 -2.2578 -0.1439  0.6003
   95CHL1  H22B 9494   0.304   1.439   7.563  0.3345  1.0536 -0.8942
   95CHL1   C23 9495   0.152   1.470   7.717 -0.0430  0.4165 -0.0765
   95CHL1  H23A 9496   0.211   1.549   7.769 -0.4012  0.8226 -0.2814
   95CHL1  H23B 9497   0.053   1.518   7.733  0.1513  0.0492  2.3927
   95CHL1   C24 9498   0.161   1.347   7.812  0.7517 -0.4529 -0.5943
   95CHL1  H24A 9499   0.073   1.283   7.789 -1.8325  3.1430 -1.1596
   95CHL1  H24B 9500   0.255   1.292   7.790  0.1595 -1.4167 -0.7312
   95CHL1   C25 9501   0.161   1.378   7.962 -0.0815 -0.3916 -0.4090
   95CHL1   H25 9502   0.160   1.280   8.013 -0.0986  0.4481  1.2346
   95CHL1   C26 9503   0.282   1.447   8.016  0.5631  0.6169 -0.7753
   95CHL1  H26A 9504   0.277   1.468   8.125 -2.1808 -0.9588 -0.5477
   95CHL1  H26B 9505   0.372   1.388   7.989  0.6066 -0.6039  1.8729
   95CHL1  H26C 9506   0.308   1.547   7.975 -0.5330  1.4661  0.5731
   95CHL1   C27 9507   0.029   1.442   7.996  0.0106  1.0670  0.1361
   95CHL1  H27A 9508   0.006   1.417   8.102 -1.6326  2.1819  0.0441
   95CHL1  H27B 9509   0.022   1.552   7.984 -0.4380  0.8277 -1.8022
   95CHL1  H27C 9510  -0.046   1.380   7.943  0.5282  2.4458 -2.2631
   96CHL1    C3 9511   0.606   0.935   6.636  0.5052 -0.5276 -0.3833
   96CHL1    H3 9512   0.507   0.984   6.624  0.3142 -1.2259 -1.6582
   96CHL1    O3 9513   0.661   0.909   6.512 -0.2008  0.1610  0.4441
   96CHL1   H3' 9514   0.745   0.956   6.519  0.5051 -1.1025  0.6932
   96CHL1    C4 9515   0.694   1.037   6.707  0.1070  0.1235 -0.5088
   96CHL1   H4A 9516   0.799   1.000   6.707  0.8400  2.1340  0.3256
   96CHL1   H4B 9517   0.692   1.130   6.647  1.3276 -0.4016 -1.3897
   96CHL1    C5 9518   0.656   1.050   6.851 -0.2727  0.4117 -0.5339
   96CHL1    C6 9519   0.626   1.170   6.899  0.0546  0.1171  0.5328
   96CHL1    H6 9520   0.618   1.253   6.827 -0.9890 -1.8975 -1.7210
   96CHL1    C7 9521   0.601   1.196   7.048  0.0573 -0.3097 -0.4033
   96CHL1   H7A 9522   0.657   1.286   7.081 -1.7663  0.2090  1.3007
   96CHL1   H7B 9523   0.492   1.213   7.057  0.3658  1.1637  0.6981
   96CHL1    C8 9524   0.645   1.082   7.143  0.9250  0.2978 -0.1382
   96CHL1    H8 9525   0.756   1.083   7.155  0.9917 -0.9083 -0.5076
   96CHL1   C14 9526   0.581   1.093   7.278 -0.0132  0.6574 -0.0373
   96CHL1   H14 9527   0.474   1.069   7.256 -0.5881  1.0364  2.2831
   96CHL1   C15 9528   0.584   1.224   7.356 -0.0304  0.0822  0.2982
   96CHL1  H15A 9529   0.676   1.285   7.348 -1.1070  1.4324 -2.6142
   96CHL1  H15B 9530   0.504   1.296   7.325  0.0469  0.2754  0.5486
   96CHL1   C16 9531   0.567   1.179   7.500  0.8129 -0.3131 -1.0100
   96CHL1  H16A 9532   0.657   1.200   7.562  0.5840 -3.0348  0.3130
   96CHL1  H16B 9533   0.478   1.230   7.543  0.6059 -0.5492 -1.1559
   96CHL1   C17 9534   0.545   1.028   7.500  0.1732  0.9255  0.0504
   96CHL1   H17 9535   0.442   0.995   7.475  0.7228 -0.0748 -0.9472
   96CHL1   C13 9536   0.618   0.979   7.374  0.1059  0.5077 -0.5077
   96CHL1   C18 9537   0.772   0.982   7.401  0.2979 -0.5048 -0.0946
   96CHL1  H18A 9538   0.839   0.976   7.313  1.5475  1.0683  0.7189
   96CHL1  H18B 9539   0.794   1.081   7.447 -2.0079 -0.7650  1.6878
   96CHL1  H18C 9540   0.809   0.900   7.466  0.7737  0.7190  1.2216
   96CHL1   C12 9541   0.566   0.844   7.310  0.4182  0.2784 -0.0918
   96CHL1  H12A 9542   0.593   0.749   7.360 -0.4344 -0.0189 -0.1924
   96CHL1  H12B 9543   0.457   0.851   7.289  0.6136  3.2705 -0.4200
   96CHL1   C11 9544   0.640   0.826   7.178 -0.2085 -0.7822  0.7039
   96CHL1  H11A 9545   0.749   0.825   7.202  0.2176  0.4945 -1.0701
   96CHL1  H11B 9546   0.595   0.733   7.138 -0.1735  0.1949 -1.7081
   96CHL1    C9 9547   0.607   0.945   7.081 -0.1315 -1.5615  0.3545
   96CHL1    H9 9548   0.497   0.947   7.068 -0.1107 -2.2764  0.0399
   96CHL1   C10 9549   0.665   0.918   6.939  0.0269  0.8157  0.7436
   96CHL1   C19 9550   0.808   0.854   6.931  0.3606  0.8088 -0.2497
   96CHL1  H19A 9551   0.863   0.859   6.835  1.3336  0.0333  0.2645
   96CHL1  H19B 9552   0.872   0.911   7.002  2.9242 -0.6856 -1.3110
   96CHL1  H19C 9553   0.804   0.748   6.963  1.4742  0.9816  0.4926
   96CHL1    C1 9554   0.555   0.831   6.862  0.2739 -0.0492  0.3739
   96CHL1   H1A 9555   0.545   0.732   6.912 -0.0565 -1.8707 -3.1406
   96CHL1   H1B 9556   0.457   0.881   6.869  0.9495  1.2155  1.0422
   96CHL1    C2 9557   0.597   0.806   6.715 -0.3384 -0.2896 -0.5360
   96CHL1   H2A 9558   0.517   0.753   6.659 -1.9320  2.8014 -1.2813
   96CHL1   H2B 9559   0.692   0.753   6.693  0.3474  0.0373  1.5291
   96CHL1   C20 9560   0.575   0.966   7.640 -0.8456  0.1234  0.2419
   96CHL1   H20 9561   0.683   0.969   7.666 -0.1504 -1.5445 -2.3534
   96CHL1   C21 9562   0.538   0.813   7.625 -0.3009  0.7369 -0.1529
   96CHL1  H21A 9563   0.552   0.755   7.719 -1.0748 -0.5620 -0.8334
   96CHL1  H21B 9564   0.605   0.769   7.548  0.7740 -1.7978  2.1357
   96CHL1  H21C 9565   0.433   0.800   7.592 -0.5785 -0.1685  1.0619
   96CHL1   C22 9566   0.485   1.031   7.755 -0.8112 -0.2787 -0.3509
   96CHL1  H22A 9567   0.545   1.123   7.773 -0.6997 -0.5885  0.9062
   96CHL1  H22B 9568   0.384   1.046   7.711 -0.1507  0.0613 -1.7677
   96CHL1   C23 9569   0.478   0.951   7.892  0.1406  0.3506 -0.0987
   96CHL1  H23A 9570   0.413   0.861   7.884 -0.4765  0.7743  0.0992
   96CHL1  H23B 9571   0.578   0.910   7.919 -0.7098 -0.4946  1.8600
   96CHL1   C24 9572   0.415   1.030   8.001 -0.4123  0.2357 -0.3726
   96CHL1  H24A 9573   0.480   1.121   8.007 -2.5885  1.7888  0.0510
   96CHL1  H24B 9574   0.313   1.062   7.971 -0.1245 -0.6657 -2.3206
   96CHL1   C25 9575   0.406   0.986   8.146  1.3714 -0.7327 -0.4865
   96CHL1   H25 9576   0.506   0.965   8.190 -0.1978 -2.3562  2.5101
   96CHL1   C26 9577   0.357   1.111   8.228 -0.3463  0.0419  0.0380
   96CHL1  H26A 9578   0.389   1.099   8.333 -1.7527 -0.8294  0.3767
   96CHL1  H26B 9579   0.396   1.204   8.179 -0.7375  0.2989  0.2117
   96CHL1  H26C 9580   0.247   1.127   8.233 -0.4405 -0.1835 -1.1749
   96CHL1   C27 9581   0.317   0.866   8.175  0.1000  0.0260  0.1436
   96CHL1  H27A 9582   0.332   0.819   8.275  1.4711 -2.9795 -1.4145
   96CHL1  H27B 9583   0.208   0.887   8.172 -0.1838 -1.3578  0.5055
   96CHL1  H27C 9584   0.334   0.786   8.100  0.4919  1.4053 -1.2567
   97OSM      N 9585   4.261   3.062  11.221 -0.0034  0.7558  0.1899
   97OSM    C15 9586   4.289   3.032  11.363  0.2557  0.4967  0.8088
   97OSM   H15A 9587   4.350   3.111  11.402  0.4977  1.5682 -1.6261
   97OSM   H15B 9588   4.348   2.941  11.361  1.8114  1.4996 -0.1175
   97OSM   H15C 9589   4.206   3.020  11.431  2.2056 -1.4358  2.9498
   97OSM    C14 9590   4.156   2.970  11.175  0.6694  0.6148 -0.6038
   97OSM   H14A 9591   4.130   2.992  11.073  1.1169  3.3147 -0.1561
   97OSM   H14B 9592   4.067   2.979  11.236  0.6410 -0.4586 -0.4710
   97OSM   H14C 9593   4.185   2.866  11.170 -3.2804 -0.6303  0.0740
   97OSM    C13 9594   4.208   3.204  11.200 -0.2682 -0.1659  0.3833
   97OSM   H13A 9595   4.178   3.225  11.099  2.6458 -1.6289 -0.8409
   97OSM   H13B 9596   4.294   3.269  11.203 -0.7577  0.4293  1.9233
   97OSM   H13C 9597   4.132   3.244  11.266  0.3978  1.9205 -0.0860
   97OSM    C12 9598   4.386   3.042  11.138  0.2760 -0.4598  0.5785
   97OSM   H12A 9599   4.362   3.044  11.033  1.0265  1.7736  0.4238
   97OSM   H12B 9600   4.418   2.941  11.160 -3.7317 -1.7917  0.7439
   97OSM    C11 9601   4.489   3.150  11.160 -0.3056 -0.0316 -0.4198
   97OSM   H11A 9602   4.587   3.107  11.132  0.3809  0.6671  0.8493
   97OSM   H11B 9603   4.504   3.178  11.267  0.8093  0.9859 -0.8381
   97OSM      P 9604   4.561   3.373  11.049 -0.1562  0.3344  0.1427
   97OSM    O13 9605   4.493   3.508  11.052  0.2215  0.0456 -0.2628
   97OSM    O14 9606   4.688   3.363  11.127  0.3361  0.0967 -0.3542
   97OSM    O11 9607   4.592   3.334  10.894 -0.5170  0.1820 -0.1928
   97OSM    O12 9608   4.459   3.264  11.085  0.4638  0.7304 -0.2504
   97OSM    C1S 9609   4.556   3.197  10.857 -0.0102  0.7634 -0.4382
   97OSM    H1S 9610   4.454   3.171  10.893  1.0035 -2.3566  0.3072
   97OSM    H1T 9611   4.627   3.120  10.893 -1.0953 -0.3180 -0.6023
   97OSM     NF 9612   4.484   3.074  10.657  0.1270  0.1821 -0.1935
   97OSM    HNF 9613   4.533   2.988  10.659  0.4350  0.3830  2.5556
   97OSM    C2S 9614   4.561   3.187  10.703 -0.4855  0.4969  0.4340
   97OSM    H2S 9615   4.524   3.282  10.658 -0.8875  0.0617 -0.1632
   97OSM    C3S 9616   4.715   3.181  10.665  0.0631  0.0307  0.5415
   97OSM    H3S 9617   4.758   3.080  10.683  2.5836  0.8681 -0.5614
   97OSM     O3 9618   4.798   3.270  10.733 -0.0523 -1.0229 -0.1779
   97OSM    HO3 9619   4.736   3.317  10.790 -0.1442 -1.2785 -0.0630
   97OSM    C4S 9620   4.733   3.200  10.505 -0.1498  0.0341  0.5211
   97OSM    H4S 9621   4.723   3.104  10.452  1.4811  0.2783 -0.2395
   97OSM    C5S 9622   4.766   3.313  10.432 -0.1074 -0.8112  0.1751
   97OSM    H5S 9623   4.778   3.415  10.471 -0.5580  0.4190 -2.7677
   97OSM    C6S 9624   4.785   3.309  10.281  0.2644 -0.3112  0.3067
   97OSM    H6S 9625   4.894   3.320  10.262 -0.2479  2.0500 -1.5083
   97OSM    H6T 9626   4.741   3.401  10.235  1.1760  0.3913  0.8430
   97OSM    C7S 9627   4.732   3.186  10.201  0.1127 -0.0435  0.3111
   97OSM    H7S 9628   4.622   3.181  10.217  0.0648  1.8178  0.6895
   97OSM    H7T 9629   4.768   3.086  10.233 -0.4742 -0.4977 -0.4431
   97OSM    C8S 9630   4.750   3.202  10.046  0.2096 -0.2487 -1.3392
   97OSM    H8S 9631   4.703   3.294  10.005 -1.3981 -0.5121 -0.1682
   97OSM    H8T 9632   4.695   3.120   9.996  0.0732 -0.6575 -0.5272
   97OSM    C9S 9633   4.898   3.197  10.014 -0.0123 -0.2105 -0.0168
   97OSM    H9S 9634   4.953   3.134  10.087 -0.7838 -0.2490  0.5478
   97OSM    H9T 9635   4.937   3.300  10.022  1.8782 -0.9469  0.4270
   97OSM   C10S 9636   4.938   3.157   9.868  0.5520 -0.0199  0.3578
   97OSM   H10S 9637   4.884   3.229   9.804 -2.4904 -3.3565 -0.9807
   97OSM   H10T 9638   4.919   3.048   9.860 -0.4853  0.3133 -2.1554
   97OSM   C11S 9639   5.094   3.172   9.843  0.5593 -0.4613 -0.5751
   97OSM   H11S 9640   5.147   3.102   9.911  3.6515  0.9691 -1.4385
   97OSM   H11T 9641   5.127   3.272   9.878  3.3799 -0.7037 -2.3705
   97OSM   C12S 9642   5.133   3.131   9.701  0.3222  0.3285 -0.2175
   97OSM   H12S 9643   5.073   3.206   9.645 -0.1623  0.4887  0.5113
   97OSM   H12T 9644   5.094   3.030   9.674  0.7449 -0.0021  0.3888
   97OSM   C13S 9645   5.273   3.140   9.649 -0.2257  0.2455  0.0261
   97OSM   H13S 9646   5.326   3.060   9.705 -2.2633 -1.3241 -0.2312
   97OSM   H13T 9647   5.322   3.239   9.662  1.1829 -0.5407  0.7675
   97OSM   C14S 9648   5.291   3.104   9.498  0.1312  0.3653  0.2574
   97OSM   H14S 9649   5.236   3.010   9.475 -1.5239  1.4162 -0.1211
   97OSM   H14T 9650   5.398   3.076   9.489  0.0001  0.1979 -0.8610
   97OSM   C15S 9651   5.257   3.214   9.397  0.4443  0.0047  0.5666
   97OSM   H15S 9652   5.342   3.284   9.383 -0.1686  0.4419 -1.1177
   97OSM   H15T 9653   5.167   3.275   9.423 -1.0764 -2.5410  1.4581
   97OSM   C16S 9654   5.230   3.153   9.251 -0.2886  0.8549 -0.2294
   97OSM   H16S 9655   5.193   3.237   9.188 -2.5098 -0.0287 -0.1540
   97OSM   H16T 9656   5.144   3.084   9.269 -0.4863  1.5567  1.6811
   97OSM   C17S 9657   5.344   3.086   9.183  0.5464  0.8232 -0.6485
   97OSM   H17S 9658   5.376   3.005   9.251  0.6227  0.5905 -0.9614
   97OSM   H17T 9659   5.437   3.142   9.160  0.9687 -0.3406 -1.8273
   97OSM   C18S 9660   5.286   3.018   9.055  0.2436  0.2132 -0.9535
   97OSM   H18S 9661   5.230   2.925   9.080  0.4096  0.4522  0.3482
   97OSM   H18T 9662   5.377   3.001   8.993 -0.2020  0.1789 -1.5999
   97OSM   H18U 9663   5.238   3.101   9.000 -2.0724  0.2752  1.0704
   97OSM    C1F 9664   4.353   3.083  10.641 -0.0472  0.0721 -0.1789
   97OSM     OF 9665   4.291   3.182  10.680  0.0361 -0.8083 -0.4632
   97OSM    C2F 9666   4.283   2.949  10.611  0.2086 -0.1887 -0.9743
   97OSM    H2F 9667   4.173   2.961  10.621  0.1048 -0.4268 -1.7994
   97OSM    H2G 9668   4.312   2.883  10.695 -2.0363 -0.5866 -0.4700
   97OSM    C3F 9669   4.332   2.892  10.476 -0.9599  0.3021  0.1287
   97OSM    H3F 9670   4.290   2.790  10.460  2.1735 -0.9841 -0.3868
   97OSM    H3G 9671   4.442   2.877  10.475 -0.5815  2.3587  2.9298
   97OSM    C4F 9672   4.279   2.980  10.360  0.5149 -0.2648  0.3680
   97OSM    H4F 9673   4.309   3.085  10.380  0.9264 -0.7449  2.3421
   97OSM    H4G 9674   4.169   2.975  10.350  0.4670 -1.6393  1.3916
   97OSM    C5F 9675   4.327   2.932  10.225 -0.0012  1.0138  0.8181
   97OSM    H5F 9676   4.288   2.828  10.221  0.7266  0.7100  1.5637
   97OSM    H5G 9677   4.437   2.946  10.215  0.1408 -0.5346  0.0060
   97OSM    C6F 9678   4.260   3.005  10.109  0.3447  0.1014  0.1497
   97OSM    H6F 9679   4.275   3.115  10.110  0.2532  0.1087  0.8042
   97OSM    H6G 9680   4.151   2.983  10.110  0.1533  0.8010 -2.2148
   97OSM    C7F 9681   4.319   2.958   9.979  0.1869  1.1549  0.5529
   97OSM    H7F 9682   4.272   2.862   9.948  3.1629  0.4039 -1.8528
   97OSM    H7G 9683   4.429   2.954   9.991  0.4561  0.3034 -1.9898
   97OSM    C8F 9684   4.294   3.047   9.854  0.7005  0.0429  0.4693
   97OSM    H8F 9685   4.184   3.063   9.851  0.7726  0.3278 -1.9375
   97OSM    H8G 9686   4.304   2.992   9.758 -2.9703  1.0937 -0.5847
   97OSM    C9F 9687   4.373   3.172   9.865  0.3628 -1.2872 -0.1367
   97OSM    H9F 9688   4.356   3.245   9.946 -1.3721  0.6308 -2.1498
   97OSM   C10F 9689   4.470   3.196   9.780 -0.1824 -0.0919 -0.0272
   97OSM   H10F 9690   4.521   3.291   9.799  0.4394  0.0093 -2.0950
   97OSM   C11F 9691   4.510   3.117   9.657 -0.3693 -0.3170  0.0123
   97OSM   H11F 9692   4.435   3.047   9.612  2.3349 -0.7858 -4.0743
   97OSM   H11G 9693   4.599   3.056   9.683  0.6462  1.3204  0.4202
   97OSM   C12F 9694   4.548   3.204   9.532  0.2036  0.0066 -0.5015
   97OSM   H12F 9695   4.470   3.280   9.508 -0.5968 -0.7978 -0.4745
   97OSM   H12G 9696   4.545   3.132   9.447  0.5949  0.6529 -1.0729
   97OSM   C13F 9697   4.680   3.270   9.539  0.4843 -0.1447  0.8580
   97OSM   H13F 9698   4.760   3.193   9.548  2.0590  1.5010  1.3026
   97OSM   H13G 9699   4.683   3.313   9.641  0.9761  1.3526  0.2271
   97OSM   C14F 9700   4.705   3.382   9.438  0.6185 -0.6375 -0.4897
   97OSM   H14F 9701   4.805   3.426   9.461  0.3782  1.8348 -3.8493
   97OSM   H14G 9702   4.631   3.464   9.440  0.2505 -0.9117 -2.1902
   97OSM   C15F 9703   4.705   3.319   9.297  0.4757 -0.1099  0.4069
   97OSM   H15F 9704   4.617   3.254   9.279 -0.9275  2.1691 -1.2306
   97OSM   H15G 9705   4.797   3.257   9.296 -0.0356 -0.9354  1.8571
   97OSM   C16F 9706   4.705   3.426   9.184 -0.7421  0.1216  0.4134
   97OSM   H16F 9707   4.629   3.504   9.205 -1.0147  0.7602 -2.6795
   97OSM   H16G 9708   4.680   3.387   9.082  0.4399  0.8306 -0.1563
   97OSM   C17F 9709   4.843   3.492   9.178 -0.2667 -0.2469  0.3462
   97OSM   H17F 9710   4.870   3.528   9.279  1.3559 -0.1458 -0.1037
   97OSM   H17G 9711   4.839   3.590   9.124  0.5244 -0.3130  0.1632
   97OSM   C18F 9712   4.950   3.407   9.110 -0.1815  0.5638  0.2821
   97OSM   H18F 9713   5.050   3.456   9.111  0.4856 -0.6444 -2.0672
   97OSM   H18G 9714   4.898   3.381   9.015  0.8435 -0.6321  0.0349
   97OSM   H18H 9715   4.955   3.311   9.166 -0.2066  1.1725  1.3301
   98OSM      N 9716   5.125   2.536  11.061  0.4896 -0.1637 -0.4980
   98OSM    C15 9717   5.226   2.581  10.960 -0.7620 -0.7469 -0.1320
   98OSM   H15A 9718   5.269   2.493  10.914  1.7172 -1.4748  3.3938
   98OSM   H15B 9719   5.314   2.622  11.008 -0.8807 -1.5325  0.7567
   98OSM   H15C 9720   5.194   2.654  10.887  2.3558  1.2483  0.3643
   98OSM    C14 9721   5.186   2.483  11.186  0.6017  0.3387  0.2453
   98OSM   H14A 9722   5.273   2.421  11.169  0.1511  0.4778 -2.7451
   98OSM   H14B 9723   5.118   2.424  11.245  0.8571  0.7662  0.9858
   98OSM   H14C 9724   5.225   2.566  11.243 -0.5148  0.5331  0.7515
   98OSM    C13 9725   5.041   2.655  11.115  0.2019 -1.3413  0.4720
   98OSM   H13A 9726   5.111   2.718  11.168 -0.4875 -0.3657  0.2381
   98OSM   H13B 9727   4.957   2.619  11.173 -1.0231 -0.9613 -1.0266
   98OSM   H13C 9728   4.998   2.714  11.035  0.8379 -2.6445 -0.8521
   98OSM    C12 9729   5.031   2.430  10.997 -0.2980  0.3490 -0.1391
   98OSM   H12A 9730   5.081   2.334  10.997 -0.5758  0.2036 -0.0158
   98OSM   H12B 9731   5.002   2.461  10.897 -0.1221 -0.0217 -0.3061
   98OSM    C11 9732   4.896   2.409  11.075 -0.5165 -0.6476  0.1480
   98OSM   H11A 9733   4.913   2.428  11.183 -0.4772  2.9253 -0.4270
   98OSM   H11B 9734   4.859   2.307  11.049 -0.1857 -0.9054  0.6797
   98OSM      P 9735   4.650   2.520  11.065 -0.1801  0.2276  0.1440
   98OSM    O13 9736   4.625   2.447  11.192  0.2283  0.7280 -0.1295
   98OSM    O14 9737   4.595   2.652  11.045  0.1955  0.0523 -0.1505
   98OSM    O11 9738   4.587   2.427  10.953  0.2414  0.2767  0.3329
   98OSM    O12 9739   4.804   2.516  11.034 -0.0303  0.4767  0.7743
   98OSM    C1S 9740   4.444   2.419  10.930 -0.7741 -0.1380  0.4993
   98OSM    H1S 9741   4.386   2.474  11.007  0.5627  2.4550 -0.2962
   98OSM    H1T 9742   4.404   2.315  10.936 -1.8875  0.2177 -0.5612
   98OSM     NF 9743   4.260   2.498  10.781  0.0896  0.4541  0.4743
   98OSM    HNF 9744   4.207   2.450  10.712 -0.7122  1.6035  0.2619
   98OSM    C2S 9745   4.404   2.475  10.792  0.6689 -0.0676  0.2398
   98OSM    H2S 9746   4.456   2.573  10.795 -1.6631  1.1729  1.6894
   98OSM    C3S 9747   4.468   2.390  10.681 -0.0218  0.5725 -0.2067
   98OSM    H3S 9748   4.437   2.286  10.708 -3.1914  1.1018 -1.5575
   98OSM     O3 9749   4.611   2.395  10.673  0.0960  0.0328  0.1052
   98OSM    HO3 9750   4.638   2.448  10.748  2.2735  0.2334 -0.7906
   98OSM    C4S 9751   4.406   2.427  10.543 -0.3626  0.8269  0.3392
   98OSM    H4S 9752   4.342   2.344  10.512 -0.7955  1.7470 -1.2720
   98OSM    C5S 9753   4.437   2.527  10.460 -0.1381  0.0435  0.6402
   98OSM    H5S 9754   4.521   2.595  10.481 -1.4460  0.7820  3.8529
   98OSM    C6S 9755   4.377   2.544  10.323  0.0319 -0.1365 -0.0566
   98OSM    H6S 9756   4.464   2.573  10.261 -0.4932  1.4311 -0.0804
   98OSM    H6T 9757   4.304   2.628  10.313 -0.0623 -0.1553  0.4615
   98OSM    C7S 9758   4.318   2.411  10.267  0.4428  0.8653 -0.5339
   98OSM    H7S 9759   4.236   2.383  10.336 -0.1989  0.1934 -1.5561
   98OSM    H7T 9760   4.404   2.340  10.264 -0.0456  0.2730 -0.7868
   98OSM    C8S 9761   4.264   2.390  10.123 -0.0279 -0.0773 -0.4793
   98OSM    H8S 9762   4.315   2.450  10.045  0.2041 -0.1825 -0.4113
   98OSM    H8T 9763   4.155   2.409  10.133 -0.3655 -2.8302  2.0960
   98OSM    C9S 9764   4.273   2.246  10.082  0.3403  0.1990 -0.0323
   98OSM    H9S 9765   4.229   2.189  10.167  1.7472 -0.0566  0.5365
   98OSM    H9T 9766   4.378   2.210  10.077 -0.1250 -1.2903  0.3751
   98OSM   C10S 9767   4.201   2.199   9.949 -0.0340 -0.5823  0.0454
   98OSM   H10S 9768   4.104   2.253   9.950  0.2294 -0.0381 -2.0426
   98OSM   H10T 9769   4.193   2.089   9.931 -3.5399 -0.5982  1.2322
   98OSM   C11S 9770   4.268   2.270   9.824  0.0203 -0.1039 -0.1841
   98OSM   H11S 9771   4.285   2.380   9.835 -0.3162 -0.1683  1.1345
   98OSM   H11T 9772   4.198   2.270   9.738 -1.4979  2.2732  0.9807
   98OSM   C12S 9773   4.400   2.205   9.775  0.1807 -1.1363  0.7677
   98OSM   H12S 9774   4.399   2.094   9.780  2.1647 -1.2328 -0.3268
   98OSM   H12T 9775   4.481   2.225   9.849  2.1362 -0.8324 -1.3942
   98OSM   C13S 9776   4.463   2.254   9.642 -0.0876  0.2483 -0.2457
   98OSM   H13S 9777   4.382   2.240   9.568 -0.5172 -0.6131  0.3717
   98OSM   H13T 9778   4.543   2.184   9.608 -2.5813 -3.8520  1.8510
   98OSM   C14S 9779   4.504   2.396   9.651 -0.6656 -0.9326  0.2332
   98OSM   H14S 9780   4.541   2.436   9.747  0.3398 -1.5462  0.1188
   98OSM   H14T 9781   4.418   2.463   9.634  0.1658  0.5773  1.8384
   98OSM   C15S 9782   4.613   2.425   9.544 -0.2825  0.4030 -0.3498
   98OSM   H15S 9783   4.692   2.348   9.556 -1.2528 -0.6225 -0.4286
   98OSM   H15T 9784   4.670   2.519   9.559 -0.8329  0.5431  0.9152
   98OSM   C16S 9785   4.569   2.422   9.397  0.9811 -0.2218 -0.3360
   98OSM   H16S 9786   4.482   2.487   9.374  0.4651  1.0694  4.7586
   98OSM   H16T 9787   4.529   2.320   9.379  0.6980  0.2760 -2.8075
   98OSM   C17S 9788   4.674   2.449   9.286  0.8818 -0.4434  0.0133
   98OSM   H17S 9789   4.716   2.550   9.305  0.3577  0.2041 -2.2026
   98OSM   H17T 9790   4.619   2.454   9.190  1.5653 -0.6023 -0.3849
   98OSM   C18S 9791   4.788   2.342   9.292  0.8364  0.2548 -0.1657
   98OSM   H18S 9792   4.838   2.347   9.391  1.1858  1.3366 -0.3890
   98OSM   H18T 9793   4.860   2.387   9.220  1.5942  0.3672  0.6504
   98OSM   H18U 9794   4.750   2.239   9.276  3.4166 -0.9254  0.9751
   98OSM    C1F 9795   4.193   2.577  10.870  0.2996 -0.0118  0.9692
   98OSM     OF 9796   4.250   2.645  10.952  0.3368 -0.5602  0.2322
   98OSM    C2F 9797   4.041   2.571  10.883  0.1550 -0.1936  0.0713
   98OSM    H2F 9798   4.019   2.579  10.992  1.7135 -2.3636  0.5717
   98OSM    H2G 9799   4.010   2.468  10.858 -3.5460  0.9932 -0.5300
   98OSM    C3F 9800   3.968   2.680  10.809  0.1842 -0.2703  0.1236
   98OSM    H3F 9801   4.010   2.774  10.852  1.2084  0.0277 -1.5060
   98OSM    H3G 9802   3.859   2.677  10.827  0.6252 -1.3764  2.9155
   98OSM    C4F 9803   3.986   2.672  10.658 -0.4500  0.0540  0.2838
   98OSM    H4F 9804   4.095   2.686  10.640 -0.0653 -3.0270 -0.0606
   98OSM    H4G 9805   3.937   2.762  10.614 -2.8671 -1.7023 -0.7372
   98OSM    C5F 9806   3.946   2.546  10.572 -0.1596 -0.0087 -0.0989
   98OSM    H5F 9807   3.835   2.545  10.557  0.1605  0.4784 -2.8123
   98OSM    H5G 9808   3.983   2.455  10.623  1.7341  1.5780  1.3915
   98OSM    C6F 9809   4.012   2.539  10.428  0.9968 -0.0732 -0.6193
   98OSM    H6F 9810   3.964   2.458  10.369 -0.8223  0.8630 -0.4642
   98OSM    H6G 9811   4.120   2.516  10.430  0.4142 -2.8167  0.4391
   98OSM    C7F 9812   3.985   2.659  10.335  0.3917 -0.0423  0.5329
   98OSM    H7F 9813   4.041   2.634  10.243  1.8117 -0.6770  1.5556
   98OSM    H7G 9814   4.040   2.749  10.371 -1.8404  1.7605 -0.4387
   98OSM    C8F 9815   3.836   2.681  10.301  0.0648  0.0175  0.1978
   98OSM    H8F 9816   3.783   2.690  10.399 -1.7586  2.5769 -0.9668
   98OSM    H8G 9817   3.802   2.599  10.235 -0.1247  0.2938 -0.0476
   98OSM    C9F 9818   3.836   2.813  10.226 -0.0245  0.4916 -0.0649
   98OSM    H9F 9819   3.816   2.905  10.284 -0.7774 -0.6225  1.4864
   98OSM   C10F 9820   3.835   2.825  10.090 -0.1053 -0.1945  0.2621
   98OSM   H10F 9821   3.820   2.923  10.043 -2.8966 -0.8887 -0.4131
   98OSM   C11F 9822   3.842   2.722   9.988 -0.3145 -0.4727 -0.3895
   98OSM   H11F 9823   3.738   2.705   9.955 -2.0334  2.7968  3.0369
   98OSM   H11G 9824   3.888   2.626  10.021  1.3749  0.1128 -0.9702
   98OSM   C12F 9825   3.924   2.777   9.874  0.0925 -0.3744  0.0738
   98OSM   H12F 9826   4.002   2.840   9.922  1.2811 -2.5224  1.0411
   98OSM   H12G 9827   3.857   2.836   9.807  2.2543 -0.0369 -1.8343
   98OSM   C13F 9828   3.987   2.666   9.793  0.0314 -0.1635  0.2745
   98OSM   H13F 9829   3.902   2.606   9.753 -0.4677  0.5538  0.2440
   98OSM   H13G 9830   4.043   2.597   9.859 -2.0287 -1.6894  0.4768
   98OSM   C14F 9831   4.072   2.708   9.682  0.0387  0.4586 -0.3369
   98OSM   H14F 9832   4.162   2.766   9.711 -0.0700  1.1139 -1.2917
   98OSM   H14G 9833   4.010   2.769   9.612  1.2160 -1.0108 -2.7094
   98OSM   C15F 9834   4.109   2.585   9.600  0.5053  0.0738 -0.0356
   98OSM   H15F 9835   4.019   2.535   9.559 -0.3614  0.1609  1.7376
   98OSM   H15G 9836   4.143   2.512   9.676  2.3412  2.2635  1.3250
   98OSM   C16F 9837   4.214   2.613   9.491  0.3164  0.1139  0.0731
   98OSM   H16F 9838   4.264   2.523   9.449  0.2580  0.1393 -0.0501
   98OSM   H16G 9839   4.287   2.691   9.521 -0.1066  1.0630 -1.3191
   98OSM   C17F 9840   4.150   2.668   9.358  0.3750 -0.6032  0.2874
   98OSM   H17F 9841   4.106   2.768   9.380 -0.0040 -0.3669 -1.4559
   98OSM   H17G 9842   4.069   2.602   9.322 -0.4264  0.8625 -0.6584
   98OSM   C18F 9843   4.256   2.680   9.247  0.4141  0.0068  0.6184
   98OSM   H18F 9844   4.330   2.757   9.280  1.7804 -1.0555  0.0969
   98OSM   H18G 9845   4.215   2.727   9.156  0.8086 -1.3681 -0.2816
   98OSM   H18H 9846   4.306   2.585   9.219  1.7757  1.1417 -0.8950
   99OSM      N 9847   6.438   3.657  11.065 -0.0489  0.2713 -0.3659
   99OSM    C15 9848   6.420   3.687  11.211  0.4606 -0.8936 -1.2821
   99OSM   H15A 9849   6.487   3.624  11.267  0.2114  0.1139  0.1480
   99OSM   H15B 9850   6.317   3.663  11.234  1.6023 -3.6150  1.2861
   99OSM   H15C 9851   6.441   3.790  11.233 -0.3337 -1.2605  1.3700
   99OSM    C14 9852   6.369   3.770  10.988 -0.0393  1.0241 -0.1509
   99OSM   H14A 9853   6.263   3.771  11.008 -0.3723 -1.5978 -1.4757
   99OSM   H14B 9854   6.390   3.756  10.882 -0.4570  1.3346 -0.2742
   99OSM   H14C 9855   6.414   3.863  11.017 -2.9133  2.6627 -0.7595
   99OSM    C13 9856   6.588   3.666  11.035  0.5600  0.1229 -0.0477
   99OSM   H13A 9857   6.659   3.612  11.096  0.4566 -0.6295 -0.5831
   99OSM   H13B 9858   6.608   3.771  11.046  0.1322  0.1141  0.8779
   99OSM   H13C 9859   6.597   3.641  10.930 -1.6703 -1.4128  0.0743
   99OSM    C12 9860   6.378   3.521  11.030  0.1334 -0.1643 -0.4902
   99OSM   H12A 9861   6.272   3.522  11.052  0.1375 -1.1495 -0.4113
   99OSM   H12B 9862   6.425   3.450  11.097 -0.0863  0.1379 -0.0197
   99OSM    C11 9863   6.397   3.469  10.886  0.4933 -0.4362 -0.3907
   99OSM   H11A 9864   6.334   3.537  10.825  1.3058  0.1897 -0.5334
   99OSM   H11B 9865   6.348   3.369  10.880 -1.3473  0.1715  2.9719
   99OSM      P 9866   6.632   3.347  10.856  0.6339  0.0329  0.2135
   99OSM    O13 9867   6.767   3.400  10.890  0.1539  0.1673 -0.1104
   99OSM    O14 9868   6.566   3.247  10.943 -0.2206 -0.2513  0.5992
   99OSM    O11 9869   6.619   3.294  10.710  0.4748 -0.1927  0.2147
   99OSM    O12 9870   6.532   3.465  10.842  0.7075 -0.2865  0.7234
   99OSM    C1S 9871   6.575   3.363  10.598 -0.6488 -0.7628 -0.4630
   99OSM    H1S 9872   6.627   3.461  10.592  0.9724 -1.5125  0.9188
   99OSM    H1T 9873   6.469   3.397  10.606 -0.3117  0.1229  0.3768
   99OSM     NF 9874   6.549   3.361  10.357  0.2266  0.4782  0.0528
   99OSM    HNF 9875   6.455   3.353  10.325  0.6188 -0.7315 -0.7909
   99OSM    C2S 9876   6.582   3.271  10.469  0.7546  0.0669  0.2926
   99OSM    H2S 9877   6.688   3.242  10.450  0.8711  1.2181 -0.9252
   99OSM    C3S 9878   6.492   3.149  10.485 -0.0888  0.2867 -0.7892
   99OSM    H3S 9879   6.385   3.180  10.490 -1.0032 -2.9515  1.6387
   99OSM     O3 9880   6.507   3.078  10.609 -1.0983  0.0025  0.4269
   99OSM    HO3 9881   6.569   3.124  10.666 -0.6647 -0.3438  0.2322
   99OSM    C4S 9882   6.500   3.055  10.366  0.0122 -0.3622  0.7020
   99OSM    H4S 9883   6.432   3.083  10.284  2.7883  1.4934 -1.0865
   99OSM    C5S 9884   6.591   2.958  10.355  0.4567 -0.4288  0.0910
   99OSM    H5S 9885   6.673   2.938  10.425  1.1924 -2.4214 -1.3119
   99OSM    C6S 9886   6.595   2.862  10.246  0.1520 -0.3455 -0.4544
   99OSM    H6S 9887   6.494   2.861  10.199 -0.5166  1.8789  0.8448
   99OSM    H6T 9888   6.616   2.757  10.278  0.3076 -1.1680 -3.1517
   99OSM    C7S 9889   6.704   2.901  10.145 -0.4492  0.6819  0.0489
   99OSM    H7S 9890   6.805   2.915  10.190 -0.7037 -0.7179  1.0765
   99OSM    H7T 9891   6.677   2.999  10.100  0.1722 -0.5326 -3.0866
   99OSM    C8S 9892   6.718   2.801  10.020 -0.5839  0.0074  0.1983
   99OSM    H8S 9893   6.624   2.786   9.962 -1.3080  1.5111  0.9350
   99OSM    H8T 9894   6.735   2.700  10.061  1.7881  1.1419  2.1285
   99OSM    C9S 9895   6.817   2.844   9.911 -0.2559  0.7708  0.4836
   99OSM    H9S 9896   6.918   2.836   9.956  0.5518  0.8068 -1.2521
   99OSM    H9T 9897   6.810   2.952   9.884  2.0732  0.5645 -1.1334
   99OSM   C10S 9898   6.810   2.762   9.788 -0.1264  0.5734  0.2793
   99OSM   H10S 9899   6.715   2.781   9.733 -0.4320  1.3069  1.0539
   99OSM   H10T 9900   6.814   2.651   9.800  1.7863  0.4981 -0.8077
   99OSM   C11S 9901   6.919   2.806   9.689 -0.7206 -0.1496 -0.8191
   99OSM   H11S 9902   7.013   2.776   9.740 -2.2453 -1.5448  1.2541
   99OSM   H11T 9903   6.906   2.916   9.674  1.3568  0.4459  1.5349
   99OSM   C12S 9904   6.900   2.739   9.555 -0.6488  0.5705  0.1243
   99OSM   H12S 9905   6.927   2.631   9.561 -0.9978  0.5247  0.8863
   99OSM   H12T 9906   6.795   2.744   9.521 -1.1434  1.5267  1.7337
   99OSM   C13S 9907   6.989   2.790   9.436  0.1711  0.2492 -0.6339
   99OSM   H13S 9908   7.095   2.781   9.467 -0.5654 -0.0814  1.9155
   99OSM   H13T 9909   6.960   2.896   9.418 -0.0587 -0.0901 -2.3659
   99OSM   C14S 9910   6.977   2.714   9.302  0.2583 -0.4200 -0.2461
   99OSM   H14S 9911   6.866   2.715   9.290  0.3965  1.4106 -1.5258
   99OSM   H14T 9912   7.018   2.610   9.303  1.7167  0.1351 -1.2652
   99OSM   C15S 9913   7.063   2.787   9.192 -0.1286  0.7926 -0.8448
   99OSM   H15S 9914   7.171   2.778   9.216 -0.6532 -2.0547  0.6193
   99OSM   H15T 9915   7.020   2.889   9.200  0.0766  0.8969 -1.0673
   99OSM   C16S 9916   7.032   2.734   9.055 -0.0070  0.2569  0.2542
   99OSM   H16S 9917   6.922   2.727   9.046 -0.1407  2.8336 -0.4148
   99OSM   H16T 9918   7.076   2.632   9.045 -1.4443 -0.3091 -0.4207
   99OSM   C17S 9919   7.075   2.833   8.941  0.5310 -0.0977 -0.2745
   99OSM   H17S 9920   7.183   2.837   8.919  0.6485 -3.5417 -0.6510
   99OSM   H17T 9921   7.039   2.933   8.974  0.8794 -1.2513  3.9233
   99OSM   C18S 9922   6.998   2.800   8.811  0.3112  0.4367 -0.0104
   99OSM   H18S 9923   7.004   2.885   8.740 -2.0413  1.1354  0.5826
   99OSM   H18T 9924   6.890   2.782   8.831  0.3521  0.6966  0.4554
   99OSM   H18U 9925   7.043   2.708   8.768 -1.0143 -0.1399 -0.2096
   99OSM    C1F 9926   6.619   3.473  10.332 -1.0955 -0.0159  0.4306
   99OSM     OF 9927   6.735   3.480  10.363 -0.1200  0.2135 -0.1703
   99OSM    C2F 9928   6.548   3.579  10.248  0.0705 -0.2082 -0.2544
   99OSM    H2F 9929   6.494   3.653  10.309 -1.7304  0.8206 -3.0005
   99OSM    H2G 9930   6.469   3.525  10.191  0.2597  0.9292 -1.6248
   99OSM    C3F 9931   6.653   3.654  10.165 -0.1959 -0.2403  0.0532
   99OSM    H3F 9932   6.614   3.749  10.122  0.2360  0.2758  0.7750
   99OSM    H3G 9933   6.739   3.687  10.226 -0.8794 -0.7643  1.3339
   99OSM    C4F 9934   6.709   3.571  10.045  0.7636 -0.1490 -0.4027
   99OSM    H4F 9935   6.691   3.463  10.066  0.7803  0.3515  2.3440
   99OSM    H4G 9936   6.817   3.594  10.034  0.9270 -1.0527 -0.7802
   99OSM    C5F 9937   6.642   3.602   9.911  0.1635  0.3276  0.5403
   99OSM    H5F 9938   6.668   3.705   9.879 -0.7479 -0.1823 -1.9664
   99OSM    H5G 9939   6.534   3.580   9.924  0.2790 -0.4547  0.1813
   99OSM    C6F 9940   6.701   3.526   9.792 -0.2788  0.3093  0.2290
   99OSM    H6F 9941   6.696   3.418   9.816  0.2972  0.3694  0.6465
   99OSM    H6G 9942   6.810   3.545   9.779 -0.4060  0.3814 -0.7606
   99OSM    C7F 9943   6.651   3.579   9.656  0.0944 -0.2227 -0.0759
   99OSM    H7F 9944   6.668   3.689   9.660  1.0865 -0.2642 -2.2768
   99OSM    H7G 9945   6.542   3.556   9.651 -0.1038  0.7835 -0.5234
   99OSM    C8F 9946   6.722   3.516   9.540 -0.0741  0.5082  0.3363
   99OSM    H8F 9947   6.719   3.405   9.553  2.4732  0.5088  1.1635
   99OSM    H8G 9948   6.825   3.555   9.532  1.0615 -2.3187  0.4339
   99OSM    C9F 9949   6.648   3.538   9.406  0.1339  0.6376 -0.2177
   99OSM    H9F 9950   6.540   3.554   9.419  0.2237  1.5388 -0.5280
   99OSM   C10F 9951   6.690   3.570   9.286 -0.9232  0.5052 -0.0626
   99OSM   H10F 9952   6.623   3.582   9.199 -1.0191  1.2899  0.1168
   99OSM   C11F 9953   6.836   3.592   9.238  0.6932 -0.4298  0.0227
   99OSM   H11F 9954   6.915   3.577   9.315  1.9827  2.0724 -0.7552
   99OSM   H11G 9955   6.847   3.694   9.195 -3.1978 -0.5770 -1.5448
   99OSM   C12F 9956   6.887   3.487   9.140 -0.4717  0.2517  0.3138
   99OSM   H12F 9957   6.871   3.390   9.192  0.6512  1.0035  2.1126
   99OSM   H12G 9958   6.995   3.498   9.117 -0.2720 -0.3419  0.9556
   99OSM   C13F 9959   6.810   3.476   9.007  0.5327  0.1082 -0.3045
   99OSM   H13F 9960   6.819   3.570   8.948 -2.1710 -0.2933 -1.4383
   99OSM   H13G 9961   6.702   3.451   9.016  0.6934 -0.7532 -0.7198
   99OSM   C14F 9962   6.895   3.372   8.925 -0.0756  0.2819 -0.2963
   99OSM   H14F 9963   6.895   3.267   8.964 -1.8137 -0.3325 -1.8866
   99OSM   H14G 9964   6.996   3.419   8.924 -1.2105  2.8436  1.1039
   99OSM   C15F 9965   6.845   3.364   8.779 -0.3934  0.2337 -1.1791
   99OSM   H15F 9966   6.856   3.467   8.737  1.0343  0.6408  0.1559
   99OSM   H15G 9967   6.736   3.342   8.779 -1.1577  3.5889 -2.8740
   99OSM   C16F 9968   6.932   3.261   8.695  0.2880 -0.6129 -0.9600
   99OSM   H16F 9969   6.911   3.170   8.755  0.8636  0.1839  0.4864
   99OSM   H16G 9970   7.039   3.283   8.719 -0.3300  1.3985  0.0698
   99OSM   C17F 9971   6.897   3.248   8.551  0.2110  0.6916 -0.0595
   99OSM   H17F 9972   6.969   3.182   8.500 -0.3029 -0.2158  0.3775
   99OSM   H17G 9973   6.912   3.351   8.512  0.3768  0.8323  0.3772
   99OSM   C18F 9974   6.747   3.206   8.523 -0.3775 -0.1542  0.1336
   99OSM   H18F 9975   6.726   3.171   8.419  0.9730  2.4273 -1.0631
   99OSM   H18G 9976   6.691   3.302   8.525 -0.2942 -0.0958 -0.1761
   99OSM   H18H 9977   6.713   3.135   8.601  2.0817 -1.0268  0.4324
  100OSM      N 9978   2.374   3.391  10.800 -0.5814 -0.5134  0.4699
  100OSM    C15 9979   2.408   3.496  10.700  0.0631  0.0507  0.0611
  100OSM   H15A 9980   2.361   3.475  10.605 -0.1536 -0.3284  0.2499
  100OSM   H15B 9981   2.516   3.493  10.696  0.1324 -0.4285  1.7355
  100OSM   H15C 9982   2.372   3.591  10.738  2.0213  1.5804 -1.8149
  100OSM    C14 9983   2.425   3.256  10.751  0.0617  0.1743  0.4059
  100OSM   H14A 9984   2.386   3.227  10.655  2.2307 -2.9966  0.3894
  100OSM   H14B 9985   2.414   3.179  10.826  0.4243  1.4926  1.8379
  100OSM   H14C 9986   2.531   3.261  10.731 -0.2039  2.8516 -0.5357
  100OSM    C13 9987   2.438   3.413  10.932  0.3882 -0.0880  0.1107
  100OSM   H13A 9988   2.397   3.504  10.975 -2.0833 -1.0908 -0.0433
  100OSM   H13B 9989   2.546   3.407  10.930  0.2163 -3.7360 -1.7088
  100OSM   H13C 9990   2.406   3.348  11.011 -0.5234 -0.3168 -0.4415
  100OSM    C12 9991   2.218   3.379  10.814 -0.1253 -0.0795  0.2415
  100OSM   H12A 9992   2.201   3.283  10.860 -1.7536 -0.7221 -1.6030
  100OSM   H12B 9993   2.171   3.367  10.717 -0.0538  0.3637  0.1537
  100OSM    C11 9994   2.141   3.485  10.893 -0.1029  0.2606  0.0853
  100OSM   H11A 9995   2.168   3.485  11.001 -2.9895  2.3036  0.8667
  100OSM   H11B 9996   2.033   3.459  10.891 -0.0607  0.1601 -2.7549
  100OSM      P 9997   2.112   3.684  10.734 -0.1063 -0.2241 -0.3677
  100OSM    O13 9998   1.971   3.732  10.756 -0.5117 -0.2048 -0.0327
  100OSM    O14 9999   2.216   3.782  10.691 -0.1021 -0.3193 -0.3936
  100OSM    O1110000   2.127   3.566  10.632  0.5311 -0.2455 -0.5377
  100OSM    O1210001   2.172   3.615  10.863  0.3072  0.7008 -0.3568
  100OSM    C1S10002   2.032   3.532  10.538  0.4834 -0.4248 -0.9023
  100OSM    H1S10003   1.931   3.554  10.579  0.1929  1.0043 -2.3156
  100OSM    H1T10004   2.047   3.423  10.526 -0.5394 -0.6888  0.1099
  100OSM     NF10005   1.947   3.522  10.312  0.1996 -0.0505  0.2841
  100OSM    HNF10006   1.998   3.445  10.273  0.8102 -1.1518  3.1245
  100OSM    C2S10007   2.030   3.598  10.402  0.1308 -0.1099 -0.1787
  100OSM    H2S10008   1.983   3.698  10.414 -1.2018 -0.7364 -0.1292
  100OSM    C3S10009   2.173   3.622  10.347 -0.3070  0.5180  0.6696
  100OSM    H3S10010   2.230   3.527  10.337  0.1048  0.8570 -0.3233
  100OSM     O310011   2.260   3.693  10.429 -0.0481 -0.2317  0.2005
  100OSM    HO310012   2.212   3.694  10.512 -1.3176 -0.3031 -0.5197
  100OSM    C4S10013   2.169   3.668  10.200  0.0548 -0.4666  0.2421
  100OSM    H4S10014   2.176   3.596  10.117 -2.1071  1.2714 -1.5392
  100OSM    C5S10015   2.159   3.802  10.165  0.2499 -0.0430 -0.0490
  100OSM    H5S10016   2.163   3.889  10.233 -2.8444  2.0740 -2.3766
  100OSM    C6S10017   2.167   3.852  10.017 -0.2892 -0.2968 -0.3577
  100OSM    H6S10018   2.222   3.948  10.015 -3.0576  1.3628 -0.1882
  100OSM    H6T10019   2.064   3.879   9.985 -0.8404 -1.0980  0.6788
  100OSM    C7S10020   2.243   3.766   9.917  0.2249 -0.5521  0.4115
  100OSM    H7S10021   2.178   3.676   9.911  0.2180 -0.7127  2.5119
  100OSM    H7T10022   2.347   3.745   9.951  0.4932  1.1480  0.6547
  100OSM    C8S10023   2.241   3.841   9.782  0.1347 -0.5231  0.7106
  100OSM    H8S10024   2.314   3.925   9.789  2.3040 -2.2609 -0.4255
  100OSM    H8T10025   2.149   3.902   9.772  0.9844  0.7669  0.6443
  100OSM    C9S10026   2.271   3.757   9.664  0.7636 -0.1806  0.2820
  100OSM    H9S10027   2.209   3.670   9.696  0.8497 -0.9192 -1.5084
  100OSM    H9T10028   2.378   3.726   9.657  1.2583  1.3399  0.8933
  100OSM   C10S10029   2.221   3.828   9.538  0.0791 -0.4336  0.3553
  100OSM   H10S10030   2.269   3.927   9.523  0.1192 -0.2452  1.7239
  100OSM   H10T10031   2.112   3.849   9.542  0.3151  1.6442 -2.5806
  100OSM   C11S10032   2.253   3.745   9.409 -0.1720 -0.2503 -0.0212
  100OSM   H11S10033   2.221   3.640   9.428  0.9709 -0.8352 -1.2576
  100OSM   H11T10034   2.363   3.754   9.391 -0.4037 -1.0297 -1.9193
  100OSM   C12S10035   2.174   3.813   9.289  0.5069  0.0044 -0.2515
  100OSM   H12S10036   2.202   3.920   9.288  1.2332 -0.1527  1.2018
  100OSM   H12T10037   2.068   3.787   9.308  1.0493 -1.7302  0.5568
  100OSM   C13S10038   2.224   3.755   9.155  0.1301  0.0747 -0.0423
  100OSM   H13S10039   2.332   3.775   9.166  0.4123 -0.4543 -1.7147
  100OSM   H13T10040   2.190   3.823   9.074  0.3289  0.3111  0.0734
  100OSM   C14S10041   2.184   3.608   9.120  0.5985  0.5316  0.5253
  100OSM   H14S10042   2.074   3.610   9.102  0.6434  0.5293  0.2486
  100OSM   H14T10043   2.193   3.546   9.212 -0.6048 -0.6008 -0.0998
  100OSM   C15S10044   2.265   3.553   8.996 -0.3294 -0.0650  0.6267
  100OSM   H15S10045   2.206   3.460   8.982 -1.0560  0.5202 -0.2556
  100OSM   H15T10046   2.364   3.531   9.042 -0.7259  0.1100  1.5980
  100OSM   C16S10047   2.253   3.646   8.873  0.3058  0.8180  0.4046
  100OSM   H16S10048   2.299   3.608   8.780  1.8321  0.9325  1.0952
  100OSM   H16T10049   2.300   3.744   8.897  0.4862  0.8227  0.0215
  100OSM   C17S10050   2.109   3.696   8.830 -1.0283  0.3990  0.6008
  100OSM   H17S10051   2.070   3.768   8.905 -1.2306  0.6198  0.2890
  100OSM   H17T10052   2.037   3.613   8.814 -1.0227  0.0995  2.0760
  100OSM   C18S10053   2.117   3.792   8.710 -0.3895  0.7544  0.3144
  100OSM   H18S10054   2.198   3.868   8.711 -0.2634  0.6533 -0.8616
  100OSM   H18T10055   2.018   3.837   8.686  0.7830  3.8047  0.8887
  100OSM   H18U10056   2.144   3.726   8.625 -0.6734 -0.6940  1.3279
  100OSM    C1F10057   1.814   3.523  10.317 -0.2331  0.3556  0.1657
  100OSM     OF10058   1.754   3.588  10.407  0.5329  0.1086 -0.2147
  100OSM    C2F10059   1.733   3.428  10.224 -0.2848 -0.1710 -0.3247
  100OSM    H2F10060   1.670   3.361  10.287 -0.5199 -0.3506 -0.7509
  100OSM    H2G10061   1.815   3.373  10.173  1.0922 -0.7986  2.4477
  100OSM    C3F10062   1.629   3.502  10.136 -0.1206  0.3821 -0.6797
  100OSM    H3F10063   1.564   3.564  10.201  1.6147  0.4367  1.0603
  100OSM    H3G10064   1.566   3.428  10.083 -1.3427  0.8238  0.1403
  100OSM    C4F10065   1.696   3.595  10.031 -0.1554  0.3955 -0.5222
  100OSM    H4F10066   1.792   3.641  10.063  0.0757 -1.0184  0.8514
  100OSM    H4G10067   1.622   3.671   9.999  0.1394  0.5346 -0.8866
  100OSM    C5F10068   1.737   3.513   9.905 -0.2176 -0.1419 -0.1211
  100OSM    H5F10069   1.656   3.443   9.874 -0.0104 -0.1298 -0.7000
  100OSM    H5G10070   1.808   3.436   9.940  0.7748 -0.6720 -3.1460
  100OSM    C6F10071   1.787   3.597   9.793  0.3932 -0.1566  0.6448
  100OSM    H6F10072   1.855   3.676   9.831  0.4674  0.5021 -0.8094
  100OSM    H6G10073   1.710   3.667   9.754  0.1560 -0.5801  0.3609
  100OSM    C7F10074   1.838   3.523   9.671  0.7485 -0.3998 -0.0939
  100OSM    H7F10075   1.772   3.447   9.622  1.5717 -0.7124 -0.7245
  100OSM    H7G10076   1.925   3.462   9.701  0.4271 -1.5124 -1.3422
  100OSM    C8F10077   1.884   3.621   9.563  0.3016  0.1825 -0.2358
  100OSM    H8F10078   1.971   3.668   9.613 -2.0046  2.5122  1.7759
  100OSM    H8G10079   1.806   3.696   9.538  0.3187  1.4781  3.3119
  100OSM    C9F10080   1.939   3.558   9.440 -0.1476  0.6032  0.2970
  100OSM    H9F10081   2.028   3.495   9.450 -1.1848 -1.0537 -0.7289
  100OSM   C10F10082   1.894   3.573   9.316  1.3639  0.5785  0.7282
  100OSM   H10F10083   1.946   3.516   9.236 -1.2817  0.4733 -0.9722
  100OSM   C11F10084   1.779   3.658   9.265 -1.1273  0.3019 -0.6267
  100OSM   H11F10085   1.760   3.747   9.329  0.9032 -0.6929  1.4462
  100OSM   H11G10086   1.691   3.590   9.262 -1.3885  0.3315  3.6350
  100OSM   C12F10087   1.816   3.718   9.124  0.0391  0.2008 -1.5113
  100OSM   H12F10088   1.819   3.637   9.048 -0.3160 -0.0945 -1.2148
  100OSM   H12G10089   1.912   3.772   9.140  0.0474 -0.5323  1.2083
  100OSM   C13F10090   1.711   3.821   9.071 -0.0558  0.4928 -0.4159
  100OSM   H13F10091   1.678   3.896   9.146  0.3858  2.8234 -2.4811
  100OSM   H13G10092   1.618   3.769   9.041  1.5361 -2.1572 -0.8687
  100OSM   C14F10093   1.746   3.864   8.934  0.1852 -0.9381 -0.3965
  100OSM   H14F10094   1.717   3.786   8.860 -1.6209 -2.8771  2.2738
  100OSM   H14G10095   1.857   3.858   8.925  0.2467  2.3055 -2.8768
  100OSM   C15F10096   1.698   4.000   8.900  0.1586  0.7189 -0.1470
  100OSM   H15F10097   1.707   4.070   8.986 -0.4533 -1.7522  1.9940
  100OSM   H15G10098   1.592   3.998   8.870 -0.5412  1.6666  2.1386
  100OSM   C16F10099   1.791   4.064   8.793 -0.2740  0.3330  0.6412
  100OSM   H16F10100   1.821   3.986   8.719  2.0085  0.5370  1.3291
  100OSM   H16G10101   1.881   4.098   8.847  0.7051 -2.2909  0.7478
  100OSM   C17F10102   1.730   4.180   8.721 -0.7477  0.0568 -0.2096
  100OSM   H17F10103   1.639   4.139   8.672 -0.5510  1.2927 -1.6526
  100OSM   H17G10104   1.806   4.225   8.653 -0.7806 -2.8770 -2.2881
  100OSM   C18F10105   1.674   4.291   8.815 -0.3429  0.1332 -0.6391
  100OSM   H18F10106   1.748   4.314   8.895  0.0638 -1.2427 -0.6042
  100OSM   H18G10107   1.596   4.240   8.875  1.8506 -0.5355  1.7431
  100OSM   H18H10108   1.637   4.384   8.766  0.8656  1.7126  1.3757
  101OSM      N10109   3.790   4.357  10.973  0.1346 -0.3337  0.5551
  101OSM    C1510110   3.634   4.358  10.976  0.1907  0.8001  0.3956
  101OSM   H15A10111   3.591   4.423  11.052 -0.3951 -0.3477  1.0574
  101OSM   H15B10112   3.597   4.260  11.003  2.1625 -0.4064 -1.1959
  101OSM   H15C10113   3.589   4.388  10.883 -1.1753 -1.7142  0.2192
  101OSM    C1410114   3.831   4.502  10.982 -0.5540  0.5660  0.1967
  101OSM   H14A10115   3.788   4.544  11.072 -2.6282  1.2275 -1.0651
  101OSM   H14B10116   3.789   4.550  10.894 -0.6823 -2.1442 -1.2632
  101OSM   H14C10117   3.939   4.509  10.980 -0.4402 -1.0897 -0.4136
  101OSM    C1310118   3.836   4.296  11.102  0.6518  0.3651 -0.0477
  101OSM   H13A10119   3.804   4.355  11.186  0.3806 -0.2357  0.2780
  101OSM   H13B10120   3.943   4.281  11.107  0.1228 -3.5724  1.3604
  101OSM   H13C10121   3.799   4.196  11.121  2.5130 -0.3153  0.0729
  101OSM    C1210122   3.854   4.289  10.856 -0.2502 -0.6147  0.3345
  101OSM   H12A10123   3.961   4.302  10.857 -0.2540 -0.5401 -0.0016
  101OSM   H12B10124   3.820   4.335  10.764 -1.6339  1.6707  1.9444
  101OSM    C1110125   3.832   4.134  10.838 -0.8243 -0.6490  0.7078
  101OSM   H11A10126   3.837   4.104  10.731  1.8093  0.8050  0.3816
  101OSM   H11B10127   3.730   4.115  10.879 -0.9629  0.5770  0.9614
  101OSM      P10128   3.928   3.901  10.889  0.1206 -0.1213 -0.1346
  101OSM    O1310129   3.974   3.833  11.010 -0.3244  0.9090 -0.4324
  101OSM    O1410130   3.798   3.859  10.831  0.4022 -0.8902 -0.1330
  101OSM    O1110131   4.049   3.887  10.790 -0.3974  0.0063 -0.0754
  101OSM    O1210132   3.937   4.059  10.909  0.0174 -0.5157 -0.3970
  101OSM    C1S10133   4.060   3.937  10.664 -0.1594 -0.7703  0.9374
  101OSM    H1S10134   4.108   4.037  10.671  0.1649 -0.7431 -1.2278
  101OSM    H1T10135   3.959   3.942  10.618 -0.0774 -1.8949  0.6141
  101OSM     NF10136   4.173   3.904  10.442 -0.1616  0.2688 -0.5690
  101OSM    HNF10137   4.113   3.871  10.369 -1.4749  0.1973  0.5413
  101OSM    C2S10138   4.161   3.846  10.569 -0.7887  0.1864 -0.4002
  101OSM    H2S10139   4.256   3.848  10.627 -1.0699 -0.3971  0.0937
  101OSM    C3S10140   4.096   3.700  10.567  0.2625  0.2783 -0.3885
  101OSM    H3S10141   3.990   3.708  10.534 -0.2090 -0.1090  1.0032
  101OSM     O310142   4.075   3.641  10.693  0.2183  0.0854  0.1937
  101OSM    HO310143   4.091   3.708  10.760  1.1319  0.9301 -0.8604
  101OSM    C4S10144   4.167   3.605  10.478  0.8705  0.2862  0.5456
  101OSM    H4S10145   4.139   3.611  10.372 -2.3231 -1.4902  1.2139
  101OSM    C5S10146   4.257   3.507  10.509 -0.8439  0.2515 -1.5106
  101OSM    H5S10147   4.284   3.494  10.615  1.4258 -0.3362 -2.1292
  101OSM    C6S10148   4.337   3.411  10.420  0.4721  0.2146  0.6728
  101OSM    H6S10149   4.308   3.308  10.449  1.8570 -1.7578 -4.3887
  101OSM    H6T10150   4.444   3.421  10.448  0.2700  2.2446  0.8274
  101OSM    C7S10151   4.339   3.419  10.267 -0.9847 -0.5282 -0.0156
  101OSM    H7S10152   4.234   3.426  10.232 -1.1313 -2.6569 -0.0508
  101OSM    H7T10153   4.384   3.326  10.228  1.5590  0.3955  0.6285
  101OSM    C8S10154   4.415   3.540  10.217 -0.1740  0.9846  0.5889
  101OSM    H8S10155   4.519   3.546  10.254  0.5211  0.9499 -1.2709
  101OSM    H8T10156   4.368   3.633  10.255 -3.8281 -1.1191  1.4542
  101OSM    C9S10157   4.411   3.542  10.066  0.1102  0.3144 -0.0669
  101OSM    H9S10158   4.305   3.558  10.035 -0.1214  0.2399  0.6847
  101OSM    H9T10159   4.425   3.443  10.018  1.6134  0.5663 -0.1715
  101OSM   C10S10160   4.514   3.644  10.009  0.5205  0.6593 -0.2157
  101OSM   H10S10161   4.615   3.610  10.040 -0.5522 -3.3590 -0.8368
  101OSM   H10T10162   4.492   3.746  10.047  1.3677  0.6248  0.3814
  101OSM   C11S10163   4.499   3.638   9.856  0.2895 -0.7984  0.7844
  101OSM   H11S10164   4.427   3.716   9.821 -0.1007 -1.7412 -0.5462
  101OSM   H11T10165   4.463   3.542   9.814  0.7317 -0.1626 -1.0816
  101OSM   C12S10166   4.635   3.662   9.791  0.2734 -0.3715 -0.2463
  101OSM   H12S10167   4.702   3.574   9.808 -0.1286 -0.6432 -0.0537
  101OSM   H12T10168   4.683   3.749   9.839  0.7399 -0.5931 -0.3034
  101OSM   C13S10169   4.631   3.687   9.639  1.2562  0.1146 -0.1827
  101OSM   H13S10170   4.561   3.770   9.617 -0.3834 -1.5289 -1.3200
  101OSM   H13T10171   4.584   3.600   9.587  1.7448 -0.9928  1.1883
  101OSM   C14S10172   4.760   3.742   9.573 -0.5034  0.2292 -0.2867
  101OSM   H14S10173   4.817   3.647   9.558  0.2951  0.2899  2.1654
  101OSM   H14T10174   4.813   3.814   9.638 -1.1688  0.7520 -0.3256
  101OSM   C15S10175   4.729   3.819   9.443  0.5802  0.4182 -0.1475
  101OSM   H15S10176   4.668   3.910   9.457 -1.2632 -0.5986 -1.4082
  101OSM   H15T10177   4.659   3.752   9.389 -0.1924 -0.1871  1.5707
  101OSM   C16S10178   4.853   3.839   9.355  0.2333 -0.1775 -0.0351
  101OSM   H16S10179   4.908   3.743   9.345 -2.2413 -1.7305  0.8760
  101OSM   H16T10180   4.902   3.921   9.413 -0.4309 -0.0288  0.3209
  101OSM   C17S10181   4.809   3.885   9.211 -0.4053  0.1464  0.6206
  101OSM   H17S10182   4.753   3.981   9.207  1.0276  0.9172 -1.5783
  101OSM   H17T10183   4.753   3.804   9.161  2.9010 -1.1083 -1.2324
  101OSM   C18S10184   4.932   3.898   9.117 -0.2141  0.1590 -0.6413
  101OSM   H18S10185   4.907   3.939   9.017  0.7265  0.8150 -0.6066
  101OSM   H18T10186   4.998   3.808   9.115  2.2614  1.9164 -0.1134
  101OSM   H18U10187   4.988   3.985   9.157  0.0285 -0.0091 -0.6094
  101OSM    C1F10188   4.252   4.005  10.417  0.0648  0.4421  0.2288
  101OSM     OF10189   4.290   4.079  10.505  0.8480 -0.1510  0.1572
  101OSM    C2F10190   4.275   4.034  10.277 -0.3380  0.0801  0.2504
  101OSM    H2F10191   4.186   4.081  10.229  0.1197  0.8755  0.1743
  101OSM    H2G10192   4.288   3.944  10.213  2.0364 -0.1558  1.0093
  101OSM    C3F10193   4.399   4.123  10.253  0.5402 -0.3653  0.1372
  101OSM    H3F10194   4.486   4.066  10.291 -0.0187  1.9697  5.3496
  101OSM    H3G10195   4.402   4.210  10.323 -0.0508  0.3669 -0.7294
  101OSM    C4F10196   4.429   4.175  10.118 -0.3784 -0.2353  0.7161
  101OSM    H4F10197   4.536   4.205  10.115 -0.5128  0.1071 -2.3740
  101OSM    H4G10198   4.366   4.258  10.079 -1.1556 -1.0339  0.2567
  101OSM    C5F10199   4.426   4.074  10.003 -0.1043 -0.6739 -0.5756
  101OSM    H5F10200   4.324   4.044   9.972 -0.0612  0.6674 -2.0371
  101OSM    H5G10201   4.477   3.980  10.035 -0.4315 -0.1956  1.4207
  101OSM    C6F10202   4.496   4.139   9.879  0.4608  0.6388  0.1377
  101OSM    H6F10203   4.436   4.232   9.868 -2.0941 -1.0416 -0.6776
  101OSM    H6G10204   4.598   4.171   9.908  0.3293  2.1862 -1.0488
  101OSM    C7F10205   4.483   4.053   9.756 -0.7950 -0.7598 -0.3792
  101OSM    H7F10206   4.376   4.022   9.752 -1.1301 -0.1080  2.4458
  101OSM    H7G10207   4.550   3.965   9.766  0.5388  0.3078  0.2928
  101OSM    C8F10208   4.534   4.120   9.628 -0.0589  0.2723  0.0622
  101OSM    H8F10209   4.531   4.038   9.553  0.8972  0.1134  0.1831
  101OSM    H8G10210   4.643   4.140   9.637 -0.4133  1.8362  1.0898
  101OSM    C9F10211   4.457   4.242   9.588  0.2677  0.0712 -0.3906
  101OSM    H9F10212   4.454   4.323   9.664  1.6092 -0.5958  0.3784
  101OSM   C10F10213   4.393   4.261   9.474 -0.0953 -0.3346  0.4808
  101OSM   H10F10214   4.326   4.347   9.464  1.5264  0.7426 -1.7890
  101OSM   C11F10215   4.399   4.162   9.356  0.1239  0.5936  0.1344
  101OSM   H11F10216   4.341   4.068   9.367 -1.5569  1.4519 -1.2712
  101OSM   H11G10217   4.503   4.121   9.350 -0.7118 -1.0983 -3.7681
  101OSM   C12F10218   4.351   4.231   9.225 -0.5705 -0.3052 -0.1544
  101OSM   H12F10219   4.424   4.312   9.205 -1.2740  0.6444  1.0817
  101OSM   H12G10220   4.250   4.276   9.232 -1.0256 -1.2605 -0.4368
  101OSM   C13F10221   4.358   4.149   9.089  0.0503 -0.4025 -0.4631
  101OSM   H13F10222   4.313   4.049   9.107  2.7097 -1.7064 -0.7871
  101OSM   H13G10223   4.466   4.144   9.060  0.4876 -2.1085  1.3684
  101OSM   C14F10224   4.287   4.224   8.972  0.2633 -0.4982 -0.3545
  101OSM   H14F10225   4.342   4.320   8.970  1.9003 -1.4165 -0.1955
  101OSM   H14G10226   4.181   4.240   9.002  0.6147 -1.9337  1.7866
  101OSM   C15F10227   4.301   4.152   8.833 -0.1821  0.2407  0.3068
  101OSM   H15F10228   4.235   4.063   8.846 -0.5489  0.8499  2.7704
  101OSM   H15G10229   4.406   4.122   8.813 -0.6573  0.0269 -2.0675
  101OSM   C16F10230   4.236   4.224   8.719  0.2896 -0.7745  0.3088
  101OSM   H16F10231   4.297   4.316   8.708 -0.7022 -0.1380  0.1182
  101OSM   H16G10232   4.137   4.269   8.742 -0.3481 -2.4555  0.9706
  101OSM   C17F10233   4.224   4.140   8.598  0.2642 -0.6421 -0.1450
  101OSM   H17F10234   4.327   4.117   8.561  0.5190  3.5312 -2.4482
  101OSM   H17G10235   4.180   4.206   8.519  1.3939  0.7999  0.4002
  101OSM   C18F10236   4.134   4.017   8.623  0.4309  0.0964 -0.1527
  101OSM   H18F10237   4.198   3.938   8.669  1.3258 -0.4160 -2.2360
  101OSM   H18G10238   4.091   3.974   8.530  0.1588  0.1284 -0.0411
  101OSM   H18H10239   4.047   4.043   8.688  0.0482 -1.6344  0.0466
  102OSM      N10240   6.741   5.654  10.881 -0.2239  0.1521  0.9522
  102OSM    C1510241   6.836   5.721  10.976 -0.1561  0.0369 -0.2324
  102OSM   H15A10242   6.799   5.818  11.007 -1.8550 -0.9173  0.7632
  102OSM   H15B10243   6.931   5.736  10.927  1.3572 -0.7189  2.3556
  102OSM   H15C10244   6.862   5.666  11.065  0.7041 -2.0056 -1.7115
  102OSM    C1410245   6.789   5.511  10.844  0.0821 -1.0121 -0.2675
  102OSM   H14A10246   6.885   5.511  10.794 -0.3496 -0.5542 -1.0952
  102OSM   H14B10247   6.725   5.456  10.778 -0.2558 -0.1652 -0.6561
  102OSM   H14C10248   6.789   5.459  10.939 -1.3362 -0.5321  0.0114
  102OSM    C1310249   6.617   5.640  10.957  0.7925  0.1570 -0.0257
  102OSM   H13A10250   6.638   5.585  11.047 -0.3074 -2.1606 -1.1362
  102OSM   H13B10251   6.543   5.593  10.893 -0.4029  1.6498  0.2085
  102OSM   H13C10252   6.578   5.740  10.971  1.8484  0.7003 -0.9420
  102OSM    C1210253   6.718   5.738  10.752 -0.1315  0.3922  0.7005
  102OSM   H12A10254   6.662   5.830  10.761  2.0626  1.9278 -0.6570
  102OSM   H12B10255   6.654   5.677  10.690  0.5485  0.2926  0.0805
  102OSM    C1110256   6.849   5.767  10.666 -0.0652  0.3994 -0.7443
  102OSM   H11A10257   6.819   5.792  10.562  3.0892 -1.0658 -2.0561
  102OSM   H11B10258   6.906   5.672  10.658 -0.0354  0.3043  0.4291
  102OSM      P10259   6.901   6.016  10.710 -0.1693  0.2070 -0.2224
  102OSM    O1310260   6.760   6.035  10.742 -0.5602  0.2280 -0.3380
  102OSM    O1410261   7.000   6.090  10.787 -0.1555 -0.2794 -0.1901
  102OSM    O1110262   6.927   6.037  10.556  0.4280 -0.2747 -0.0881
  102OSM    O1210263   6.935   5.863  10.732 -0.0330 -0.1350 -0.0296
  102OSM    C1S10264   7.049   5.980  10.495  0.2094 -0.6006  0.0439
  102OSM    H1S10265   7.060   5.870  10.511 -0.0915 -1.1094 -2.9845
  102OSM    H1T10266   7.137   6.048  10.499  0.9671 -1.5216 -0.8381
  102OSM     NF10267   7.149   5.926  10.271 -0.0043  0.0423 -0.0848
  102OSM    HNF10268   7.220   5.985  10.231  0.3941 -0.1012  0.4020
  102OSM    C2S10269   7.032   5.984  10.336  0.0187 -0.4242 -0.1487
  102OSM    H2S10270   6.947   5.922  10.299 -1.8056  1.4213  0.8037
  102OSM    C3S10271   7.011   6.134  10.296  0.5304 -0.3533 -0.3797
  102OSM    H3S10272   7.109   6.181  10.318  0.9741 -1.6274  0.3607
  102OSM     O310273   6.920   6.214  10.377 -0.1432  0.1819  0.2739
  102OSM    HO310274   6.918   6.149  10.448 -0.2864 -1.3358 -1.0975
  102OSM    C4S10275   6.978   6.150  10.146 -0.5621 -0.2430  0.3594
  102OSM    H4S10276   7.075   6.160  10.094 -0.2043  1.3902  1.3060
  102OSM    C5S10277   6.862   6.173  10.084  0.4001 -0.5619  0.3904
  102OSM    H5S10278   6.769   6.180  10.143  1.0090  1.7398  1.1369
  102OSM    C6S10279   6.847   6.202   9.935  0.5654  0.1339 -0.6260
  102OSM    H6S10280   6.795   6.298   9.914  1.6023  0.7235 -0.5247
  102OSM    H6T10281   6.793   6.117   9.887 -0.9939 -1.2604  3.3977
  102OSM    C7S10282   6.984   6.192   9.858 -0.6593  0.3435  0.4654
  102OSM    H7S10283   7.022   6.088   9.858  1.0930  0.9600 -1.8907
  102OSM    H7T10284   7.044   6.261   9.921  2.1318 -2.7334  1.3529
  102OSM    C8S10285   6.982   6.250   9.720 -0.3439 -1.0740  0.0671
  102OSM    H8S10286   7.082   6.246   9.672 -0.4229  0.5530 -0.2637
  102OSM    H8T10287   6.946   6.356   9.722  1.7633 -0.3373 -0.1507
  102OSM    C9S10288   6.886   6.169   9.630  0.1407 -0.2688 -0.0684
  102OSM    H9S10289   6.780   6.171   9.662 -0.0318 -1.1497 -0.5780
  102OSM    H9T10290   6.915   6.062   9.621  2.7075  0.5887 -2.9239
  102OSM   C10S10291   6.891   6.217   9.487 -0.7172  0.2279  0.2748
  102OSM   H10S10292   6.996   6.203   9.455 -0.3678 -2.8527  2.5188
  102OSM   H10T10293   6.873   6.327   9.490 -0.8776  0.1781  1.3072
  102OSM   C11S10294   6.797   6.139   9.397  0.2187  0.0661 -0.6960
  102OSM   H11S10295   6.695   6.133   9.441 -0.0743  0.6609 -1.2670
  102OSM   H11T10296   6.838   6.041   9.365 -1.2580 -1.1090  0.9886
  102OSM   C12S10297   6.773   6.221   9.262  0.3114 -0.2322 -0.3024
  102OSM   H12S10298   6.869   6.239   9.209  0.4925 -0.3981 -0.0299
  102OSM   H12T10299   6.739   6.321   9.295  0.9490 -0.3684  0.7759
  102OSM   C13S10300   6.648   6.168   9.178 -0.6478  0.0099  0.0772
  102OSM   H13S10301   6.610   6.257   9.122 -0.7046  0.8147  1.3558
  102OSM   H13T10302   6.562   6.150   9.247  0.2051 -1.0429  0.8804
  102OSM   C14S10303   6.697   6.054   9.086  0.3995 -0.2027 -0.3563
  102OSM   H14S10304   6.628   5.970   9.063 -0.9940  0.1269  2.3942
  102OSM   H14T10305   6.788   6.013   9.136 -0.4992 -0.7552  0.8514
  102OSM   C15S10306   6.747   6.102   8.942 -0.3036 -0.1416 -0.2206
  102OSM   H15S10307   6.809   6.022   8.896 -0.3619 -2.1100  2.9407
  102OSM   H15T10308   6.807   6.194   8.954 -1.2750  0.4142  0.4107
  102OSM   C16S10309   6.643   6.130   8.833  0.2868 -0.1224  0.4302
  102OSM   H16S10310   6.559   6.201   8.851  0.7348  0.4841  0.1129
  102OSM   H16T10311   6.585   6.038   8.810  0.8401  0.0976 -1.9128
  102OSM   C17S10312   6.715   6.174   8.703 -0.4147 -0.1080  0.0273
  102OSM   H17S10313   6.777   6.089   8.666 -0.5226 -0.4116  0.5300
  102OSM   H17T10314   6.794   6.246   8.732  1.3666 -1.9706 -0.0536
  102OSM   C18S10315   6.613   6.232   8.603 -0.4284  0.2493  0.3620
  102OSM   H18S10316   6.572   6.325   8.648  0.7550  1.3210 -0.7416
  102OSM   H18T10317   6.533   6.156   8.589  0.6112 -0.6023 -1.0132
  102OSM   H18U10318   6.657   6.257   8.505 -1.2039  2.8526  0.6552
  102OSM    C1F10319   7.162   5.795  10.258 -0.0753 -0.2919  0.2566
  102OSM     OF10320   7.069   5.723  10.279  0.0407 -0.9013 -0.4794
  102OSM    C2F10321   7.291   5.758  10.200  0.0796 -0.0529  0.2994
  102OSM    H2F10322   7.328   5.676  10.265 -0.8225 -0.4157  0.3495
  102OSM    H2G10323   7.362   5.841  10.221  2.7453 -1.6136 -2.1527
  102OSM    C3F10324   7.302   5.712  10.057  0.4714  0.0129  0.1965
  102OSM    H3F10325   7.238   5.622  10.051  0.3135  0.1336  0.0446
  102OSM    H3G10326   7.408   5.682  10.046 -0.3428 -1.9936 -2.4510
  102OSM    C4F10327   7.265   5.807   9.949 -1.2666  0.3112 -1.0316
  102OSM    H4F10328   7.339   5.888   9.943  1.6262 -2.1668 -0.0398
  102OSM    H4G10329   7.166   5.856   9.960  0.1955  3.0203  0.4747
  102OSM    C5F10330   7.268   5.752   9.800 -0.4656 -0.3961 -0.8694
  102OSM    H5F10331   7.200   5.665   9.785 -0.0938 -0.6575 -1.0398
  102OSM    H5G10332   7.368   5.706   9.788 -1.1778 -1.6560 -2.2273
  102OSM    C6F10333   7.247   5.870   9.702 -0.4026  1.0297 -0.1545
  102OSM    H6F10334   7.313   5.952   9.738  2.6458 -2.0113  1.4021
  102OSM    H6G10335   7.144   5.912   9.708 -0.9281 -0.2630  0.0673
  102OSM    C7F10336   7.271   5.813   9.556 -0.0265  0.1049  0.4066
  102OSM    H7F10337   7.216   5.716   9.550  0.5177 -0.1113 -1.3460
  102OSM    H7G10338   7.379   5.792   9.547 -0.3686 -1.2159 -0.8158
  102OSM    C8F10339   7.217   5.907   9.447  0.8969  0.1794  0.8543
  102OSM    H8F10340   7.256   6.004   9.486  1.6164  0.1594  0.2073
  102OSM    H8G10341   7.106   5.908   9.446  0.8728 -1.3882 -0.7935
  102OSM    C9F10342   7.274   5.879   9.309  0.4277  0.3771  0.3183
  102OSM    H9F10343   7.340   5.793   9.292 -2.1175 -1.6716  0.4597
  102OSM   C10F10344   7.247   5.937   9.188  0.2533  0.1148 -0.3857
  102OSM   H10F10345   7.299   5.909   9.095  0.8495 -3.0701  0.8514
  102OSM   C11F10346   7.140   6.040   9.173  0.3682  0.2126  0.1632
  102OSM   H11F10347   7.129   6.094   9.269 -2.7351 -0.3796  0.1700
  102OSM   H11G10348   7.047   5.980   9.169  1.6288 -1.7396 -0.5146
  102OSM   C12F10349   7.154   6.127   9.044  0.6676  0.3795 -0.0184
  102OSM   H12F10350   7.254   6.176   9.044  0.5574  0.6107 -1.2738
  102OSM   H12G10351   7.073   6.203   9.042  0.2933 -0.0493 -2.2362
  102OSM   C13F10352   7.138   6.042   8.915  0.4165  0.9913 -0.3789
  102OSM   H13F10353   7.040   5.989   8.918  1.0727 -0.2407 -0.3435
  102OSM   H13G10354   7.228   5.977   8.907 -0.8501 -0.6188 -2.2866
  102OSM   C14F10355   7.149   6.138   8.783 -0.5688  0.3462  0.4866
  102OSM   H14F10356   7.259   6.146   8.772 -0.7646 -1.0890 -3.3864
  102OSM   H14G10357   7.102   6.237   8.803 -1.5587  1.0461 -4.6046
  102OSM   C15F10358   7.085   6.083   8.654  0.2012  0.0540  0.0588
  102OSM   H15F10359   6.975   6.070   8.655  0.0328  1.2244 -1.2045
  102OSM   H15G10360   7.135   5.985   8.639  0.2140  0.1526 -0.5568
  102OSM   C16F10361   7.117   6.155   8.525 -0.1643 -1.0276 -0.3670
  102OSM   H16F10362   7.227   6.169   8.519 -0.3038  0.7620  0.9954
  102OSM   H16G10363   7.077   6.258   8.535 -1.4074 -1.5943  0.8286
  102OSM   C17F10364   7.078   6.094   8.395 -0.6469  0.1091 -0.0710
  102OSM   H17F10365   6.969   6.075   8.393 -0.7824  0.9116 -0.4384
  102OSM   H17G10366   7.129   5.997   8.378  1.6723  1.2252  0.2945
  102OSM   C18F10367   7.117   6.177   8.274  0.1991 -0.3283  0.1768
  102OSM   H18F10368   7.225   6.204   8.272 -0.3096  1.7860 -1.0798
  102OSM   H18G10369   7.060   6.272   8.278 -0.5390 -0.6940 -1.3922
  102OSM   H18H10370   7.095   6.115   8.185 -0.8216 -0.4707  0.5247
  103OSM      N10371   5.681   2.417  11.298  0.6938 -0.2236 -0.2747
  103OSM    C1510372   5.765   2.424  11.420 -0.0693  0.1400 -0.1670
  103OSM   H15A10373   5.869   2.420  11.394  0.3235 -0.2082  1.4286
  103OSM   H15B10374   5.734   2.340  11.480 -1.7327  0.7247 -0.1688
  103OSM   H15C10375   5.741   2.519  11.465  3.1812  0.1792  1.6127
  103OSM    C1410376   5.706   2.289  11.222 -0.8421  0.9190 -0.4622
  103OSM   H14A10377   5.679   2.197  11.273  2.1688 -1.3484 -2.7321
  103OSM   H14B10378   5.809   2.278  11.192 -0.7493  0.4750  0.0090
  103OSM   H14C10379   5.649   2.289  11.130  0.8552 -0.1334 -1.5398
  103OSM    C1310380   5.536   2.417  11.336  0.3978 -0.6954 -0.0412
  103OSM   H13A10381   5.512   2.513  11.380 -3.6249 -1.1695 -1.0525
  103OSM   H13B10382   5.522   2.344  11.414 -1.0931 -0.0515  0.3170
  103OSM   H13C10383   5.479   2.401  11.246 -2.3381 -0.1421  1.5641
  103OSM    C1210384   5.705   2.542  11.204  0.1656  0.0825 -0.2927
  103OSM   H12A10385   5.811   2.565  11.205  0.1800  0.1891 -2.4663
  103OSM   H12B10386   5.653   2.620  11.258 -1.4290 -1.3456  0.2685
  103OSM    C1110387   5.660   2.539  11.055 -0.0701  0.4958 -0.8186
  103OSM   H11A10388   5.671   2.642  11.015 -0.3327  0.5385 -0.7836
  103OSM   H11B10389   5.550   2.519  11.056 -0.0853  0.4951 -1.8428
  103OSM      P10390   5.676   2.377  10.855 -0.0322  0.0927 -0.2261
  103OSM    O1310391   5.778   2.314  10.774 -0.1846  0.9215 -0.0983
  103OSM    O1410392   5.582   2.286  10.921  0.5623  0.2701  0.0893
  103OSM    O1110393   5.598   2.484  10.764 -0.1679 -0.1844  0.3529
  103OSM    O1210394   5.745   2.449  10.981 -0.4459  0.0932 -0.1054
  103OSM    C1S10395   5.672   2.599  10.722  0.5674 -0.6444 -0.3199
  103OSM    H1S10396   5.781   2.585  10.739  0.7525  1.2711  0.1483
  103OSM    H1T10397   5.641   2.684  10.786  0.0475  0.1198 -1.5602
  103OSM     NF10398   5.759   2.708  10.505 -0.8487 -0.8115  0.2870
  103OSM    HNF10399   5.759   2.808  10.500  1.6814 -0.7214  1.3337
  103OSM    C2S10400   5.645   2.636  10.574 -0.8213 -0.1209 -0.1111
  103OSM    H2S10401   5.648   2.540  10.519 -0.4095  0.3460 -0.9152
  103OSM    C3S10402   5.515   2.711  10.554 -0.0661  0.2681  0.5323
  103OSM    H3S10403   5.523   2.818  10.581 -1.6967  0.6521 -0.4243
  103OSM     O310404   5.410   2.655  10.626 -0.2989 -0.1528 -0.6716
  103OSM    HO310405   5.457   2.611  10.697 -1.1213  0.8489  0.5139
  103OSM    C4S10406   5.479   2.715  10.410  0.3205  0.3624  0.6866
  103OSM    H4S10407   5.420   2.627  10.380  1.5804 -1.1032  2.3644
  103OSM    C5S10408   5.511   2.815  10.328 -0.4803 -0.3896  0.2151
  103OSM    H5S10409   5.566   2.902  10.368 -1.7383  1.4218 -1.8767
  103OSM    C6S10410   5.478   2.823  10.184  0.3348 -0.2801 -0.2627
  103OSM    H6S10411   5.384   2.880  10.168  1.4842  1.2094 -1.8405
  103OSM    H6T10412   5.457   2.720  10.149  0.3919  0.3552 -2.2506
  103OSM    C7S10413   5.585   2.871  10.083  0.4276  0.1372  0.4967
  103OSM    H7S10414   5.673   2.803  10.073 -0.4511 -1.3010  2.3494
  103OSM    H7T10415   5.628   2.971  10.107  1.0649 -0.2716  1.0654
  103OSM    C8S10416   5.542   2.866   9.939  0.3667 -0.7363 -0.2216
  103OSM    H8S10417   5.497   2.964   9.914  1.6068 -0.1281 -0.1177
  103OSM    H8T10418   5.457   2.796   9.924 -0.2639 -0.4859  2.1315
  103OSM    C9S10419   5.654   2.836   9.829 -0.0001  0.1706  0.5552
  103OSM    H9S10420   5.701   2.737   9.846  1.0581  0.3751 -1.0318
  103OSM    H9T10421   5.732   2.915   9.825  1.7084 -1.5332 -1.5167
  103OSM   C10S10422   5.595   2.826   9.686  0.5903  1.0111 -0.6166
  103OSM   H10S10423   5.558   2.927   9.660  1.5963  1.1509 -1.5823
  103OSM   H10T10424   5.504   2.763   9.676 -0.1926  2.0050  0.1284
  103OSM   C11S10425   5.697   2.775   9.579 -0.3474 -0.0995  0.2945
  103OSM   H11S10426   5.727   2.669   9.584 -0.4964 -0.2614 -1.6088
  103OSM   H11T10427   5.790   2.836   9.587  0.5255 -1.1420 -1.5737
  103OSM   C12S10428   5.652   2.819   9.440  0.5928 -0.1714  0.2010
  103OSM   H12S10429   5.646   2.928   9.421  0.4592 -0.4149 -1.2558
  103OSM   H12T10430   5.546   2.787   9.426  0.4261  0.1237  0.7908
  103OSM   C13S10431   5.741   2.753   9.333 -0.9825 -0.0291 -0.2982
  103OSM   H13S10432   5.696   2.658   9.298 -1.5451  1.2199 -3.0812
  103OSM   H13T10433   5.829   2.721   9.393 -0.7054 -0.6341 -1.0230
  103OSM   C14S10434   5.789   2.849   9.224  0.6240 -0.2886  0.7148
  103OSM   H14S10435   5.880   2.815   9.170  0.4134  3.1962 -1.9592
  103OSM   H14T10436   5.806   2.945   9.277 -0.3807 -0.7438  1.8974
  103OSM   C15S10437   5.674   2.868   9.120 -0.5915  0.4096  0.1951
  103OSM   H15S10438   5.667   2.973   9.084  0.5072  0.0824 -1.0384
  103OSM   H15T10439   5.581   2.826   9.164  0.5867  0.1665  2.5351
  103OSM   C16S10440   5.684   2.788   8.986 -0.6973  0.3054  0.6741
  103OSM   H16S10441   5.695   2.682   9.018 -0.6976  0.8106  2.3941
  103OSM   H16T10442   5.771   2.807   8.920  0.1439 -0.6508  1.4960
  103OSM   C17S10443   5.558   2.803   8.901  0.3144  0.3801  0.3339
  103OSM   H17S10444   5.529   2.906   8.870 -0.6557 -0.1394 -0.5069
  103OSM   H17T10445   5.472   2.771   8.964  1.2234  1.5668  2.2298
  103OSM   C18S10446   5.570   2.719   8.778  0.4957 -0.4265 -0.1755
  103OSM   H18S10447   5.584   2.613   8.808 -1.7049  0.0527  2.8286
  103OSM   H18T10448   5.656   2.762   8.722  1.0455 -0.6806  0.4618
  103OSM   H18U10449   5.478   2.732   8.717  0.7335  0.7840 -0.3042
  103OSM    C1F10450   5.882   2.657  10.485 -0.4081 -0.6116  0.0120
  103OSM     OF10451   5.896   2.536  10.468 -0.2720 -0.0851  0.3004
  103OSM    C2F10452   5.996   2.754  10.488 -0.2489 -0.1316 -0.5178
  103OSM    H2F10453   6.055   2.737  10.580  0.1475 -1.2689 -0.9785
  103OSM    H2G10454   5.948   2.852  10.510  2.0621  1.1983 -1.3196
  103OSM    C3F10455   6.070   2.746  10.355  0.8276 -0.0094 -0.6802
  103OSM    H3F10456   6.089   2.646  10.311 -0.7607 -0.2955 -0.7389
  103OSM    H3G10457   6.172   2.787  10.372  1.3898 -0.8758 -1.8636
  103OSM    C4F10458   5.994   2.829  10.246  0.5855  0.6344  0.3102
  103OSM    H4F10459   5.996   2.926  10.300  2.8932  0.8963 -0.2139
  103OSM    H4G10460   5.887   2.798  10.247  0.5365  0.8390  2.2988
  103OSM    C5F10461   6.046   2.813  10.103  0.7741 -0.0032 -0.3543
  103OSM    H5F10462   5.993   2.875  10.027 -0.4522 -0.4162  0.1544
  103OSM    H5G10463   6.016   2.708  10.085 -0.8179  0.4171 -0.2328
  103OSM    C6F10464   6.196   2.827  10.097 -0.5252 -0.3783 -0.2870
  103OSM    H6F10465   6.243   2.733  10.132 -0.2856 -0.4792 -0.8760
  103OSM    H6G10466   6.218   2.901  10.177 -1.5670 -2.1427  1.6852
  103OSM    C7F10467   6.260   2.873   9.969  0.0514  0.2749  0.5023
  103OSM    H7F10468   6.353   2.926  10.000  1.3686 -2.7683  1.9005
  103OSM    H7G10469   6.183   2.947   9.939 -2.1271 -1.6166  1.3397
  103OSM    C8F10470   6.261   2.767   9.865  0.5829 -0.3492  0.1323
  103OSM    H8F10471   6.154   2.739   9.854 -0.3018  2.5866  0.7331
  103OSM    H8G10472   6.301   2.675   9.912 -0.6875 -0.7968  0.3533
  103OSM    C9F10473   6.338   2.799   9.737 -0.1563  0.6261 -0.1325
  103OSM    H9F10474   6.447   2.802   9.751 -0.0451  1.7295 -1.1520
  103OSM   C10F10475   6.287   2.817   9.618 -0.3473  0.3351  0.4321
  103OSM   H10F10476   6.361   2.824   9.536  0.0904  1.0434  0.8823
  103OSM   C11F10477   6.142   2.824   9.586  0.4501  0.7743 -0.2077
  103OSM   H11F10478   6.078   2.796   9.673  0.5457 -1.1995 -0.7675
  103OSM   H11G10479   6.125   2.747   9.509 -0.5573 -1.5746  2.2646
  103OSM   C12F10480   6.088   2.949   9.513  0.0393 -0.2868  0.5936
  103OSM   H12F10481   6.072   3.030   9.587 -0.4346  0.8573 -0.7297
  103OSM   H12G10482   5.991   2.908   9.479  0.3541  1.0689 -2.0848
  103OSM   C13F10483   6.162   2.989   9.385  0.0194  0.6015  0.0720
  103OSM   H13F10484   6.176   2.889   9.338  0.1768  0.5969  0.1274
  103OSM   H13G10485   6.260   3.034   9.407 -0.6836  1.8905  0.6040
  103OSM   C14F10486   6.079   3.093   9.304 -0.2960 -0.5767 -0.3939
  103OSM   H14F10487   6.093   3.195   9.346  2.5815 -0.8323 -0.5763
  103OSM   H14G10488   5.976   3.059   9.327 -0.8384  2.3067  1.6584
  103OSM   C15F10489   6.092   3.100   9.151 -0.2485 -0.4239 -0.6033
  103OSM   H15F10490   6.021   3.177   9.115 -0.6624 -1.0619 -1.1712
  103OSM   H15G10491   6.060   2.998   9.119 -0.2593 -0.2841 -1.0442
  103OSM   C16F10492   6.226   3.137   9.096 -0.1205  0.5318  0.0469
  103OSM   H16F10493   6.229   3.140   8.985  2.8500 -0.7591  0.0215
  103OSM   H16G10494   6.300   3.062   9.133 -1.1359 -0.8595 -0.6847
  103OSM   C17F10495   6.283   3.276   9.140 -0.1338  0.0050 -0.0285
  103OSM   H17F10496   6.291   3.287   9.250 -2.0708  1.3862  0.0087
  103OSM   H17G10497   6.212   3.349   9.095  0.1758  0.6672  0.5502
  103OSM   C18F10498   6.424   3.300   9.071  0.1375  0.6010 -0.0766
  103OSM   H18F10499   6.469   3.199   9.076  0.0114  0.5253 -0.4958
  103OSM   H18G10500   6.488   3.377   9.120 -0.8859  1.1822  0.3777
  103OSM   H18H10501   6.417   3.324   8.962  0.6940 -3.7392 -1.1309
  104OSM      N10502   0.855   1.601  11.155  0.0901  0.0790 -0.4978
  104OSM    C1510503   0.966   1.651  11.244  0.7704  0.4594  0.0471
  104OSM   H15A10504   1.026   1.726  11.194  1.2404 -0.6693 -1.0955
  104OSM   H15B10505   1.024   1.568  11.281  1.5852  1.6143  1.4492
  104OSM   H15C10506   0.938   1.704  11.334 -0.5775 -0.3897  0.1328
  104OSM    C1410507   0.786   1.495  11.225 -0.1095  0.0769  0.9085
  104OSM   H14A10508   0.758   1.522  11.326 -0.0916  0.3676  0.8382
  104OSM   H14B10509   0.847   1.407  11.236  0.4682  0.4920  1.0530
  104OSM   H14C10510   0.701   1.462  11.167 -1.1265  0.9951  1.8552
  104OSM    C1310511   0.754   1.715  11.129  0.3834 -0.2532 -0.0374
  104OSM   H13A10512   0.689   1.739  11.212  1.4610 -1.1526  1.0842
  104OSM   H13B10513   0.695   1.688  11.043  0.0316 -2.6388  0.9168
  104OSM   H13C10514   0.807   1.800  11.090 -1.3315  0.6228 -0.5377
  104OSM    C1210515   0.910   1.558  11.022  0.3380  0.6904 -0.2181
  104OSM   H12A10516   0.969   1.470  11.042  1.4651  1.6361  0.7088
  104OSM   H12B10517   0.977   1.626  10.973  0.8028  0.7668  0.5096
  104OSM    C1110518   0.809   1.520  10.903  0.1233  0.0159 -0.5073
  104OSM   H11A10519   0.728   1.453  10.937 -1.8951  1.9786 -1.3482
  104OSM   H11B10520   0.870   1.463  10.830 -0.9895 -1.0017 -0.6441
  104OSM      P10521   0.843   1.743  10.774 -0.3495 -0.0073 -0.3730
  104OSM    O1310522   0.768   1.869  10.765 -0.3528  0.4301  0.6064
  104OSM    O1410523   0.981   1.760  10.831 -0.2719 -0.4719 -0.2293
  104OSM    O1110524   0.849   1.672  10.630  0.1053  0.7071  0.5256
  104OSM    O1210525   0.749   1.645  10.854  0.6854  0.5632  0.5751
  104OSM    C1S10526   0.737   1.641  10.556  0.2903  0.0362 -0.4844
  104OSM    H1S10527   0.642   1.678  10.600  1.1915  0.5744  1.0598
  104OSM    H1T10528   0.737   1.532  10.533 -0.9214  0.0184 -0.4416
  104OSM     NF10529   0.616   1.690  10.337 -0.4529 -0.1285 -0.1817
  104OSM    HNF10530   0.609   1.621  10.265  1.9966 -1.2597  0.5943
  104OSM    C2S10531   0.750   1.695  10.405 -0.0803 -0.0222 -0.2733
  104OSM    H2S10532   0.767   1.803  10.424 -3.4958  0.2044  1.7837
  104OSM    C3S10533   0.871   1.626  10.333 -0.4815 -0.3529  0.7335
  104OSM    H3S10534   0.845   1.520  10.311 -0.6547 -0.3519  0.9386
  104OSM     O310535   0.989   1.623  10.411 -0.6961 -0.0187  0.1772
  104OSM    HO310536   0.951   1.653  10.494 -0.7055  2.8374 -0.7978
  104OSM    C4S10537   0.907   1.689  10.206  0.8861  0.1949 -0.5173
  104OSM    H4S10538   0.899   1.626  10.116  0.5821  2.1193 -1.8675
  104OSM    C5S10539   0.963   1.817  10.189  0.1006 -0.6203  0.3205
  104OSM    H5S10540   0.981   1.879  10.279 -0.4149 -0.0641  0.0396
  104OSM    C6S10541   1.004   1.879  10.058  0.3505  0.4933  0.0588
  104OSM    H6S10542   1.115   1.878  10.050  0.4026  1.1175  0.6078
  104OSM    H6T10543   0.970   1.984  10.048 -3.3210 -0.7469 -1.1933
  104OSM    C7S10544   0.975   1.807   9.922 -0.1608  0.2302  0.8585
  104OSM    H7S10545   0.866   1.804   9.901 -0.1287  2.0879  0.3621
  104OSM    H7T10546   1.003   1.699   9.923  3.7746  1.1667 -0.5268
  104OSM    C8S10547   1.015   1.891   9.798  0.0226 -0.3534  0.1711
  104OSM    H8S10548   1.122   1.922   9.790 -0.5081  1.1504 -1.2730
  104OSM    H8T10549   0.966   1.991   9.805 -1.1595 -0.7593 -2.0731
  104OSM    C9S10550   0.970   1.826   9.665 -0.1798 -0.3461 -0.7083
  104OSM    H9S10551   0.867   1.784   9.674 -0.1509  0.4670  5.2450
  104OSM    H9T10552   1.034   1.735   9.668  0.8971  0.4773  1.3628
  104OSM   C10S10553   1.017   1.899   9.538  0.6719  0.5980  0.0380
  104OSM   H10S10554   1.123   1.931   9.552  0.1964  2.8679 -1.2602
  104OSM   H10T10555   0.954   1.988   9.516  1.8308  1.4779  0.1840
  104OSM   C11S10556   1.015   1.804   9.418  0.0850  0.5952 -0.6697
  104OSM   H11S10557   0.916   1.797   9.367  0.5312 -0.1641 -1.4643
  104OSM   H11T10558   1.051   1.704   9.450 -1.3891 -0.0634 -1.0160
  104OSM   C12S10559   1.102   1.851   9.306  0.5681 -0.4444  0.7457
  104OSM   H12S10560   1.105   1.769   9.230 -1.7877 -0.2953  0.4794
  104OSM   H12T10561   1.207   1.872   9.335  0.7671  2.8616 -2.0774
  104OSM   C13S10562   1.055   1.976   9.228  0.0278 -0.1577  0.1820
  104OSM   H13S10563   1.139   2.020   9.170 -0.3334 -1.4233 -1.3253
  104OSM   H13T10564   1.017   2.053   9.299  0.9049  0.1112  0.3604
  104OSM   C14S10565   0.953   1.956   9.117  0.3046  0.3072 -0.4970
  104OSM   H14S10566   0.852   1.918   9.143  0.7521 -0.0589  0.7704
  104OSM   H14T10567   0.996   1.882   9.047  0.7470 -0.4954  0.6052
  104OSM   C15S10568   0.934   2.083   9.029 -0.2977 -0.3047 -0.2473
  104OSM   H15S10569   0.927   2.050   8.923  0.7002 -2.2744  0.2767
  104OSM   H15T10570   1.014   2.158   9.046  0.2045 -0.6138 -1.2293
  104OSM   C16S10571   0.803   2.160   9.063 -0.3978 -0.0603  0.3922
  104OSM   H16S10572   0.787   2.160   9.173  2.8697  1.1609  0.9217
  104OSM   H16T10573   0.730   2.100   9.005  0.7605 -0.3385 -0.7937
  104OSM   C17S10574   0.807   2.305   9.012  0.4324  0.3443  0.3846
  104OSM   H17S10575   0.706   2.341   9.041 -0.3206 -1.2370 -0.1878
  104OSM   H17T10576   0.820   2.298   8.902 -0.8024 -3.4990  0.4037
  104OSM   C18S10577   0.913   2.395   9.066 -0.6088 -0.4919 -0.0488
  104OSM   H18S10578   0.930   2.374   9.174  1.7794 -1.4739 -0.5989
  104OSM   H18T10579   0.884   2.502   9.060 -0.5338 -0.4615  0.1135
  104OSM   H18U10580   1.015   2.376   9.026  0.4727  2.2829  1.2320
  104OSM    C1F10581   0.514   1.770  10.352  0.7323 -0.3549  0.1160
  104OSM     OF10582   0.517   1.867  10.426 -0.2901 -1.0413 -0.6982
  104OSM    C2F10583   0.402   1.744  10.263 -0.8665  0.3927  0.8971
  104OSM    H2F10584   0.364   1.641  10.280  1.3567 -0.6750 -0.3713
  104OSM    H2G10585   0.446   1.743  10.161 -3.3587 -1.7162 -0.2027
  104OSM    C3F10586   0.284   1.828  10.292  0.3344  0.1094  0.3476
  104OSM    H3F10587   0.308   1.937  10.285 -2.3305  0.7976  1.1875
  104OSM    H3G10588   0.238   1.809  10.391 -0.8406  1.6596  0.1268
  104OSM    C4F10589   0.175   1.815  10.191  0.4400 -0.2485 -0.4763
  104OSM    H4F10590   0.104   1.897  10.211  0.5978  0.1540 -1.5789
  104OSM    H4G10591   0.112   1.724  10.202  0.9630 -1.0319 -3.5651
  104OSM    C5F10592   0.233   1.839  10.053 -0.1542  0.9049  0.0130
  104OSM    H5F10593   0.305   1.761  10.022 -0.8393  0.7009 -1.0835
  104OSM    H5G10594   0.264   1.945  10.042 -2.2362  1.3400 -2.0725
  104OSM    C6F10595   0.126   1.816   9.944  0.7737 -0.6267 -0.8740
  104OSM    H6F10596   0.093   1.710   9.945 -0.0147 -0.3863  0.1848
  104OSM    H6G10597   0.177   1.838   9.848 -1.0947  0.3186 -1.6739
  104OSM    C7F10598  -0.001   1.897   9.971 -0.0264  0.4307 -0.2787
  104OSM    H7F10599   0.007   1.970  10.055 -2.6717  2.0586 -1.4038
  104OSM    H7G10600  -0.076   1.822  10.004  1.3351 -0.0208  1.9280
  104OSM    C8F10601  -0.051   1.983   9.852  0.3367 -0.4753 -0.3449
  104OSM    H8F10602  -0.118   2.051   9.909 -1.3401 -0.5382 -2.1961
  104OSM    H8G10603  -0.108   1.913   9.787  0.3425 -0.2275 -0.6145
  104OSM    C9F10604   0.049   2.071   9.779 -0.3221 -0.0051 -0.2032
  104OSM    H9F10605   0.141   2.094   9.834  0.1534  2.1939 -1.8351
  104OSM   C10F10606   0.050   2.098   9.648 -0.0312 -0.4699  0.1383
  104OSM   H10F10607   0.128   2.164   9.608  1.0102 -1.3256  0.7120
  104OSM   C11F10608  -0.049   2.046   9.545 -0.0718 -0.1237  0.1592
  104OSM   H11F10609  -0.127   2.125   9.533  3.3835  3.4348  0.0673
  104OSM   H11G10610  -0.098   1.952   9.577 -0.8322  0.3019  0.2767
  104OSM   C12F10611   0.011   2.020   9.405 -0.0864  0.3430  0.4002
  104OSM   H12F10612  -0.057   1.962   9.338 -1.8298  2.6288  0.1214
  104OSM   H12G10613   0.096   1.950   9.416 -2.0676 -2.3067 -0.5610
  104OSM   C13F10614   0.052   2.151   9.326 -0.4899  0.6127 -0.5267
  104OSM   H13F10615   0.125   2.218   9.376  0.0640  0.1839 -0.7573
  104OSM   H13G10616  -0.039   2.214   9.336 -2.0067 -1.4920 -0.7338
  104OSM   C14F10617   0.091   2.123   9.180  0.2180 -0.5241  0.4395
  104OSM   H14F10618   0.184   2.062   9.182  0.1793 -0.6486 -1.2592
  104OSM   H14G10619   0.118   2.224   9.144 -1.8524  0.0368  0.4396
  104OSM   C15F10620  -0.009   2.051   9.090 -0.1107  0.7224 -0.8025
  104OSM   H15F10621  -0.103   2.111   9.088 -1.9350 -1.9084  1.4489
  104OSM   H15G10622  -0.015   1.953   9.142 -1.2360  1.4633  0.4818
  104OSM   C16F10623   0.037   2.016   8.951  0.3946  0.0051 -0.2862
  104OSM   H16F10624   0.136   1.966   8.949 -0.0021 -0.8908  0.9593
  104OSM   H16G10625   0.054   2.107   8.890 -1.2869  1.1529  0.8971
  104OSM   C17F10626  -0.061   1.929   8.874  0.3458 -0.1722 -0.0522
  104OSM   H17F10627  -0.162   1.962   8.903  1.5504  2.7445  1.0221
  104OSM   H17G10628  -0.049   1.823   8.907 -2.1273 -0.0678  1.3156
  104OSM   C18F10629  -0.059   1.933   8.724 -0.3751  0.1207  0.3694
  104OSM   H18F10630  -0.059   2.040   8.695  0.5315 -0.3346 -1.3760
  104OSM   H18G10631  -0.148   1.883   8.680  0.0972  0.3507 -0.8831
  104OSM   H18H10632   0.032   1.889   8.676  0.5428  0.1954  2.0086
  105OSM      N10633   3.685   5.027  11.227 -0.3668 -0.1367  0.2251
  105OSM    C1510634   3.742   5.122  11.333  0.1944 -0.0484  0.2741
  105OSM   H15A10635   3.679   5.210  11.338 -0.0921 -0.3541  2.7216
  105OSM   H15B10636   3.843   5.155  11.312 -0.0874  1.8430  1.7301
  105OSM   H15C10637   3.741   5.071  11.428 -1.4346 -1.7480 -0.6369
  105OSM    C1410638   3.741   4.886  11.241 -0.9782  0.2270  0.2074
  105OSM   H14A10639   3.712   4.822  11.160  2.8349 -0.9987 -0.3024
  105OSM   H14B10640   3.696   4.836  11.325 -1.8112 -1.2233 -1.0737
  105OSM   H14C10641   3.849   4.885  11.246 -0.9846 -2.5060  0.1818
  105OSM    C1310642   3.541   5.009  11.242  0.4423 -0.5919  0.7201
  105OSM   H13A10643   3.498   5.107  11.259 -2.7620 -1.5280 -1.4920
  105OSM   H13B10644   3.503   4.949  11.323 -1.0095 -0.8199 -0.1141
  105OSM   H13C10645   3.496   4.975  11.150  1.3638  0.6587 -0.2065
  105OSM    C1210646   3.713   5.076  11.083 -0.7126  0.4244  0.1080
  105OSM   H12A10647   3.816   5.107  11.074 -0.9589  1.2682  0.0671
  105OSM   H12B10648   3.667   5.174  11.077  0.3160  0.8314 -1.4862
  105OSM    C1110649   3.680   4.984  10.965 -0.4702 -0.5246  0.1332
  105OSM   H11A10650   3.685   5.025  10.862 -1.2495  1.9972  1.0504
  105OSM   H11B10651   3.574   4.952  10.966 -0.2975 -1.2713 -2.6581
  105OSM      P10652   3.915   4.857  10.956 -0.2214  0.3044 -0.0136
  105OSM    O1310653   3.979   4.986  10.930 -0.0259 -0.1719 -0.6767
  105OSM    O1410654   3.951   4.798  11.087 -0.9141  0.8933 -0.5380
  105OSM    O1110655   3.935   4.760  10.841  0.2206 -0.1751  1.3767
  105OSM    O1210656   3.764   4.873  10.956  0.0549  0.4012 -0.4638
  105OSM    C1S10657   3.853   4.768  10.723 -0.2225 -0.4508 -0.3465
  105OSM    H1S10658   3.839   4.876  10.701 -3.3715 -0.3697  1.7690
  105OSM    H1T10659   3.750   4.733  10.742 -0.7751  1.4707  0.3849
  105OSM     NF10660   3.828   4.706  10.487 -0.0495 -0.4955 -0.7078
  105OSM    HNF10661   3.759   4.638  10.464 -0.8108 -0.6149  1.7273
  105OSM    C2S10662   3.913   4.686  10.602 -0.0533 -0.5243  0.0273
  105OSM    H2S10663   4.008   4.740  10.581 -0.1239 -0.7182 -0.7922
  105OSM    C3S10664   3.945   4.544  10.638  0.4998  0.4404  0.2320
  105OSM    H3S10665   3.852   4.490  10.669 -0.6865  1.0903 -2.0633
  105OSM     O310666   4.044   4.526  10.743 -0.0041 -0.4401 -0.0350
  105OSM    HO310667   4.058   4.609  10.790  1.8882  0.0313 -1.3643
  105OSM    C4S10668   4.005   4.478  10.522  0.4717  0.2261 -0.0478
  105OSM    H4S10669   4.108   4.509  10.499  0.0290  1.9038  0.1531
  105OSM    C5S10670   3.949   4.374  10.462 -0.0247  0.6434  0.9513
  105OSM    H5S10671   3.847   4.350  10.495 -0.5135  0.7511 -0.4199
  105OSM    C6S10672   3.991   4.296  10.342 -0.4718 -0.6854  0.5174
  105OSM    H6S10673   3.975   4.187  10.353  0.1862 -0.7611  0.7873
  105OSM    H6T10674   4.097   4.308  10.312 -0.8553 -0.8234 -0.9237
  105OSM    C7S10675   3.903   4.349  10.229 -0.2803 -0.2063 -0.0802
  105OSM    H7S10676   3.914   4.458  10.209 -0.0238 -0.2263 -0.0495
  105OSM    H7T10677   3.797   4.334  10.259 -0.6822  1.2036 -0.7251
  105OSM    C8S10678   3.919   4.280  10.089  0.0122 -0.4684 -0.0687
  105OSM    H8S10679   3.833   4.314  10.026  0.8975  0.9221 -0.5522
  105OSM    H8T10680   3.911   4.173  10.117 -0.1524 -0.5996 -0.6192
  105OSM    C9S10681   4.056   4.300  10.027 -0.2104 -0.0069 -0.5355
  105OSM    H9S10682   4.131   4.259  10.097 -1.4041  0.8677  1.2756
  105OSM    H9T10683   4.060   4.411  10.031  1.1471 -0.0003 -1.7177
  105OSM   C10S10684   4.077   4.234   9.887 -0.1021 -0.5052  0.2729
  105OSM   H10S10685   4.040   4.130   9.898 -0.5676 -0.3064  0.5749
  105OSM   H10T10686   4.181   4.231   9.848  0.6039 -1.2528  2.1752
  105OSM   C11S10687   3.997   4.307   9.780 -0.5766  0.3564  0.0830
  105OSM   H11S10688   4.026   4.414   9.787 -0.4010  0.1983  2.0433
  105OSM   H11T10689   3.887   4.299   9.792 -0.4306 -2.5465 -0.2642
  105OSM   C12S10690   4.046   4.282   9.638 -0.6198 -0.3680  0.1933
  105OSM   H12S10691   4.066   4.174   9.618  1.0728 -0.1192  0.4151
  105OSM   H12T10692   4.147   4.327   9.631 -0.6714 -0.1641  0.7408
  105OSM   C13S10693   3.954   4.341   9.534  0.4828  0.5831 -0.4848
  105OSM   H13S10694   3.955   4.452   9.527 -1.6825  0.5973 -0.6749
  105OSM   H13T10695   3.853   4.315   9.570  0.4987  0.3543 -0.6017
  105OSM   C14S10696   3.982   4.275   9.404 -0.2979  0.0631 -0.0972
  105OSM   H14S10697   3.942   4.172   9.405  0.2440 -0.1475  1.7119
  105OSM   H14T10698   4.091   4.260   9.386 -0.4692  0.7474 -1.8686
  105OSM   C15S10699   3.922   4.353   9.291  0.3455  0.2228  0.1222
  105OSM   H15S10700   3.952   4.460   9.284 -0.3958  0.4450  0.3114
  105OSM   H15T10701   3.820   4.375   9.329 -0.2472 -2.9834  0.5015
  105OSM   C16S10702   3.917   4.284   9.152  1.4391  0.9821  0.0762
  105OSM   H16S10703   3.834   4.210   9.155  1.9197  0.4428  0.0586
  105OSM   H16T10704   4.012   4.229   9.137  1.7519  1.4121  0.4520
  105OSM   C17S10705   3.889   4.381   9.040  1.4504  0.2394 -0.3695
  105OSM   H17S10706   3.986   4.434   9.028  1.2298  0.3782 -1.5840
  105OSM   H17T10707   3.820   4.461   9.075  0.6542 -0.1032 -1.1407
  105OSM   C18S10708   3.853   4.319   8.912 -0.7519  0.2081 -0.3497
  105OSM   H18S10709   3.937   4.251   8.886 -1.2014 -0.2319 -0.6698
  105OSM   H18T10710   3.853   4.382   8.820 -0.5601 -1.1877 -1.3191
  105OSM   H18U10711   3.764   4.254   8.923 -0.3684 -0.0902  1.0793
  105OSM    C1F10712   3.815   4.821  10.429 -0.0927 -0.0340  0.3279
  105OSM     OF10713   3.878   4.918  10.465 -0.5750  0.1654  0.3495
  105OSM    C2F10714   3.711   4.829  10.318 -0.2555 -0.1841 -0.4483
  105OSM    H2F10715   3.604   4.836  10.345 -0.2212  2.1747 -0.8126
  105OSM    H2G10716   3.712   4.741  10.250 -0.7810 -0.6824  0.1904
  105OSM    C3F10717   3.748   4.955  10.236 -0.1449  1.2754 -0.0832
  105OSM    H3F10718   3.855   4.959  10.207 -0.1346  0.4712 -0.1688
  105OSM    H3G10719   3.729   5.047  10.295 -0.9132  0.2584  1.2632
  105OSM    C4F10720   3.665   4.970  10.118 -0.1467 -0.2164  0.0253
  105OSM    H4F10721   3.713   5.055  10.064 -4.0605 -0.0171 -3.4298
  105OSM    H4G10722   3.562   4.997  10.149  0.3842  0.7110  1.0147
  105OSM    C5F10723   3.650   4.857  10.010 -0.7819  0.4913 -0.7094
  105OSM    H5F10724   3.618   4.905   9.915  0.0768  1.8566 -0.3323
  105OSM    H5G10725   3.570   4.792  10.050  0.3207  1.6784  3.7411
  105OSM    C6F10726   3.786   4.787   9.977 -0.1884  0.7589 -0.3003
  105OSM    H6F10727   3.834   4.746  10.069 -1.3772 -0.1614 -0.0792
  105OSM    H6G10728   3.856   4.861   9.934 -0.2556  0.6979 -0.5141
  105OSM    C7F10729   3.759   4.673   9.878  0.1554 -0.3055 -0.4224
  105OSM    H7F10730   3.684   4.609   9.930 -0.4382 -0.6625 -1.7023
  105OSM    H7G10731   3.854   4.622   9.852  0.0002 -0.8445  0.0467
  105OSM    C8F10732   3.687   4.702   9.749  0.0045  0.2878  0.3930
  105OSM    H8F10733   3.591   4.756   9.764 -0.4090 -0.4953  0.6008
  105OSM    H8G10734   3.663   4.608   9.695  1.5047 -1.0606  2.0061
  105OSM    C9F10735   3.771   4.787   9.656 -0.4235 -0.7019 -0.1625
  105OSM    H9F10736   3.825   4.868   9.706  0.5178 -1.5374  0.1862
  105OSM   C10F10737   3.779   4.777   9.519  0.0629  0.3858  0.3034
  105OSM   H10F10738   3.852   4.840   9.466  0.5628 -0.6991 -0.3201
  105OSM   C11F10739   3.731   4.669   9.425  0.0702 -0.2353 -0.2274
  105OSM   H11F10740   3.652   4.609   9.474  2.4218 -1.5113  2.1532
  105OSM   H11G10741   3.819   4.607   9.396 -0.4032 -0.6990 -0.6897
  105OSM   C12F10742   3.666   4.727   9.297  1.0905 -0.1841 -0.2605
  105OSM   H12F10743   3.733   4.792   9.238  0.7973  0.6008  0.2564
  105OSM   H12G10744   3.578   4.788   9.326  0.3939 -1.9187  1.4123
  105OSM   C13F10745   3.597   4.627   9.203 -0.6145 -0.2924 -0.2790
  105OSM   H13F10746   3.521   4.582   9.271  0.6378  2.9453  3.4755
  105OSM   H13G10747   3.678   4.552   9.192  0.7613  1.2600 -0.9044
  105OSM   C14F10748   3.542   4.699   9.079 -0.1932  0.4755  0.9328
  105OSM   H14F10749   3.607   4.788   9.061  0.0088 -0.3954 -3.0558
  105OSM   H14G10750   3.440   4.738   9.101 -1.2177 -0.6133 -1.7371
  105OSM   C15F10751   3.551   4.616   8.949  0.5449  0.5308 -0.5102
  105OSM   H15F10752   3.658   4.588   8.939  0.5208  0.8268 -1.6889
  105OSM   H15G10753   3.508   4.678   8.867  0.6704  1.3272  0.0197
  105OSM   C16F10754   3.469   4.483   8.971  0.1462 -0.0081  0.2304
  105OSM   H16F10755   3.372   4.513   9.016  0.9564 -3.0854  4.2406
  105OSM   H16G10756   3.508   4.417   9.051 -0.7586 -1.1549 -0.2692
  105OSM   C17F10757   3.460   4.388   8.852 -0.1999  0.0092  0.4804
  105OSM   H17F10758   3.385   4.314   8.888 -0.9310  0.1186 -0.7868
  105OSM   H17G10759   3.561   4.345   8.832 -0.8985 -0.2085 -2.8665
  105OSM   C18F10760   3.400   4.455   8.723 -0.1192 -0.8071  0.3629
  105OSM   H18F10761   3.307   4.507   8.753  1.0303  1.0383  0.8601
  105OSM   H18G10762   3.381   4.367   8.658  1.6424 -0.7900 -0.2115
  105OSM   H18H10763   3.459   4.521   8.655 -1.2265  0.0634  0.2468
  106OSM      N10764   2.517   4.150  10.920  0.1736  0.3232 -0.5830
  106OSM    C1510765   2.597   4.072  11.015 -0.1747 -0.3371 -0.4497
  106OSM   H15A10766   2.689   4.128  11.027  1.1387 -2.8216  1.8082
  106OSM   H15B10767   2.613   3.973  10.975  0.9604 -0.0678 -0.6817
  106OSM   H15C10768   2.543   4.066  11.108 -0.9532  1.4867 -0.7815
  106OSM    C1410769   2.388   4.079  10.898 -0.2660 -0.6669  0.0414
  106OSM   H14A10770   2.416   3.975  10.899 -1.1493 -0.9315 -1.3920
  106OSM   H14B10771   2.328   4.101  10.811 -0.2047 -0.7991 -0.0353
  106OSM   H14C10772   2.325   4.095  10.984 -0.6403  0.7399 -0.4699
  106OSM    C1310773   2.497   4.283  10.980  0.3388 -0.3433  0.0013
  106OSM   H13A10774   2.471   4.275  11.084 -2.9956 -0.9346 -0.7993
  106OSM   H13B10775   2.410   4.334  10.941 -0.5484 -1.0173  1.0733
  106OSM   H13C10776   2.576   4.355  10.964 -0.3038  0.2838 -0.3959
  106OSM    C1210777   2.581   4.157  10.783  0.1276  0.1195  0.4723
  106OSM   H12A10778   2.499   4.194  10.723 -0.3707 -0.1667  0.9806
  106OSM   H12B10779   2.592   4.055  10.749  2.3191  0.4055  0.2277
  106OSM    C1110780   2.704   4.236  10.765 -0.0960  0.5302 -0.3219
  106OSM   H11A10781   2.700   4.340  10.804  2.1835  0.3855  0.4071
  106OSM   H11B10782   2.728   4.243  10.657  0.8115 -0.4513 -0.2005
  106OSM      P10783   2.915   4.076  10.793 -0.0670 -0.4658 -0.3818
  106OSM    O1310784   3.044   4.092  10.869 -0.3758 -0.1242 -0.0355
  106OSM    O1410785   2.842   3.944  10.809  0.3127  0.2379 -0.2278
  106OSM    O1110786   2.931   4.119  10.639 -1.2518  0.6957  0.2263
  106OSM    O1210787   2.810   4.178  10.838 -0.1089 -0.2002  0.0679
  106OSM    C1S10788   2.944   4.019  10.535  0.7977 -0.7405  0.0359
  106OSM    H1S10789   2.877   3.930  10.547  1.9274 -1.4977  0.8650
  106OSM    H1T10790   3.051   3.990  10.524  1.1778  0.9005 -0.7172
  106OSM     NF10791   2.920   3.967  10.294  0.4698 -0.5813 -0.2080
  106OSM    HNF10792   3.002   3.985  10.241  2.1891  0.7773  2.7393
  106OSM    C2S10793   2.898   4.065  10.396  0.6380 -0.3197 -0.1193
  106OSM    H2S10794   2.788   4.081  10.403  0.8504  0.4925  1.6722
  106OSM    C3S10795   2.956   4.212  10.364  0.0643 -0.2927 -1.3213
  106OSM    H3S10796   3.066   4.211  10.373  0.1329 -0.8563 -2.0983
  106OSM     O310797   2.914   4.318  10.451 -0.2967  0.7278 -0.0715
  106OSM    HO310798   2.881   4.271  10.527  1.5174 -1.8139 -0.7866
  106OSM    C4S10799   2.918   4.256  10.225 -0.3122  0.1117 -0.3141
  106OSM    H4S10800   2.820   4.306  10.225 -0.2856  0.1654 -0.4621
  106OSM    C5S10801   2.993   4.265  10.113 -0.0431  0.3089 -0.0465
  106OSM    H5S10802   3.095   4.225  10.107 -0.0847 -0.0703  1.4274
  106OSM    C6S10803   2.937   4.326   9.991 -0.8617 -0.1721 -0.1312
  106OSM    H6S10804   2.967   4.433   9.983  1.8480 -1.0390 -2.2245
  106OSM    H6T10805   2.827   4.318  10.000 -0.8156  1.5620  2.5515
  106OSM    C7S10806   3.013   4.245   9.887 -0.5053  0.5225  0.3109
  106OSM    H7S10807   2.987   4.137   9.896 -2.3141  1.0431  1.6885
  106OSM    H7T10808   3.124   4.257   9.892 -0.4872  0.6183 -0.3151
  106OSM    C8S10809   2.963   4.284   9.748  0.6167 -0.1157 -0.1043
  106OSM    H8S10810   2.965   4.390   9.717 -0.2548 -0.1715 -0.3601
  106OSM    H8T10811   2.856   4.253   9.741  0.3487  0.4951  1.1249
  106OSM    C9S10812   3.028   4.196   9.637  0.3514 -0.5672 -0.0986
  106OSM    H9S10813   3.025   4.090   9.669  0.0659 -0.4732  0.1852
  106OSM    H9T10814   3.138   4.215   9.630  0.4821  0.4086  3.4655
  106OSM   C10S10815   2.943   4.203   9.510  0.1526  0.4179  0.6230
  106OSM   H10S10816   2.939   4.309   9.478  0.5682 -0.3398 -2.0488
  106OSM   H10T10817   2.836   4.182   9.529 -0.3449  3.1761  1.1223
  106OSM   C11S10818   3.000   4.103   9.407 -0.1182  0.2899 -0.2783
  106OSM   H11S10819   2.968   4.002   9.440  1.2712  0.3348  1.2741
  106OSM   H11T10820   3.111   4.105   9.408 -0.1189 -0.0373  1.4525
  106OSM   C12S10821   2.958   4.137   9.263  0.0336  0.1046 -0.1228
  106OSM   H12S10822   3.003   4.235   9.236  2.3160 -1.1983 -1.1425
  106OSM   H12T10823   2.847   4.139   9.261 -0.0066 -0.4772  1.2194
  106OSM   C13S10824   3.002   4.026   9.162  0.3128  0.0564 -0.7169
  106OSM   H13S10825   2.940   3.938   9.191 -0.3161  1.1328  1.3346
  106OSM   H13T10826   3.109   4.005   9.182  0.8124  0.9418 -2.3966
  106OSM   C14S10827   2.965   4.067   9.017 -1.0077 -0.2540 -0.3756
  106OSM   H14S10828   2.872   4.127   9.007 -0.1913  0.8259 -1.6719
  106OSM   H14T10829   2.944   3.975   8.959 -1.7926 -1.6940  2.0929
  106OSM   C15S10830   3.080   4.156   8.961  0.0132  0.2259  0.1979
  106OSM   H15S10831   3.174   4.118   9.006 -0.5151 -1.3591 -0.0033
  106OSM   H15T10832   3.068   4.262   8.992  1.3075  0.9719 -1.8014
  106OSM   C16S10833   3.094   4.138   8.808 -0.5117  0.2020  0.5860
  106OSM   H16S10834   3.122   4.035   8.779  3.5400  1.1722  0.7234
  106OSM   H16T10835   3.172   4.204   8.765 -0.6082  0.2461  0.4779
  106OSM   C17S10836   2.962   4.184   8.737 -0.3080 -0.2642  0.5708
  106OSM   H17S10837   2.984   4.293   8.735 -0.2531 -0.2886 -0.7367
  106OSM   H17T10838   2.877   4.175   8.808  0.0215  1.7964  1.2455
  106OSM   C18S10839   2.934   4.143   8.596 -0.8217 -0.1081  0.7254
  106OSM   H18S10840   2.888   4.233   8.549  1.0303 -0.8715 -2.7383
  106OSM   H18T10841   2.864   4.057   8.591 -0.3369 -0.3936 -1.9927
  106OSM   H18U10842   3.032   4.117   8.550 -1.6992  0.8318 -1.7490
  106OSM    C1F10843   2.845   3.859  10.281  0.4282  0.5051  0.5330
  106OSM     OF10844   2.736   3.857  10.340  0.2010 -0.3650  0.1155
  106OSM    C2F10845   2.905   3.740  10.199 -0.3258  0.5722  0.1928
  106OSM    H2F10846   2.944   3.668  10.273 -1.1123  1.2387  1.2718
  106OSM    H2G10847   2.989   3.782  10.138 -0.6809  1.2325  0.1476
  106OSM    C3F10848   2.807   3.668  10.103 -0.4867  0.2098 -0.1731
  106OSM    H3F10849   2.733   3.740  10.061 -1.7514  0.0924  1.7919
  106OSM    H3G10850   2.741   3.602  10.163 -0.7056 -0.3444 -1.0132
  106OSM    C4F10851   2.876   3.603   9.985  0.4465 -0.5126 -1.2048
  106OSM    H4F10852   2.793   3.567   9.920 -0.9975  0.4535  0.0622
  106OSM    H4G10853   2.937   3.518  10.020  0.9620 -0.1854 -1.2949
  106OSM    C5F10854   2.960   3.694   9.892  0.3576  0.0539  0.8602
  106OSM    H5F10855   3.058   3.722   9.935  0.5156  0.2864  0.3503
  106OSM    H5G10856   2.907   3.791   9.886 -0.2000 -0.3430 -1.0226
  106OSM    C6F10857   2.979   3.627   9.751 -0.7886  0.3719 -0.1339
  106OSM    H6F10858   2.876   3.594   9.727 -0.8651  0.7541 -0.3241
  106OSM    H6G10859   3.043   3.536   9.759  0.0076  1.1112  2.5012
  106OSM    C7F10860   3.039   3.719   9.641  0.6790  0.3372 -0.4280
  106OSM    H7F10861   3.147   3.699   9.622  0.7432 -0.6595  0.9215
  106OSM    H7G10862   3.030   3.827   9.665 -1.9974  0.3591 -1.2872
  106OSM    C8F10863   2.959   3.694   9.507 -0.4308  0.4877  0.0989
  106OSM    H8F10864   3.021   3.747   9.432  0.5470 -0.8540 -0.0655
  106OSM    H8G10865   2.856   3.735   9.514 -0.4221  0.7949 -1.4325
  106OSM    C9F10866   2.957   3.550   9.454 -0.5269  0.1751  0.0329
  106OSM    H9F10867   2.921   3.474   9.526 -1.3804  0.6198  0.0850
  106OSM   C10F10868   2.977   3.504   9.331 -0.9074  0.1732 -0.1296
  106OSM   H10F10869   2.971   3.395   9.314 -1.3609 -0.1369  1.9260
  106OSM   C11F10870   3.019   3.597   9.226 -0.6039 -0.2933  0.7920
  106OSM   H11F10871   3.126   3.625   9.235 -1.1172  1.7106  0.8249
  106OSM   H11G10872   2.967   3.694   9.234 -0.1566 -0.0116  0.3433
  106OSM   C12F10873   2.986   3.553   9.082  0.0426  0.1170  0.0819
  106OSM   H12F10874   3.009   3.641   9.019  1.3117  0.3203  0.8195
  106OSM   H12G10875   2.877   3.534   9.069  0.0724  1.4683 -2.4398
  106OSM   C13F10876   3.067   3.440   9.026  0.1029  0.4251  0.1199
  106OSM   H13F10877   3.061   3.352   9.093 -1.9334 -0.9605 -1.8232
  106OSM   H13G10878   3.170   3.481   9.032 -1.0503  3.6904 -1.2663
  106OSM   C14F10879   3.029   3.414   8.881  0.9594  0.6592  0.1001
  106OSM   H14F10880   3.020   3.517   8.840  1.3586  0.8833  0.5828
  106OSM   H14G10881   2.928   3.367   8.882  1.5146 -0.5718 -0.2641
  106OSM   C15F10882   3.124   3.330   8.795  0.0608  0.1096  0.9447
  106OSM   H15F10883   3.143   3.233   8.847  1.4061 -0.5197 -0.6528
  106OSM   H15G10884   3.218   3.390   8.795  0.3291 -0.3014  0.8281
  106OSM   C16F10885   3.072   3.298   8.652 -0.1721  0.3120  0.6237
  106OSM   H16F10886   2.984   3.231   8.647  0.2405 -0.2990  1.4657
  106OSM   H16G10887   3.149   3.234   8.604 -1.8524 -1.3251  0.0506
  106OSM   C17F10888   3.048   3.424   8.573 -0.2604 -0.0094 -0.1020
  106OSM   H17F10889   3.136   3.487   8.596 -0.6393  0.3285  0.4184
  106OSM   H17G10890   2.971   3.477   8.633  0.6807 -2.0221  2.9623
  106OSM   C18F10891   3.026   3.423   8.419 -0.1592  0.5434 -0.2185
  106OSM   H18F10892   3.104   3.380   8.353 -0.2474  0.7007 -0.4233
  106OSM   H18G10893   2.996   3.522   8.378  2.1284  0.7761 -1.3589
  106OSM   H18H10894   2.936   3.362   8.398 -0.4308  1.2720 -1.2343
  107OSM      N10895   5.753   1.086  10.714 -0.0628  0.1559  0.1188
  107OSM    C1510896   5.811   1.064  10.580 -0.5464  0.2616 -0.4037
  107OSM   H15A10897   5.898   1.001  10.587 -1.4647 -0.8053  1.6867
  107OSM   H15B10898   5.860   1.149  10.535  2.6108 -0.8506  0.7539
  107OSM   H15C10899   5.741   1.022  10.510  1.3022 -1.3255 -1.3451
  107OSM    C1410900   5.723   0.946  10.775  0.0477 -0.8769 -0.0860
  107OSM   H14A10901   5.817   0.893  10.776  1.5537  1.7069  1.4679
  107OSM   H14B10902   5.647   0.894  10.720  0.6986  0.7915 -2.6314
  107OSM   H14C10903   5.684   0.962  10.875  2.2646  1.2358  0.5106
  107OSM    C1310904   5.866   1.143  10.792  0.0098  0.2667  0.1808
  107OSM   H13A10905   5.962   1.095  10.781 -0.7307 -1.1828 -0.0400
  107OSM   H13B10906   5.841   1.128  10.896  1.4904 -1.3307  0.3358
  107OSM   H13C10907   5.875   1.249  10.776  0.2624  0.1096 -0.7813
  107OSM    C1210908   5.638   1.177  10.716  0.1619 -0.5869 -0.3135
  107OSM   H12A10909   5.593   1.175  10.814  0.9586  0.2959  0.0747
  107OSM   H12B10910   5.560   1.136  10.653 -0.3273 -2.2480  1.3265
  107OSM    C1110911   5.662   1.326  10.667  0.4711 -0.6887  0.6618
  107OSM   H11A10912   5.569   1.378  10.635 -0.0008 -0.0948  2.9184
  107OSM   H11B10913   5.707   1.312  10.566 -3.2855  0.4194 -1.2635
  107OSM      P10914   5.656   1.451  10.899  0.1721 -0.0220  0.0277
  107OSM    O1310915   5.518   1.397  10.890 -0.3916  0.6140 -0.2865
  107OSM    O1410916   5.733   1.407  11.021  0.2434 -0.1667  0.2479
  107OSM    O1110917   5.642   1.608  10.880  0.1523 -0.0912  0.0987
  107OSM    O1210918   5.735   1.403  10.767 -0.0475  0.2342  0.0482
  107OSM    C1S10919   5.749   1.689  10.811  0.5990 -0.0849  0.6212
  107OSM    H1S10920   5.852   1.650  10.823  1.2154  1.1914 -0.3341
  107OSM    H1T10921   5.745   1.791  10.855 -2.2457  0.6381 -1.1367
  107OSM     NF10922   5.817   1.812  10.605  0.0892  0.0921 -0.0435
  107OSM    HNF10923   5.782   1.903  10.584 -2.2253 -0.8907 -0.5679
  107OSM    C2S10924   5.720   1.718  10.654  0.3602 -0.5723  1.0563
  107OSM    H2S10925   5.732   1.618  10.607 -0.3382 -0.2068  0.0950
  107OSM    C3S10926   5.570   1.778  10.638 -0.1623 -0.1552 -0.6552
  107OSM    H3S10927   5.559   1.874  10.693 -0.5598 -1.4536  1.5622
  107OSM     O310928   5.474   1.686  10.687  0.0403 -0.1709 -0.5566
  107OSM    HO310929   5.519   1.639  10.757 -0.0417 -0.6787 -0.8431
  107OSM    C4S10930   5.548   1.815  10.493 -1.1130 -0.3881 -0.8342
  107OSM    H4S10931   5.560   1.922  10.474 -1.7142 -0.4678 -1.6771
  107OSM    C5S10932   5.498   1.736  10.395 -0.3614 -0.0717  0.4976
  107OSM    H5S10933   5.456   1.637  10.418  0.4000 -0.8180 -1.2504
  107OSM    C6S10934   5.467   1.766  10.254 -0.3529  0.7707 -0.0110
  107OSM    H6S10935   5.369   1.717  10.237 -0.1888  1.1008 -2.0517
  107OSM    H6T10936   5.536   1.718  10.180 -1.7335  0.4157 -1.0897
  107OSM    C7S10937   5.459   1.910  10.212  0.4709  0.0139  0.8233
  107OSM    H7S10938   5.542   1.975  10.248  0.9605  0.4232 -0.9679
  107OSM    H7T10939   5.364   1.954  10.251  0.2600 -0.8096  1.2575
  107OSM    C8S10940   5.461   1.929  10.055  0.5293  0.5377 -0.7356
  107OSM    H8S10941   5.392   1.863   9.998  1.2278  0.2772 -1.2778
  107OSM    H8T10942   5.563   1.895  10.029  0.8130 -0.0365  1.0431
  107OSM    C9S10943   5.437   2.080  10.023  0.0239  0.1464  0.0441
  107OSM    H9S10944   5.500   2.145  10.087 -1.1983  0.9823  0.4122
  107OSM    H9T10945   5.335   2.107  10.056  0.8038  0.2033  2.4998
  107OSM   C10S10946   5.449   2.114   9.872  0.6141  1.1259 -0.3575
  107OSM   H10S10947   5.356   2.077   9.824  1.3892  2.5656 -3.0260
  107OSM   H10T10948   5.543   2.068   9.836  0.4278  0.4694 -0.0328
  107OSM   C11S10949   5.447   2.265   9.858  0.3878 -0.4273  0.2574
  107OSM   H11S10950   5.534   2.313   9.907  1.0370 -0.0101 -1.2589
  107OSM   H11T10951   5.355   2.318   9.888  0.4221 -0.9787  1.3425
  107OSM   C12S10952   5.477   2.314   9.716  0.5369  0.4726 -0.5906
  107OSM   H12S10953   5.566   2.270   9.667  1.7578 -1.2749  2.9861
  107OSM   H12T10954   5.477   2.424   9.703 -3.1101  0.4915 -1.0418
  107OSM   C13S10955   5.362   2.277   9.617  0.1739 -0.2151  0.5580
  107OSM   H13S10956   5.267   2.325   9.651 -0.5241  0.2175 -1.9276
  107OSM   H13T10957   5.354   2.166   9.611 -1.1414 -0.2055  1.6446
  107OSM   C14S10958   5.365   2.323   9.472 -0.4443 -0.0146 -0.2002
  107OSM   H14S10959   5.395   2.430   9.466  2.3680 -0.6701  1.6794
  107OSM   H14T10960   5.259   2.314   9.439 -0.8386  2.2621  0.3506
  107OSM   C15S10961   5.456   2.231   9.393 -0.0713 -0.4036 -0.0465
  107OSM   H15S10962   5.414   2.130   9.414  1.4800 -0.7321  1.6419
  107OSM   H15T10963   5.560   2.228   9.432 -0.5892  0.8554  1.5011
  107OSM   C16S10964   5.464   2.264   9.249 -0.5742 -0.3012  0.1564
  107OSM   H16S10965   5.372   2.226   9.201  0.5367 -1.1089 -1.3871
  107OSM   H16T10966   5.541   2.199   9.202  0.1498  0.0188  0.8763
  107OSM   C17S10967   5.500   2.413   9.216 -0.7640 -0.3021 -0.0868
  107OSM   H17S10968   5.590   2.442   9.275 -0.1742  1.3303 -1.7689
  107OSM   H17T10969   5.419   2.477   9.255  0.8665  2.4076 -1.0170
  107OSM   C18S10970   5.528   2.435   9.064 -0.1644  0.2447 -0.0303
  107OSM   H18S10971   5.556   2.541   9.045 -1.1642  0.6288  0.5847
  107OSM   H18T10972   5.428   2.424   9.015 -0.7573 -2.1594  1.6334
  107OSM   H18U10973   5.601   2.362   9.023 -0.8822 -1.9976  2.5812
  107OSM    C1F10974   5.949   1.795  10.583 -0.1957 -0.1831  0.0335
  107OSM     OF10975   5.999   1.684  10.606  0.4346  0.6980  0.1246
  107OSM    C2F10976   6.029   1.916  10.532  0.7245  0.4758  0.1516
  107OSM    H2F10977   6.128   1.914  10.581 -0.6180 -2.6178  2.9885
  107OSM    H2G10978   5.989   2.016  10.563  0.6231  1.0181 -1.6877
  107OSM    C3F10979   6.046   1.896  10.381 -0.3439  0.6630  0.0365
  107OSM    H3F10980   5.950   1.896  10.327 -0.4213 -0.3466  0.1514
  107OSM    H3G10981   6.072   1.788  10.369 -2.5866 -0.0812  1.5655
  107OSM    C4F10982   6.153   1.983  10.315 -1.4525  0.5257  0.1078
  107OSM    H4F10983   6.251   1.983  10.367 -0.8925  0.4627 -0.9394
  107OSM    H4G10984   6.116   2.087  10.308  0.4095  1.3029  1.3940
  107OSM    C5F10985   6.180   1.918  10.172 -1.3390 -0.2674 -0.5715
  107OSM    H5F10986   6.079   1.913  10.127 -1.7745 -2.0078  0.5761
  107OSM    H5G10987   6.228   1.820  10.192 -0.6412  0.4108  1.1202
  107OSM    C6F10988   6.271   2.013  10.097  0.5712 -0.2021  0.5551
  107OSM    H6F10989   6.369   1.963  10.078  0.5306  0.2941 -1.0522
  107OSM    H6G10990   6.279   2.105  10.159 -0.7013 -2.0104  3.4795
  107OSM    C7F10991   6.213   2.037   9.959  0.5996  0.4793  0.3775
  107OSM    H7F10992   6.287   2.099   9.905  0.6271  1.2665  1.3138
  107OSM    H7G10993   6.117   2.093   9.961  0.2812 -0.0192 -0.4400
  107OSM    C8F10994   6.170   1.914   9.876  0.8225 -0.5495 -0.1408
  107OSM    H8F10995   6.147   1.964   9.780  0.4928 -0.7202 -0.1495
  107OSM    H8G10996   6.079   1.873   9.924  0.4798 -1.4483 -1.5454
  107OSM    C9F10997   6.273   1.804   9.854  0.0762 -0.6716 -0.0020
  107OSM    H9F10998   6.322   1.768   9.945 -0.7789  1.0305  1.1775
  107OSM   C10F10999   6.322   1.761   9.737 -0.4921  0.7360 -0.4614
  107OSM   H10F11000   6.396   1.680   9.727  0.8478  1.6963  1.2876
  107OSM   C11F11001   6.276   1.804   9.601 -1.0867 -0.3880  0.3723
  107OSM   H11F11002   6.172   1.841   9.596 -1.1895 -0.5062  1.5909
  107OSM   H11G11003   6.271   1.710   9.541 -0.4630  0.5617 -1.1961
  107OSM   C12F11004   6.369   1.902   9.529 -0.0368  0.0122  0.2815
  107OSM   H12F11005   6.470   1.857   9.522 -0.7673 -1.6373 -0.0205
  107OSM   H12G11006   6.373   1.993   9.593  2.6239  0.0589  0.0865
  107OSM   C13F11007   6.323   1.943   9.389  1.2187 -0.3386 -0.6613
  107OSM   H13F11008   6.214   1.963   9.395  1.1007 -1.1686  0.1284
  107OSM   H13G11009   6.343   1.854   9.326 -0.4756  0.5007 -2.4399
  107OSM   C14F11010   6.405   2.060   9.334 -0.4200 -0.6075 -0.3539
  107OSM   H14F11011   6.513   2.038   9.344  0.3070  2.0373 -1.8711
  107OSM   H14G11012   6.389   2.144   9.405  1.9533  0.9356 -1.5786
  107OSM   C15F11013   6.368   2.099   9.192 -0.3048 -0.3928 -0.3529
  107OSM   H15F11014   6.396   2.197   9.149  2.2803 -1.9852 -2.3946
  107OSM   H15G11015   6.259   2.094   9.170 -1.0166 -0.9231  2.9348
  107OSM   C16F11016   6.429   1.990   9.102 -0.3439 -0.1919 -0.1233
  107OSM   H16F11017   6.409   1.889   9.141  0.4720  0.0398  0.9261
  107OSM   H16G11018   6.540   1.995   9.092 -0.2070 -1.4536  0.6708
  107OSM   C17F11019   6.364   1.985   8.964  0.1450  0.0809  0.0591
  107OSM   H17F11020   6.258   1.953   8.966 -0.0865  0.7421 -0.8787
  107OSM   H17G11021   6.426   1.911   8.908  1.4748  0.4653  0.9947
  107OSM   C18F11022   6.384   2.111   8.879  0.2151 -0.5763  0.4724
  107OSM   H18F11023   6.379   2.088   8.770  0.1732  0.3350  0.2713
  107OSM   H18G11024   6.484   2.155   8.901 -0.8108  0.9814  2.1221
  107OSM   H18H11025   6.302   2.185   8.891  0.9147  0.8433 -2.8964
  108OSM      N11026   2.800   2.273  10.808  0.4325  0.3783 -0.0586
  108OSM    C1511027   2.808   2.166  10.912  0.1267 -0.3649 -0.0961
  108OSM   H15A11028   2.857   2.082  10.865  1.9237 -0.2106  1.4649
  108OSM   H15B11029   2.717   2.133  10.961  0.7480 -0.9303  0.6799
  108OSM   H15C11030   2.870   2.196  10.995  1.2605 -0.6150 -0.8463
  108OSM    C1411031   2.799   2.403  10.884  0.5113 -0.2632 -0.5162
  108OSM   H14A11032   2.899   2.432  10.911  0.5013  0.6251 -1.3943
  108OSM   H14B11033   2.735   2.386  10.969  0.6881  1.5457 -0.0149
  108OSM   H14C11034   2.744   2.478  10.829 -1.2316 -0.6129  0.7177
  108OSM    C1311035   2.923   2.265  10.721  0.1216  0.1756  1.1725
  108OSM   H13A11036   3.011   2.269  10.784 -1.3672 -0.8396  3.4101
  108OSM   H13B11037   2.934   2.343  10.647  0.0623 -2.2412 -1.4633
  108OSM   H13C11038   2.919   2.168  10.673  0.7841  0.0822  1.2947
  108OSM    C1211039   2.674   2.255  10.726  0.5646 -0.4414 -0.1709
  108OSM   H12A11040   2.588   2.268  10.790  0.8000  2.5395 -0.3968
  108OSM   H12B11041   2.664   2.154  10.689 -1.3713 -0.6103  0.7137
  108OSM    C1111042   2.656   2.347  10.608 -0.1420 -1.1139 -0.4197
  108OSM   H11A11043   2.549   2.337  10.580 -0.6440 -0.9156  1.3755
  108OSM   H11B11044   2.723   2.316  10.525  0.0832 -1.1151 -0.2349
  108OSM      P11045   2.744   2.589  10.545  0.2303 -0.2264 -0.2234
  108OSM    O1311046   2.702   2.721  10.581 -0.0721 -0.1476  0.5115
  108OSM    O1411047   2.885   2.564  10.515  0.6992  0.0922  0.1088
  108OSM    O1111048   2.651   2.561  10.418 -0.5858 -0.3263 -0.2059
  108OSM    O1211049   2.674   2.490  10.649 -0.0220 -0.2477  0.4750
  108OSM    C1S11050   2.514   2.622  10.413 -0.6463  0.1420  0.9778
  108OSM    H1S11051   2.509   2.722  10.461 -0.2109  0.0755  1.1677
  108OSM    H1T11052   2.462   2.555  10.484  0.0823 -0.2206  1.1751
  108OSM     NF11053   2.311   2.660  10.291  0.7469 -0.1325 -0.1607
  108OSM    HNF11054   2.232   2.600  10.299  0.7953 -0.1546  0.1260
  108OSM    C2S11055   2.447   2.612  10.272  0.9009 -0.2717 -0.0683
  108OSM    H2S11056   2.499   2.678  10.200  0.6608 -2.3530 -2.2285
  108OSM    C3S11057   2.447   2.457  10.222  0.3847 -0.0706 -0.3168
  108OSM    H3S11058   2.361   2.420  10.281  0.3280  0.5458 -0.0084
  108OSM     O311059   2.562   2.382  10.258 -0.4818 -0.1694 -0.1576
  108OSM    HO311060   2.608   2.448  10.311  1.5185  0.2974 -2.3853
  108OSM    C4S11061   2.409   2.451  10.078  0.1786  0.1571 -0.8806
  108OSM    H4S11062   2.311   2.500  10.065 -1.1304 -2.5988 -1.7974
  108OSM    C5S11063   2.476   2.398   9.977  0.2737  0.2052 -0.1105
  108OSM    H5S11064   2.572   2.348   9.993  0.3668 -0.0412 -1.3653
  108OSM    C6S11065   2.437   2.406   9.828  0.2583 -0.1812 -0.7036
  108OSM    H6S11066   2.525   2.429   9.764 -1.7358  2.5426 -2.5865
  108OSM    H6T11067   2.367   2.490   9.809 -0.5473 -0.8965 -0.9519
  108OSM    C7S11068   2.375   2.276   9.770 -0.2204  0.1520 -0.1226
  108OSM    H7S11069   2.301   2.233   9.842 -1.1305 -0.8611 -1.6467
  108OSM    H7T11070   2.451   2.196   9.765  0.5393  0.9100 -0.7370
  108OSM    C8S11071   2.332   2.299   9.619 -0.3632  0.2758  0.1150
  108OSM    H8S11072   2.380   2.388   9.574  0.0389  0.5166  1.0134
  108OSM    H8T11073   2.225   2.327   9.618 -0.3553  0.3080 -0.6117
  108OSM    C9S11074   2.363   2.180   9.539  0.3004  0.2871 -1.0821
  108OSM    H9S11075   2.313   2.089   9.579  0.7375  1.6081  2.6821
  108OSM    H9T11076   2.470   2.169   9.565 -0.2051  2.1835  1.9960
  108OSM   C10S11077   2.336   2.188   9.391  0.1827  0.2038 -0.0064
  108OSM   H10S11078   2.228   2.211   9.379 -0.4671 -2.0010  1.4063
  108OSM   H10T11079   2.363   2.088   9.351 -2.3000  0.0291 -1.3626
  108OSM   C11S11080   2.419   2.294   9.318 -0.2198  0.4501 -0.0294
  108OSM   H11S11081   2.522   2.251   9.314 -1.3457 -2.1396 -3.3330
  108OSM   H11T11082   2.420   2.397   9.360  1.2169  0.5510 -0.2695
  108OSM   C12S11083   2.375   2.301   9.172 -0.1046 -0.3807  0.6533
  108OSM   H12S11084   2.429   2.387   9.128  1.0301  0.4829  3.6197
  108OSM   H12T11085   2.268   2.327   9.159 -0.1611 -0.2626  1.3595
  108OSM   C13S11086   2.411   2.171   9.098 -0.1130  0.1314 -0.4689
  108OSM   H13S11087   2.363   2.079   9.139 -0.8252  0.0955 -1.3601
  108OSM   H13T11088   2.521   2.158   9.104 -0.0373 -0.2518 -2.3366
  108OSM   C14S11089   2.382   2.166   8.946 -0.0422 -0.1239  0.3772
  108OSM   H14S11090   2.455   2.231   8.892  0.8924 -0.4743  1.2099
  108OSM   H14T11091   2.279   2.207   8.938  0.4404  0.7973 -1.3353
  108OSM   C15S11092   2.397   2.025   8.880  0.4688  0.4745  0.2515
  108OSM   H15S11093   2.358   1.962   8.963  1.7366  0.5931  0.9412
  108OSM   H15T11094   2.506   2.010   8.870  0.5684  1.6262 -0.4801
  108OSM   C16S11095   2.326   2.028   8.745  0.9481 -0.3513 -0.0073
  108OSM   H16S11096   2.383   2.098   8.679  1.9707  0.5171  1.7565
  108OSM   H16T11097   2.225   2.071   8.763  0.8770 -0.0944 -0.9644
  108OSM   C17S11098   2.323   1.875   8.690 -0.0519  0.0886  0.6284
  108OSM   H17S11099   2.274   1.871   8.591 -0.2243  0.0668  0.7136
  108OSM   H17T11100   2.258   1.806   8.747 -0.7509 -0.4014 -0.7700
  108OSM   C18S11101   2.456   1.826   8.663  0.3141  0.8902 -0.0916
  108OSM   H18S11102   2.461   1.734   8.600  0.8680  0.8492  0.0068
  108OSM   H18T11103   2.520   1.820   8.754 -2.9936 -0.7838  2.2204
  108OSM   H18U11104   2.514   1.904   8.608 -0.8160  1.9349  0.1679
  108OSM    C1F11105   2.288   2.789  10.312  0.4801  0.2957  0.1263
  108OSM     OF11106   2.381   2.868  10.332 -0.1643  0.2070  0.6315
  108OSM    C2F11107   2.138   2.827  10.322  1.0170  1.0493 -0.2474
  108OSM    H2F11108   2.111   2.863  10.423  0.4052 -1.2222  0.4265
  108OSM    H2G11109   2.076   2.736  10.305  3.3508 -0.8655  1.2003
  108OSM    C3F11110   2.111   2.930  10.206  0.5321 -0.5053  0.0005
  108OSM    H3F11111   2.167   3.023  10.231 -0.4736 -0.1938  1.1332
  108OSM    H3G11112   2.006   2.965  10.211  0.6165 -0.0683 -1.2344
  108OSM    C4F11113   2.144   2.877  10.068 -1.2177 -0.9128  0.3327
  108OSM    H4F11114   2.119   2.769  10.072 -0.5661 -1.1005 -0.5141
  108OSM    H4G11115   2.255   2.878  10.055 -1.3417  1.6978 -0.9928
  108OSM    C5F11116   2.084   2.944   9.946 -0.4373  0.2219  0.1275
  108OSM    H5F11117   2.134   3.042   9.925  2.5442 -1.4592 -1.0068
  108OSM    H5G11118   1.979   2.969   9.971 -1.7140 -3.1829 -1.4828
  108OSM    C6F11119   2.094   2.864   9.815 -0.3256 -0.4193 -0.5323
  108OSM    H6F11120   2.083   2.940   9.735  1.1437  1.4905  1.0266
  108OSM    H6G11121   2.010   2.791   9.819 -0.8306  0.1325 -1.0455
  108OSM    C7F11122   2.226   2.798   9.794  0.0109  0.4603 -0.2699
  108OSM    H7F11123   2.232   2.717   9.870  0.5894 -1.4182 -2.2541
  108OSM    H7G11124   2.308   2.870   9.815  1.3996 -1.4216  0.9980
  108OSM    C8F11125   2.244   2.732   9.655 -0.4686 -0.2904  0.3465
  108OSM    H8F11126   2.155   2.673   9.623 -0.9736  0.4891  0.2995
  108OSM    H8G11127   2.324   2.656   9.658  0.4339  0.6699  0.8993
  108OSM    C9F11128   2.277   2.830   9.551  0.5255 -0.0065  0.6122
  108OSM    H9F11129   2.278   2.937   9.575  1.6187  0.7412 -2.6088
  108OSM   C10F11130   2.304   2.794   9.423  0.2364  0.0638 -0.0283
  108OSM   H10F11131   2.328   2.881   9.361 -0.9947 -0.3906 -1.1703
  108OSM   C11F11132   2.288   2.657   9.362  0.0330 -0.2064 -0.0520
  108OSM   H11F11133   2.230   2.582   9.419 -0.3461 -1.6313 -2.2209
  108OSM   H11G11134   2.391   2.615   9.355  0.3037  0.5581 -0.8698
  108OSM   C12F11135   2.226   2.643   9.217 -0.4283 -0.3687 -0.3434
  108OSM   H12F11136   2.118   2.667   9.234 -0.1576 -0.5919  1.7857
  108OSM   H12G11137   2.233   2.537   9.184 -0.7587 -0.0113 -1.6035
  108OSM   C13F11138   2.308   2.734   9.122 -0.2463  0.5762 -0.2043
  108OSM   H13F11139   2.413   2.701   9.134 -0.4558 -0.4992 -1.2692
  108OSM   H13G11140   2.281   2.838   9.149 -0.2743  0.6401 -0.4823
  108OSM   C14F11141   2.268   2.730   8.977  0.1059  0.0452 -0.2643
  108OSM   H14F11142   2.171   2.781   8.961  0.0156  0.4723  1.5450
  108OSM   H14G11143   2.256   2.624   8.948  0.1062 -0.5033  1.6666
  108OSM   C15F11144   2.379   2.794   8.888 -0.4537 -0.5691 -0.3631
  108OSM   H15F11145   2.478   2.748   8.909 -0.9770 -1.3107  0.4890
  108OSM   H15G11146   2.389   2.899   8.923 -1.4571 -0.9994  1.2465
  108OSM   C16F11147   2.355   2.802   8.738  0.5703 -0.4507  0.0845
  108OSM   H16F11148   2.310   2.713   8.689  2.0110 -0.2561 -1.6545
  108OSM   H16G11149   2.456   2.810   8.691  0.7359 -0.7028  0.3887
  108OSM   C17F11150   2.268   2.919   8.696 -0.4640  0.6747 -0.8227
  108OSM   H17F11151   2.305   3.012   8.743 -0.2948  0.3051 -0.2149
  108OSM   H17G11152   2.165   2.905   8.736 -0.9222  0.6082 -1.9815
  108OSM   C18F11153   2.248   2.944   8.550  0.3187  0.8501  0.7857
  108OSM   H18F11154   2.347   2.966   8.505 -0.3875 -2.4054 -2.6938
  108OSM   H18G11155   2.186   3.032   8.522  0.4404  1.0610  1.1784
  108OSM   H18H11156   2.192   2.856   8.510 -0.1495  1.4313  0.1455
  109OSM      N11157   1.486   1.495  11.259  0.8559  0.5395  0.3005
  109OSM    C1511158   1.413   1.612  11.325  0.1881 -0.2535 -0.0419
  109OSM   H15A11159   1.416   1.607  11.433 -1.5773  3.3877  0.2790
  109OSM   H15B11160   1.308   1.619  11.301  0.6270  0.5685 -1.7448
  109OSM   H15C11161   1.452   1.706  11.289 -2.5596  0.4875 -1.1670
  109OSM    C1411162   1.618   1.472  11.317 -0.2752  0.1388 -0.8124
  109OSM   H14A11163   1.673   1.413  11.246  2.0576  0.2453  0.8457
  109OSM   H14B11164   1.627   1.428  11.416  1.6978  1.2636 -0.4667
  109OSM   H14C11165   1.674   1.565  11.322 -0.8502  0.4318  0.5793
  109OSM    C1311166   1.401   1.380  11.291  0.4024 -0.2566  0.0168
  109OSM   H13A11167   1.361   1.381  11.390 -3.0492 -1.0787 -1.3127
  109OSM   H13B11168   1.456   1.288  11.271  1.0463 -0.8254  3.9497
  109OSM   H13C11169   1.319   1.374  11.221  0.6777 -0.7395 -0.2685
  109OSM    C1211170   1.490   1.527  11.113 -0.2306 -0.4327 -0.0183
  109OSM   H12A11171   1.531   1.445  11.056 -0.1500 -0.7836  0.5468
  109OSM   H12B11172   1.557   1.611  11.109  1.6434 -1.9826 -3.1818
  109OSM    C1111173   1.362   1.567  11.038 -0.0514  0.8179  0.6607
  109OSM   H11A11174   1.393   1.583  10.933 -0.3531  0.0966  0.4579
  109OSM   H11B11175   1.331   1.672  11.057 -1.7382  0.5315 -0.3988
  109OSM      P11176   1.246   1.347  10.962 -0.2167  0.1538 -0.0093
  109OSM    O1311177   1.378   1.309  10.907 -0.3708 -0.2750  0.1218
  109OSM    O1411178   1.178   1.238  11.039  0.2023  0.1854  0.3752
  109OSM    O1111179   1.145   1.380  10.853  1.1582 -0.6783  0.0974
  109OSM    O1211180   1.252   1.477  11.051 -0.0251 -0.0708  0.6177
  109OSM    C1S11181   1.161   1.458  10.733 -0.0608  0.1127  0.1634
  109OSM    H1S11182   1.260   1.508  10.724 -0.4994  1.1100  0.8186
  109OSM    H1T11183   1.083   1.537  10.744  0.7963  0.7114  2.1936
  109OSM     NF11184   1.191   1.440  10.494  0.4326  0.2377 -0.2442
  109OSM    HNF11185   1.128   1.504  10.451 -0.0338 -0.4484 -0.5843
  109OSM    C2S11186   1.135   1.375  10.608 -0.5018 -0.9819  0.4370
  109OSM    H2S11187   1.199   1.285  10.614  0.0809 -0.4378  2.6529
  109OSM    C3S11188   0.986   1.332  10.594 -0.4261  0.2324 -0.0765
  109OSM    H3S11189   0.938   1.432  10.608  1.6353  1.1756  0.3458
  109OSM     O311190   0.944   1.248  10.700  0.3057  0.4029 -0.2527
  109OSM    HO311191   1.005   1.267  10.771  0.4467 -0.3504 -0.1674
  109OSM    C4S11192   0.964   1.268  10.454 -0.9409  0.3798  0.2859
  109OSM    H4S11193   0.944   1.339  10.371 -1.9893  0.1922  0.3735
  109OSM    C5S11194   0.956   1.135  10.429 -0.3966  0.3080 -0.8399
  109OSM    H5S11195   0.973   1.070  10.516  0.9330  1.4454 -0.2310
  109OSM    C6S11196   0.941   1.064  10.299 -0.1448  0.7554  0.4608
  109OSM    H6S11197   0.836   1.030  10.282  0.3716 -1.5825  1.6915
  109OSM    H6T11198   1.002   0.971  10.299 -1.0275  0.1603 -0.1715
  109OSM    C7S11199   0.989   1.134  10.168 -0.2700  0.1382  0.4477
  109OSM    H7S11200   1.090   1.179  10.178 -0.0928 -0.5495  1.9205
  109OSM    H7T11201   0.926   1.225  10.156  0.1125  0.4688  0.9141
  109OSM    C8S11202   0.966   1.035  10.050 -0.4143  0.2963 -0.2628
  109OSM    H8S11203   0.864   0.995  10.065 -0.1360 -0.2797  0.0776
  109OSM    H8T11204   1.043   0.957  10.065 -1.3643 -0.8971 -1.4430
  109OSM    C9S11205   0.975   1.113   9.922 -0.6612 -0.4578 -0.2121
  109OSM    H9S11206   1.073   1.165   9.921  0.2636 -2.1502  1.1697
  109OSM    H9T11207   0.892   1.187   9.923 -0.3952 -0.1655  0.2481
  109OSM   C10S11208   0.960   1.023   9.800  0.4108  0.0680 -0.5267
  109OSM   H10S11209   0.862   0.973   9.816 -0.1178  1.1889 -0.2631
  109OSM   H10T11210   1.041   0.947   9.795  0.0238 -0.2317 -3.5282
  109OSM   C11S11211   0.963   1.094   9.664  0.6414 -0.5452 -0.5126
  109OSM   H11S11212   1.067   1.130   9.652  0.5741  0.3321  1.3522
  109OSM   H11T11213   0.906   1.189   9.665  1.6755  0.0857  0.6210
  109OSM   C12S11214   0.919   1.003   9.550  0.2928 -0.7462 -0.2503
  109OSM   H12S11215   0.808   0.996   9.548  0.2677 -0.2159 -0.7623
  109OSM   H12T11216   0.965   0.903   9.568  1.9378 -0.1875 -1.1918
  109OSM   C13S11217   0.967   1.044   9.406  0.4743  0.1640  0.5231
  109OSM   H13S11218   1.074   1.072   9.409  0.7951 -1.0144  0.1237
  109OSM   H13T11219   0.910   1.131   9.365 -1.8403 -0.3528  2.5411
  109OSM   C14S11220   0.949   0.936   9.301  0.0811 -0.8402 -0.3437
  109OSM   H14S11221   0.846   0.896   9.309  0.0433 -0.4952  1.0494
  109OSM   H14T11222   1.017   0.851   9.324  0.3123 -0.4514  0.4236
  109OSM   C15S11223   0.981   0.992   9.163  0.1342 -0.5885 -0.1756
  109OSM   H15S11224   1.085   1.029   9.149  0.0535  0.1398  1.0618
  109OSM   H15T11225   0.917   1.072   9.121  0.6552  0.8433  1.7019
  109OSM   C16S11226   0.973   0.877   9.060 -0.3352 -0.3881 -0.3400
  109OSM   H16S11227   0.868   0.843   9.052 -1.2157  2.2256 -0.5661
  109OSM   H16T11228   1.034   0.794   9.103 -3.3213 -1.0253  2.8199
  109OSM   C17S11229   1.030   0.931   8.929  0.7794  0.6533 -0.0399
  109OSM   H17S11230   1.139   0.937   8.950  1.4010 -0.9409 -2.5717
  109OSM   H17T11231   0.978   1.028   8.913  2.5876  1.8553  1.2503
  109OSM   C18S11232   0.990   0.840   8.814 -0.9389 -0.4475  0.3553
  109OSM   H18S11233   1.029   0.882   8.718 -3.2469  1.4918  0.2102
  109OSM   H18T11234   0.880   0.831   8.803 -1.0250 -1.3658  1.8005
  109OSM   H18U11235   1.015   0.732   8.821 -0.5379 -0.3897 -0.1062
  109OSM    C1F11236   1.319   1.450  10.457 -0.6010 -0.0373 -0.4372
  109OSM     OF11237   1.404   1.405  10.534 -0.7286  0.3129  0.1118
  109OSM    C2F11238   1.352   1.515  10.325 -0.5937 -0.0885  0.1205
  109OSM    H2F11239   1.460   1.517  10.298 -0.9544  0.5695 -1.2605
  109OSM    H2G11240   1.324   1.621  10.342  2.3218  0.4966  1.5826
  109OSM    C3F11241   1.277   1.449  10.201 -0.0045  0.1364 -0.2827
  109OSM    H3F11242   1.169   1.458  10.227 -0.1041 -2.2378  0.2579
  109OSM    H3G11243   1.311   1.343  10.204  1.1207  0.4976  0.2674
  109OSM    C4F11244   1.294   1.515  10.068 -0.2650 -0.1270 -0.0705
  109OSM    H4F11245   1.403   1.527  10.047  0.1802 -0.6489  1.7602
  109OSM    H4G11246   1.228   1.602  10.050 -0.9704 -0.3480  1.4122
  109OSM    C5F11247   1.242   1.422   9.952 -0.4194  0.0971 -0.9299
  109OSM    H5F11248   1.132   1.412   9.935 -1.0174  2.1785  1.4386
  109OSM    H5G11249   1.281   1.321   9.974  1.0754  0.4770 -1.7692
  109OSM    C6F11250   1.309   1.444   9.807 -0.2205 -0.3673 -1.2119
  109OSM    H6F11251   1.420   1.444   9.800 -0.0405  0.8244  1.3235
  109OSM    H6G11252   1.276   1.541   9.766 -1.0312 -0.2074 -0.1959
  109OSM    C7F11253   1.253   1.337   9.711 -0.0997  0.0206 -0.7863
  109OSM    H7F11254   1.147   1.354   9.683  0.3478  1.2596 -1.8198
  109OSM    H7G11255   1.253   1.236   9.756 -2.3993 -0.4244 -1.7340
  109OSM    C8F11256   1.343   1.327   9.585  0.1855  0.4580 -0.3341
  109OSM    H8F11257   1.331   1.236   9.522 -0.9361  1.1513 -1.1496
  109OSM    H8G11258   1.446   1.326   9.628 -0.8909 -1.0257  2.3064
  109OSM    C9F11259   1.332   1.450   9.495  0.3488 -0.2272  0.4184
  109OSM    H9F11260   1.418   1.518   9.489 -1.2431  1.8727  0.3899
  109OSM   C10F11261   1.235   1.494   9.413  0.1749 -0.3884 -0.1297
  109OSM   H10F11262   1.252   1.579   9.346 -0.5549  0.4691  0.7726
  109OSM   C11F11263   1.099   1.417   9.385 -0.0396 -0.1208  0.2368
  109OSM   H11F11264   1.015   1.489   9.396 -0.0468 -0.2181  0.8344
  109OSM   H11G11265   1.076   1.327   9.445  1.3913 -3.0166 -3.3490
  109OSM   C12F11266   1.096   1.383   9.229  0.1570 -0.1771  1.0614
  109OSM   H12F11267   1.122   1.472   9.167  0.4872 -0.3512  0.9519
  109OSM   H12G11268   0.993   1.346   9.212  0.4427 -0.5495  0.1419
  109OSM   C13F11269   1.207   1.275   9.205  0.0223 -0.1919 -0.1653
  109OSM   H13F11270   1.178   1.188   9.269 -1.2116  0.9924  0.9326
  109OSM   H13G11271   1.309   1.311   9.229  1.4835 -3.1949 -1.5829
  109OSM   C14F11272   1.204   1.235   9.060  0.3357 -0.0892 -0.1228
  109OSM   H14F11273   1.096   1.226   9.035 -0.0099  0.1657  1.2346
  109OSM   H14G11274   1.249   1.133   9.050 -1.3435 -0.8959  0.3070
  109OSM   C15F11275   1.267   1.341   8.963 -0.3392 -0.5069  0.3156
  109OSM   H15F11276   1.362   1.387   8.998 -1.5582  2.7268 -0.4469
  109OSM   H15G11277   1.200   1.429   8.951  1.2092  0.3462 -2.8308
  109OSM   C16F11278   1.308   1.282   8.826  0.0374 -0.0436 -0.2745
  109OSM   H16F11279   1.366   1.189   8.842 -0.0556 -0.0230  0.1770
  109OSM   H16G11280   1.370   1.357   8.772 -1.0079  1.3023  0.3544
  109OSM   C17F11281   1.179   1.252   8.742  0.0887  0.2527 -0.3391
  109OSM   H17F11282   1.119   1.180   8.801  1.2994 -0.0709  0.5282
  109OSM   H17G11283   1.210   1.206   8.646  1.5186 -1.6893  1.0103
  109OSM   C18F11284   1.114   1.378   8.685 -0.1626  0.0517 -0.7877
  109OSM   H18F11285   1.178   1.401   8.598  1.3530  1.5161  0.6760
  109OSM   H18G11286   1.103   1.462   8.756 -2.1337 -0.3186 -0.6204
  109OSM   H18H11287   1.014   1.354   8.643  0.0987  0.0365 -1.3961
  110OSM      N11288   1.447   5.403  10.984 -0.0814 -0.0309  0.3536
  110OSM    C1511289   1.376   5.535  11.023 -0.2467  0.1590  0.1628
  110OSM   H15A11290   1.268   5.539  11.020 -0.3638 -2.2964 -0.0135
  110OSM   H15B11291   1.408   5.621  10.967 -2.3891  1.9997  1.6998
  110OSM   H15C11292   1.389   5.565  11.126  0.1782 -0.5689  0.3276
  110OSM    C1411293   1.415   5.303  11.093  0.3200 -0.1380  0.5280
  110OSM   H14A11294   1.465   5.316  11.188 -1.6308 -0.8060  1.6982
  110OSM   H14B11295   1.455   5.211  11.055  2.0757  0.3836  1.0476
  110OSM   H14C11296   1.309   5.301  11.115  0.5504  0.7540  1.7738
  110OSM    C1311297   1.378   5.352  10.865  0.2463  0.1198 -0.2251
  110OSM   H13A11298   1.273   5.330  10.877  0.3738 -1.5667 -1.8290
  110OSM   H13B11299   1.420   5.254  10.848 -1.3032 -0.4699 -0.7803
  110OSM   H13C11300   1.390   5.422  10.783  1.3850 -0.6713 -0.7445
  110OSM    C1211301   1.599   5.420  10.960 -0.8434 -0.0561  0.3770
  110OSM   H12A11302   1.640   5.321  10.942 -1.7668 -0.5239  0.8194
  110OSM   H12B11303   1.646   5.462  11.048 -0.0442  1.4934 -0.7709
  110OSM    C1111304   1.655   5.519  10.854 -0.2279  0.0700  0.3036
  110OSM   H11A11305   1.615   5.479  10.759  1.9549  1.7256 -1.3605
  110OSM   H11B11306   1.766   5.512  10.848 -0.2928 -0.0690 -0.8328
  110OSM      P11307   1.678   5.756  10.956 -0.6498 -0.1950 -0.0554
  110OSM    O1311308   1.571   5.847  11.003  0.0376  1.0944  0.2122
  110OSM    O1411309   1.759   5.693  11.060 -0.2325  0.0181 -0.1105
  110OSM    O1111310   1.774   5.844  10.862 -0.4773  0.0451 -0.1952
  110OSM    O1211311   1.611   5.649  10.861 -0.0438 -0.4054 -0.3237
  110OSM    C1S11312   1.794   5.832  10.724 -0.4965  0.0002  0.6263
  110OSM    H1S11313   1.707   5.798  10.664  0.2744 -1.8957  0.5361
  110OSM    H1T11314   1.886   5.770  10.709 -1.2963 -0.8584 -0.8470
  110OSM     NF11315   1.850   5.955  10.503  0.3031 -0.0637 -0.0947
  110OSM    HNF11316   1.944   5.944  10.470  0.7732  0.3719  1.0758
  110OSM    C2S11317   1.838   5.966  10.645 -0.2587 -0.8178 -0.3819
  110OSM    H2S11318   1.759   6.039  10.670  1.3244  1.0930 -0.8824
  110OSM    C3S11319   1.964   6.036  10.706  0.5888 -0.7562 -0.1121
  110OSM    H3S11320   2.047   5.962  10.702  0.8741 -0.3182 -3.3042
  110OSM     O311321   1.945   6.066  10.843  0.0721 -0.3770  0.3815
  110OSM    HO311322   1.896   5.990  10.877 -1.3912  0.0070 -0.7941
  110OSM    C4S11323   2.011   6.167  10.635 -0.1923  0.2058  0.1272
  110OSM    H4S11324   1.938   6.246  10.614  0.6857  1.0088  0.0871
  110OSM    C5S11325   2.129   6.179  10.574 -0.0582  0.2483 -0.3548
  110OSM    H5S11326   2.201   6.096  10.574 -0.9687 -0.5535 -0.6527
  110OSM    C6S11327   2.192   6.295  10.503 -0.1696  0.4846  0.1759
  110OSM    H6S11328   2.256   6.349  10.576 -1.1810  2.2118 -0.1716
  110OSM    H6T11329   2.126   6.382  10.482 -0.0410  0.7919  1.0288
  110OSM    C7S11330   2.274   6.259  10.378 -0.1984  0.3458  1.2783
  110OSM    H7S11331   2.341   6.174  10.404 -0.0961 -1.0717 -3.1321
  110OSM    H7T11332   2.329   6.346  10.336  0.6159 -1.1577 -0.8646
  110OSM    C8S11333   2.183   6.223  10.265 -0.2502  0.1542  0.6127
  110OSM    H8S11334   2.111   6.306  10.252  0.1839  0.1871 -1.7833
  110OSM    H8T11335   2.129   6.134  10.304  1.4119 -1.5055 -0.7504
  110OSM    C9S11336   2.240   6.188  10.130 -0.6922 -0.0676 -0.2684
  110OSM    H9S11337   2.160   6.141  10.069  0.6394 -0.6687 -1.5665
  110OSM    H9T11338   2.332   6.127  10.141  0.6737  1.9112 -0.5766
  110OSM   C10S11339   2.281   6.306  10.046  0.4451 -0.6086  0.0809
  110OSM   H10S11340   2.362   6.359  10.101  0.1154 -0.6273  0.5867
  110OSM   H10T11341   2.191   6.371  10.036  1.2487  0.5376  0.2423
  110OSM   C11S11342   2.320   6.261   9.898 -0.6269  0.5658 -0.8458
  110OSM   H11S11343   2.245   6.195   9.850  0.3854 -1.1482 -0.1507
  110OSM   H11T11344   2.407   6.194   9.918  0.3891  2.0659 -0.1213
  110OSM   C12S11345   2.364   6.368   9.803  0.1799 -0.2254  0.9038
  110OSM   H12S11346   2.437   6.441   9.845  0.3427 -0.3118  0.7695
  110OSM   H12T11347   2.274   6.431   9.785 -0.1318  0.0398  3.1871
  110OSM   C13S11348   2.402   6.324   9.657  0.2604  0.0787 -0.2620
  110OSM   H13S11349   2.490   6.255   9.659 -0.3609 -0.6960  0.7260
  110OSM   H13T11350   2.431   6.413   9.597 -0.7385 -0.0343 -0.9193
  110OSM   C14S11351   2.289   6.250   9.575  0.2060 -0.2328 -0.5683
  110OSM   H14S11352   2.209   6.326   9.557  0.6369  0.5072  0.6067
  110OSM   H14T11353   2.264   6.152   9.620 -1.1900  0.5909  0.4872
  110OSM   C15S11354   2.353   6.202   9.439 -0.4935 -0.9534  0.3568
  110OSM   H15S11355   2.276   6.130   9.404 -0.4543 -0.5317 -0.6170
  110OSM   H15T11356   2.454   6.158   9.451 -0.3877 -0.8475 -0.1644
  110OSM   C16S11357   2.363   6.318   9.337 -0.2670 -0.3535 -0.4468
  110OSM   H16S11358   2.358   6.419   9.384 -4.8537 -1.1408  1.0618
  110OSM   H16T11359   2.268   6.322   9.279  0.8538  0.7277 -2.2472
  110OSM   C17S11360   2.483   6.294   9.238  0.4228 -0.6077 -0.7590
  110OSM   H17S11361   2.464   6.201   9.179 -0.0801 -1.1021  0.1774
  110OSM   H17T11362   2.572   6.290   9.305 -1.0220 -0.0148  1.2512
  110OSM   C18S11363   2.503   6.408   9.149 -0.2256 -0.0777  0.4675
  110OSM   H18S11364   2.531   6.504   9.197  1.0594 -0.4425  0.4604
  110OSM   H18T11365   2.403   6.416   9.101 -0.0907 -0.1446  0.1708
  110OSM   H18U11366   2.585   6.390   9.076  0.5781  2.5334  0.6716
  110OSM    C1F11367   1.756   5.904  10.425 -0.4835 -0.1194 -0.5845
  110OSM     OF11368   1.642   5.886  10.456  0.2851  0.1788  0.6211
  110OSM    C2F11369   1.792   5.881  10.281 -0.6287 -0.0578  0.1922
  110OSM    H2F11370   1.723   5.802  10.243 -1.8521  0.8639  0.4811
  110OSM    H2G11371   1.891   5.832  10.266 -0.2298  0.3593  1.4499
  110OSM    C3F11372   1.785   6.010  10.199  0.4831 -0.5039 -0.2342
  110OSM    H3F11373   1.844   6.092  10.247 -1.8857  1.2306 -0.2054
  110OSM    H3G11374   1.684   6.056  10.196  0.3696 -0.7788 -0.6398
  110OSM    C4F11375   1.845   6.002  10.055 -0.3487 -0.0570 -0.5590
  110OSM    H4F11376   1.783   5.944   9.983  1.4046 -3.1532  0.3108
  110OSM    H4G11377   1.939   5.942  10.051  0.3984  1.1111 -0.7578
  110OSM    C5F11378   1.869   6.143   9.991  0.3560 -0.5504  0.0307
  110OSM    H5F11379   1.937   6.213  10.044  0.0675 -0.4771  0.3035
  110OSM    H5G11380   1.771   6.194   9.982  0.6275 -0.0837 -0.3117
  110OSM    C6F11381   1.924   6.143   9.841 -0.1736 -0.7257 -0.5092
  110OSM    H6F11382   1.856   6.082   9.777  0.7852 -1.6214 -0.6805
  110OSM    H6G11383   2.026   6.101   9.830 -0.0907  0.1025 -3.1282
  110OSM    C7F11384   1.946   6.289   9.788  0.0464 -0.4424  0.5379
  110OSM    H7F11385   2.055   6.308   9.794 -0.2955  1.6575  0.5297
  110OSM    H7G11386   1.898   6.376   9.838  0.3880  0.6150 -0.9268
  110OSM    C8F11387   1.901   6.297   9.638  0.0414 -0.6835  0.2501
  110OSM    H8F11388   1.792   6.274   9.630 -0.4878  1.5304  0.7109
  110OSM    H8G11389   1.948   6.219   9.575  0.2529 -0.7678  0.5097
  110OSM    C9F11390   1.944   6.433   9.577  0.0372  1.0390  0.3644
  110OSM    H9F11391   2.053   6.445   9.582 -0.0539  1.1812  2.2815
  110OSM   C10F11392   1.874   6.527   9.516  0.9511 -0.7927 -0.4401
  110OSM   H10F11393   1.925   6.618   9.479 -1.4962  0.4789 -0.7857
  110OSM   C11F11394   1.720   6.519   9.506 -0.0539 -0.4806 -0.0469
  110OSM   H11F11395   1.679   6.614   9.467  0.4346 -0.7223 -1.1583
  110OSM   H11G11396   1.667   6.498   9.602  0.6389 -0.7369  0.2820
  110OSM   C12F11397   1.675   6.419   9.403  0.4598  0.1510 -0.0451
  110OSM   H12F11398   1.565   6.426   9.388  0.2650 -1.5902  0.4083
  110OSM   H12G11399   1.700   6.328   9.461  2.2845  1.4428  1.2219
  110OSM   C13F11400   1.746   6.432   9.265  0.2684  0.1859 -0.1454
  110OSM   H13F11401   1.845   6.385   9.279 -1.1895 -2.6930  0.9925
  110OSM   H13G11402   1.742   6.538   9.231  3.4225  0.0625 -0.9964
  110OSM   C14F11403   1.668   6.350   9.159 -0.1503 -0.0107  0.3114
  110OSM   H14F11404   1.561   6.377   9.151 -0.3945 -0.7238  1.1439
  110OSM   H14G11405   1.676   6.244   9.192 -2.2378 -0.3523 -0.1913
  110OSM   C15F11406   1.730   6.376   9.015 -0.5327 -0.7104  0.3224
  110OSM   H15F11407   1.841   6.379   9.012 -0.5296 -1.0900 -0.0830
  110OSM   H15G11408   1.696   6.475   8.978  1.2809  0.1516  0.9173
  110OSM   C16F11409   1.688   6.271   8.908  0.1214 -0.7014 -0.0393
  110OSM   H16F11410   1.578   6.276   8.892  0.1863  0.1480 -0.2183
  110OSM   H16G11411   1.713   6.169   8.944 -1.0812 -0.8620  0.3401
  110OSM   C17F11412   1.765   6.295   8.772 -0.1954 -0.0513 -0.2762
  110OSM   H17F11413   1.770   6.199   8.715 -0.4617 -1.5656  2.2006
  110OSM   H17G11414   1.865   6.326   8.810 -1.1381  1.8733  0.6397
  110OSM   C18F11415   1.717   6.410   8.685  0.9132 -0.3469  0.5032
  110OSM   H18F11416   1.782   6.424   8.596  0.3982  1.1984  0.3677
  110OSM   H18G11417   1.712   6.502   8.746 -1.0438 -1.3797  1.9647
  110OSM   H18H11418   1.614   6.398   8.645  0.7565  2.7699 -0.1025
  111OSM      N11419   3.359   4.116  10.635 -0.9658  0.5677  0.3596
  111OSM    C1511420   3.295   3.996  10.705  0.8235 -0.0111  0.2554
  111OSM   H15A11421   3.357   3.976  10.791 -0.5700 -1.0630  1.0480
  111OSM   H15B11422   3.276   3.912  10.640 -1.0851 -0.3889  1.2365
  111OSM   H15C11423   3.200   4.021  10.751  0.5788 -0.6549  0.1089
  111OSM    C1411424   3.308   4.138  10.492 -0.2925  0.7056 -0.7879
  111OSM   H14A11425   3.358   4.225  10.453 -0.7927  0.8786 -1.0433
  111OSM   H14B11426   3.202   4.159  10.498  0.1315  2.3803  1.2103
  111OSM   H14C11427   3.349   4.060  10.430 -1.5172  0.1786 -0.9578
  111OSM    C1311428   3.317   4.238  10.705 -0.2560  0.0872  0.4236
  111OSM   H13A11429   3.377   4.256  10.793 -1.1577  0.3108  0.9964
  111OSM   H13B11430   3.215   4.235  10.739 -0.2376  2.2514  0.7807
  111OSM   H13C11431   3.349   4.324  10.648  0.4034 -0.8121 -0.5732
  111OSM    C1211432   3.512   4.097  10.624 -0.0501 -0.1285  0.6151
  111OSM   H12A11433   3.530   3.996  10.589 -0.4362  0.9072 -2.8040
  111OSM   H12B11434   3.557   4.106  10.721  1.3126 -1.2129  0.1034
  111OSM    C1111435   3.587   4.206  10.547 -0.7980  0.5105 -0.2497
  111OSM   H11A11436   3.562   4.217  10.440  0.0686  1.2656 -0.3783
  111OSM   H11B11437   3.690   4.165  10.537 -1.7612 -1.4238 -2.7213
  111OSM      P11438   3.562   4.464  10.528 -0.4170  0.1312 -0.1106
  111OSM    O1311439   3.545   4.575  10.624 -0.1202  0.7563 -1.0645
  111OSM    O1411440   3.665   4.490  10.423 -0.5266 -0.0353 -0.7728
  111OSM    O1111441   3.420   4.433  10.454 -0.1410 -0.3390 -0.4531
  111OSM    O1211442   3.587   4.332  10.607  0.6368  0.0454 -0.0872
  111OSM    C1S11443   3.301   4.513  10.471  0.3068  0.5416 -0.1652
  111OSM    H1S11444   3.304   4.575  10.563  1.7554  1.3131 -0.6988
  111OSM    H1T11445   3.218   4.440  10.479  0.6383  0.0557 -1.1200
  111OSM     NF11446   3.221   4.739  10.385  0.1830  0.5271  0.5689
  111OSM    HNF11447   3.127   4.734  10.351 -0.1596 -1.6173  1.7271
  111OSM    C2S11448   3.299   4.619  10.358  0.1991  0.4071  0.8430
  111OSM    H2S11449   3.402   4.655  10.337 -0.1095 -0.5059 -2.5597
  111OSM    C3S11450   3.272   4.550  10.214 -0.0108  0.7754 -0.7333
  111OSM    H3S11451   3.169   4.509  10.217  0.4072 -0.3559 -1.8292
  111OSM     O311452   3.357   4.432  10.202  0.1516 -0.2683 -0.2729
  111OSM    HO311453   3.400   4.426  10.288 -0.9534  0.4286  0.3419
  111OSM    C4S11454   3.307   4.638  10.102  0.0326  0.4821  0.0927
  111OSM    H4S11455   3.417   4.644  10.093 -0.0371  0.9903 -0.4260
  111OSM    C5S11456   3.226   4.697  10.006  0.4398  0.1229  0.4768
  111OSM    H5S11457   3.117   4.678  10.003  0.8604 -2.7095  1.7843
  111OSM    C6S11458   3.282   4.785   9.898  0.6786 -0.1743  0.4184
  111OSM    H6S11459   3.393   4.788   9.905  0.8667  1.8634 -2.4511
  111OSM    H6T11460   3.242   4.889   9.904 -0.1107 -0.4061 -0.7025
  111OSM    C7S11461   3.226   4.741   9.763  0.5394 -0.7874  0.1484
  111OSM    H7S11462   3.272   4.797   9.679  3.5216 -1.7106  1.0736
  111OSM    H7T11463   3.117   4.751   9.745  0.4879 -0.1411  0.8050
  111OSM    C8S11464   3.276   4.608   9.718  0.4059 -0.0818  0.0310
  111OSM    H8S11465   3.239   4.527   9.784  0.7674  0.2889  0.6962
  111OSM    H8T11466   3.387   4.600   9.723  0.6010  2.2157 -0.2126
  111OSM    C9S11467   3.211   4.556   9.583 -0.8495  0.3953  0.0187
  111OSM    H9S11468   3.101   4.572   9.593 -0.9561  0.4728 -1.1711
  111OSM    H9T11469   3.218   4.445   9.579 -0.9627  0.3269  1.6537
  111OSM   C10S11470   3.250   4.633   9.455 -0.0010  0.0094 -0.6777
  111OSM   H10S11471   3.359   4.654   9.460  0.1250 -1.0036  1.9270
  111OSM   H10T11472   3.212   4.737   9.456 -1.2754 -0.4312 -2.3368
  111OSM   C11S11473   3.196   4.581   9.316  0.9777 -0.0163 -0.4061
  111OSM   H11S11474   3.215   4.472   9.310  0.3865 -0.3207  2.6332
  111OSM   H11T11475   3.278   4.622   9.252  0.9184  1.6979  0.5901
  111OSM   C12S11476   3.053   4.631   9.291  0.4419  0.4239  0.0891
  111OSM   H12S11477   3.051   4.740   9.312  0.4478  0.2850  0.8220
  111OSM   H12T11478   3.001   4.580   9.374  0.7029 -1.0655 -0.6489
  111OSM   C13S11479   3.005   4.605   9.147 -0.2050 -1.0625 -0.1470
  111OSM   H13S11480   2.894   4.614   9.142 -0.0871 -0.8245 -3.7279
  111OSM   H13T11481   3.033   4.502   9.116  0.6801 -0.6732 -0.6435
  111OSM   C14S11482   3.067   4.679   9.035 -0.0740 -0.1734 -0.2155
  111OSM   H14S11483   3.178   4.678   9.030 -0.0261  0.6917  0.5200
  111OSM   H14T11484   3.042   4.787   9.043  0.4677 -0.0972  0.5426
  111OSM   C15S11485   3.018   4.642   8.897  0.5008  0.3287  0.1236
  111OSM   H15S11486   2.991   4.534   8.888  0.8893  0.1709  0.8469
  111OSM   H15T11487   3.102   4.659   8.826 -0.1151  0.8009 -0.5026
  111OSM   C16S11488   2.894   4.721   8.846 -0.1412 -0.2808 -0.3820
  111OSM   H16S11489   2.932   4.821   8.820  1.1338 -0.3471  1.1147
  111OSM   H16T11490   2.825   4.741   8.932 -0.9775 -1.9174 -0.6450
  111OSM   C17S11491   2.825   4.649   8.734 -0.4556 -0.0195  0.1870
  111OSM   H17S11492   2.903   4.639   8.656  1.1491  1.8334  1.5233
  111OSM   H17T11493   2.743   4.712   8.694 -0.0074  0.2445 -0.3225
  111OSM   C18S11494   2.750   4.517   8.768  0.2154 -0.0314 -0.3017
  111OSM   H18S11495   2.817   4.433   8.740  1.9914  1.2467 -0.0212
  111OSM   H18T11496   2.652   4.501   8.719  0.5449 -2.0568 -0.3513
  111OSM   H18U11497   2.729   4.505   8.876 -0.7350  0.6218 -0.4031
  111OSM    C1F11498   3.250   4.841  10.465 -0.0786 -0.5012 -0.6478
  111OSM     OF11499   3.349   4.819  10.535 -0.6633  0.1486 -0.1827
  111OSM    C2F11500   3.154   4.957  10.479  0.0448 -0.5589  0.4675
  111OSM    H2F11501   3.155   4.984  10.587  0.1080 -0.7051  0.5037
  111OSM    H2G11502   3.054   4.924  10.444 -0.0251 -2.0012  1.9358
  111OSM    C3F11503   3.207   5.077  10.409 -0.0371 -0.7562  1.2205
  111OSM    H3F11504   3.233   5.053  10.303 -1.2891  1.7632  0.3113
  111OSM    H3G11505   3.297   5.118  10.458  0.4368 -2.9172  2.2551
  111OSM    C4F11506   3.101   5.186  10.384 -0.2749  0.5069 -0.0211
  111OSM    H4F11507   3.151   5.285  10.370 -1.7818  1.0998 -1.3848
  111OSM    H4G11508   3.042   5.190  10.478 -1.3669  0.8815 -0.7046
  111OSM    C5F11509   3.006   5.147  10.264  0.1841 -0.0696  0.5523
  111OSM    H5F11510   2.902   5.181  10.283 -0.1605 -1.2845  0.8498
  111OSM    H5G11511   2.986   5.038  10.256  1.1043 -0.0953 -1.5918
  111OSM    C6F11512   3.056   5.210  10.137 -0.0756 -0.5862 -0.1780
  111OSM    H6F11513   3.162   5.187  10.117 -0.2967  0.7651 -3.0676
  111OSM    H6G11514   3.045   5.320  10.140  1.2700 -0.4611  0.2208
  111OSM    C7F11515   2.980   5.170  10.013 -0.5356 -0.5478 -0.4639
  111OSM    H7F11516   2.880   5.214  10.035 -0.0387  0.1317  0.4692
  111OSM    H7G11517   2.966   5.060  10.005 -0.9451 -0.6778  1.8255
  111OSM    C8F11518   3.048   5.216   9.884 -0.2659 -0.2567  0.4402
  111OSM    H8F11519   3.003   5.168   9.795 -0.5241  1.7200 -0.5244
  111OSM    H8G11520   3.154   5.181   9.886  0.6724  2.4439  0.2927
  111OSM    C9F11521   3.055   5.365   9.869 -0.0113  0.1916 -0.1908
  111OSM    H9F11522   3.125   5.402   9.946 -3.2257  1.9012  2.0219
  111OSM   C10F11523   2.987   5.455   9.801  0.2450 -0.4410 -0.0894
  111OSM   H10F11524   3.005   5.561   9.821  1.6029 -0.6503 -0.1824
  111OSM   C11F11525   2.871   5.432   9.704  0.2537 -0.2050  0.1290
  111OSM   H11F11526   2.782   5.479   9.752 -0.9001 -2.2657  0.0608
  111OSM   H11G11527   2.842   5.327   9.682  1.0024 -1.0263  2.8763
  111OSM   C12F11528   2.902   5.509   9.568  0.0143 -0.3684 -0.1741
  111OSM   H12F11529   2.936   5.612   9.590  0.2465 -0.1151 -1.6979
  111OSM   H12G11530   2.805   5.517   9.515  0.0442 -0.1529 -0.1949
  111OSM   C13F11531   3.002   5.433   9.477  0.6938 -0.4218  0.0035
  111OSM   H13F11532   2.939   5.363   9.417 -0.0710 -0.5089  0.8924
  111OSM   H13G11533   3.067   5.370   9.542  0.2940  0.0054  0.8298
  111OSM   C14F11534   3.091   5.515   9.388 -0.2255  0.2008 -0.3475
  111OSM   H14F11535   3.159   5.446   9.334 -0.1595  0.8260 -1.0731
  111OSM   H14G11536   3.154   5.585   9.447 -2.5252  1.6216  0.5108
  111OSM   C15F11537   3.017   5.606   9.284  0.0715 -1.0397 -0.6055
  111OSM   H15F11538   2.931   5.664   9.324 -0.3394 -2.1794  0.1843
  111OSM   H15G11539   2.969   5.548   9.203 -0.5198 -0.3002 -0.7900
  111OSM   C16F11540   3.111   5.700   9.210 -0.7161 -0.4176 -0.5536
  111OSM   H16F11541   3.180   5.743   9.287 -1.2403  1.9698 -1.3840
  111OSM   H16G11542   3.052   5.786   9.172  2.7854  2.2636 -0.1724
  111OSM   C17F11543   3.192   5.624   9.112 -0.4171 -0.0346 -0.3819
  111OSM   H17F11544   3.125   5.576   9.038 -0.4673 -1.1393  0.3755
  111OSM   H17G11545   3.250   5.544   9.162 -1.5035  1.8741  4.2122
  111OSM   C18F11546   3.296   5.717   9.037  0.1642  0.7926 -0.4968
  111OSM   H18F11547   3.246   5.769   8.952 -0.2824 -2.1582 -2.0992
  111OSM   H18G11548   3.378   5.652   9.001 -1.6907 -2.4040  0.8623
  111OSM   H18H11549   3.339   5.784   9.114  0.8754 -0.4144  0.1591
  112OSM      N11550   2.043   1.985  11.046 -0.0325 -0.0959 -0.1706
  112OSM    C1511551   1.959   1.917  10.950  0.0015 -0.2823 -0.3649
  112OSM   H15A11552   1.958   1.810  10.969 -0.7251 -0.3721 -0.8726
  112OSM   H15B11553   1.989   1.940  10.849  2.6516  0.7890  0.6301
  112OSM   H15C11554   1.853   1.938  10.955 -0.0373 -0.6412  0.3757
  112OSM    C1411555   1.999   2.125  11.076  0.0796  0.7237 -0.1152
  112OSM   H14A11556   2.066   2.158  11.153  1.7735 -0.2960 -1.1173
  112OSM   H14B11557   1.896   2.134  11.108  0.2162  0.9245  0.2532
  112OSM   H14C11558   2.023   2.187  10.991 -0.3022  0.4260 -0.4437
  112OSM    C1311559   2.041   1.911  11.178 -0.1133  0.9985  0.1818
  112OSM   H13A11560   2.125   1.937  11.242 -0.1826  1.9642 -0.1215
  112OSM   H13B11561   2.044   1.804  11.163  2.9993  1.0672 -0.0868
  112OSM   H13C11562   1.951   1.931  11.233 -1.5568  0.3862 -1.8918
  112OSM    C1211563   2.182   1.995  10.990  0.4082 -0.7683 -1.3228
  112OSM   H12A11564   2.228   1.898  10.992  1.4272 -0.2870 -1.0739
  112OSM   H12B11565   2.250   2.044  11.058 -0.4112 -1.2827 -0.1342
  112OSM    C1111566   2.190   2.053  10.847  0.3054  0.1926  0.0910
  112OSM   H11A11567   2.124   1.996  10.778 -1.3008  2.4179 -0.2790
  112OSM   H11B11568   2.295   2.039  10.815  0.1900 -0.2729 -0.0732
  112OSM      P11569   2.258   2.297  10.779  0.6191 -0.0397 -0.0957
  112OSM    O1311570   2.204   2.436  10.786  0.2620 -0.2087 -0.6141
  112OSM    O1411571   2.392   2.275  10.832 -0.2986  0.0602 -0.4391
  112OSM    O1111572   2.258   2.249  10.631  0.6140 -0.0364  0.2238
  112OSM    O1211573   2.159   2.190  10.846 -0.2333 -0.6196  0.7908
  112OSM    C1S11574   2.146   2.243  10.546  0.0776  0.0203  0.2044
  112OSM    H1S11575   2.128   2.351  10.524 -0.5842 -0.1327 -0.0218
  112OSM    H1T11576   2.050   2.210  10.592  1.0051 -0.4671  1.8493
  112OSM     NF11577   2.072   2.226  10.305 -0.4119  0.3532  0.4630
  112OSM    HNF11578   2.019   2.143  10.290  0.4586 -0.0185 -0.6424
  112OSM    C2S11579   2.174   2.185  10.400 -0.1346 -0.1622  0.0737
  112OSM    H2S11580   2.273   2.229  10.376  0.3556 -0.3734  1.6305
  112OSM    C3S11581   2.190   2.029  10.405  0.0070  0.0783 -0.1433
  112OSM    H3S11582   2.091   1.979  10.415 -1.3965  2.8565  0.3323
  112OSM     O311583   2.270   1.986  10.516 -0.1767 -0.3059  0.4033
  112OSM    HO311584   2.263   2.058  10.579 -0.0795  0.2218 -0.1762
  112OSM    C4S11585   2.263   1.982  10.274 -0.1458 -0.5023 -0.5062
  112OSM    H4S11586   2.370   2.005  10.272 -0.3261  0.3462 -0.8436
  112OSM    C5S11587   2.190   1.937  10.169  1.0418  0.4832 -0.0801
  112OSM    H5S11588   2.081   1.925  10.179  0.8505  0.7997 -1.6183
  112OSM    C6S11589   2.255   1.892  10.045 -0.3752  0.8218 -0.5155
  112OSM    H6S11590   2.322   1.805  10.059 -0.9941 -0.2770 -3.8438
  112OSM    H6T11591   2.323   1.972  10.008 -0.4824  1.3852  0.5014
  112OSM    C7S11592   2.155   1.859   9.931 -0.1355 -0.1499  0.4904
  112OSM    H7S11593   2.096   1.949   9.901  1.1745  0.6768  0.3321
  112OSM    H7T11594   2.081   1.783   9.965 -0.0694  0.3791  1.8587
  112OSM    C8S11595   2.225   1.807   9.805 -0.6633  0.0939  0.4115
  112OSM    H8S11596   2.260   1.704   9.827  0.7789  0.1230 -1.5363
  112OSM    H8T11597   2.307   1.874   9.771  0.4732  0.1738  3.1859
  112OSM    C9S11598   2.134   1.788   9.683 -0.3337 -0.4127 -0.4047
  112OSM    H9S11599   2.199   1.738   9.608  0.1427 -0.3944 -0.0051
  112OSM    H9T11600   2.119   1.890   9.640  2.6038  0.0687 -0.3799
  112OSM   C10S11601   2.005   1.716   9.715 -0.5227  0.2575 -0.6933
  112OSM   H10S11602   1.951   1.773   9.793 -1.2751 -3.5283  1.7249
  112OSM   H10T11603   2.023   1.615   9.759 -0.5216  0.6450  0.2035
  112OSM   C11S11604   1.919   1.695   9.590 -0.2826  0.1912  0.4714
  112OSM   H11S11605   1.894   1.798   9.558 -1.5172  0.2161  1.4764
  112OSM   H11T11606   1.825   1.637   9.605 -0.0934 -0.0426  0.7585
  112OSM   C12S11607   1.997   1.627   9.471 -0.3746  0.4911  0.4106
  112OSM   H12S11608   2.030   1.526   9.506  0.0904  1.1927  2.0724
  112OSM   H12T11609   2.081   1.694   9.442 -1.2932  1.2937 -0.4377
  112OSM   C13S11610   1.903   1.601   9.359  0.2369 -0.2455  0.6063
  112OSM   H13S11611   1.861   1.696   9.319 -1.8784 -0.8001  1.4556
  112OSM   H13T11612   1.817   1.542   9.395 -1.1898  1.5252  0.1852
  112OSM   C14S11613   1.972   1.510   9.258  0.1531  0.1151  0.6223
  112OSM   H14S11614   2.021   1.428   9.315  0.8335  0.8189  1.0651
  112OSM   H14T11615   2.058   1.568   9.217 -0.1375  1.5714  2.0132
  112OSM   C15S11616   1.880   1.441   9.151  0.3361  0.4081  0.2985
  112OSM   H15S11617   1.791   1.398   9.201  0.1315 -1.2998 -1.4878
  112OSM   H15T11618   1.942   1.367   9.097 -1.3528 -0.5020 -0.4368
  112OSM   C16S11619   1.825   1.540   9.052  0.6150  0.5143 -0.1614
  112OSM   H16S11620   1.906   1.603   9.008  1.0251  0.0828 -0.0218
  112OSM   H16T11621   1.757   1.608   9.109 -1.8130 -1.0663 -1.0952
  112OSM   C17S11622   1.745   1.465   8.944  0.6544 -0.2241  0.4953
  112OSM   H17S11623   1.654   1.419   8.988  0.7052 -1.9954 -1.1713
  112OSM   H17T11624   1.821   1.388   8.919  0.9573  0.2203  0.0368
  112OSM   C18S11625   1.704   1.552   8.817  0.2405  0.1736 -0.1871
  112OSM   H18S11626   1.628   1.629   8.840 -1.2978 -1.5146  0.4901
  112OSM   H18T11627   1.662   1.471   8.752 -0.9617 -0.5635  1.4797
  112OSM   H18U11628   1.797   1.593   8.771 -0.0245 -0.9698 -1.8168
  112OSM    C1F11629   2.045   2.353  10.268 -0.4710 -0.3497  0.0932
  112OSM     OF11630   2.119   2.446  10.301 -0.4674 -0.5933  0.7739
  112OSM    C2F11631   1.924   2.374  10.187  0.7548  0.1224  0.1222
  112OSM    H2F11632   1.857   2.439  10.248  1.3361  0.4432  0.4285
  112OSM    H2G11633   1.883   2.275  10.157  0.5951 -1.1795  4.3895
  112OSM    C3F11634   1.968   2.456  10.057 -0.6596  0.4601 -0.3463
  112OSM    H3F11635   2.036   2.400   9.990 -1.4818 -0.4099 -0.4602
  112OSM    H3G11636   2.033   2.541  10.087 -0.6362  0.2734  0.1303
  112OSM    C4F11637   1.851   2.498   9.961  0.0393  0.4195 -0.4642
  112OSM    H4F11638   1.798   2.591   9.990  1.3930  0.7456  1.0350
  112OSM    H4G11639   1.773   2.418   9.960  1.7894 -1.3728  1.2299
  112OSM    C5F11640   1.889   2.506   9.818 -0.1163 -0.1484  0.5794
  112OSM    H5F11641   1.923   2.405   9.787 -0.7811  0.6236 -2.8231
  112OSM    H5G11642   1.963   2.588   9.804 -2.4046  1.6149 -1.6138
  112OSM    C6F11643   1.770   2.535   9.721 -0.7266 -0.0137  0.4596
  112OSM    H6F11644   1.768   2.645   9.707 -2.6079 -0.1440 -0.3731
  112OSM    H6G11645   1.679   2.497   9.772 -1.0440  0.1408  0.0082
  112OSM    C7F11646   1.771   2.477   9.581  0.5359 -0.4962 -0.1748
  112OSM    H7F11647   1.671   2.483   9.533  0.2356  0.9625  0.5877
  112OSM    H7G11648   1.797   2.369   9.578 -0.0120 -0.5930 -1.9813
  112OSM    C8F11649   1.874   2.543   9.488  0.2748  0.1240  0.0978
  112OSM    H8F11650   1.874   2.486   9.393  1.0205 -3.1855  2.0289
  112OSM    H8G11651   1.972   2.521   9.536  0.1255 -0.4132  0.1559
  112OSM    C9F11652   1.847   2.687   9.467 -0.1751 -0.4742 -0.5518
  112OSM    H9F11653   1.886   2.746   9.551  0.0723  0.1476 -1.0980
  112OSM   C10F11654   1.759   2.735   9.376 -0.0178  0.4020 -0.1633
  112OSM   H10F11655   1.740   2.844   9.373 -0.0808  0.4321  1.0139
  112OSM   C11F11656   1.679   2.661   9.274 -0.2340  0.7707  0.9627
  112OSM   H11F11657   1.571   2.677   9.297  0.0573  0.4818  2.5525
  112OSM   H11G11658   1.705   2.554   9.284  0.9087  0.8858 -0.6505
  112OSM   C12F11659   1.704   2.704   9.129  0.5159  0.1988 -0.4897
  112OSM   H12F11660   1.688   2.814   9.123  2.9373  0.6167  0.4901
  112OSM   H12G11661   1.631   2.646   9.067 -0.1143  0.2280  0.2201
  112OSM   C13F11662   1.848   2.677   9.078  0.2228  1.0048 -0.2246
  112OSM   H13F11663   1.885   2.573   9.092  1.0616  1.3324 -0.0061
  112OSM   H13G11664   1.913   2.743   9.139 -1.5439 -0.5151  3.5222
  112OSM   C14F11665   1.872   2.707   8.927 -0.2173  0.1247 -0.0683
  112OSM   H14F11666   1.979   2.731   8.912 -0.8497  2.7393 -0.6382
  112OSM   H14G11667   1.817   2.803   8.916  0.2151  0.5493  1.3140
  112OSM   C15F11668   1.811   2.610   8.825  0.4370  0.5582 -0.3220
  112OSM   H15F11669   1.785   2.666   8.732  0.6441  1.3117  0.0768
  112OSM   H15G11670   1.713   2.568   8.857 -0.0546  0.7734 -1.5194
  112OSM   C16F11671   1.916   2.501   8.795  0.1003 -0.6368 -0.4556
  112OSM   H16F11672   1.865   2.406   8.767  0.6986 -0.8981 -0.6564
  112OSM   H16G11673   1.973   2.483   8.889  0.1195  0.1360 -0.3124
  112OSM   C17F11674   2.007   2.544   8.681  0.3282 -0.5967 -0.0461
  112OSM   H17F11675   2.048   2.643   8.711  0.2868 -0.9985  1.4160
  112OSM   H17G11676   1.950   2.556   8.587  2.0711  3.2289 -0.7169
  112OSM   C18F11677   2.121   2.444   8.661  0.3626  0.4063  0.0960
  112OSM   H18F11678   2.186   2.429   8.750 -2.4070  0.1220  2.1468
  112OSM   H18G11679   2.175   2.464   8.566  1.4784 -0.7374  0.4769
  112OSM   H18H11680   2.080   2.340   8.660  1.8818 -0.2045 -2.3090
  113OSM      N11681   2.296   1.035  11.208  0.2926 -0.9107 -0.1553
  113OSM    C1511682   2.319   0.958  11.334  0.2879 -0.1952 -0.3126
  113OSM   H15A11683   2.236   0.948  11.403  1.3294 -0.1560  0.9638
  113OSM   H15B11684   2.404   0.992  11.391 -0.7806  0.0346  1.1817
  113OSM   H15C11685   2.335   0.853  11.314  0.4325  0.0973 -1.7694
  113OSM    C1411686   2.417   1.029  11.136 -0.0415 -0.1341 -0.3113
  113OSM   H14A11687   2.502   1.045  11.200 -1.0826  0.4243  0.9531
  113OSM   H14B11688   2.411   1.095  11.050  0.8514  0.2529 -0.0762
  113OSM   H14C11689   2.429   0.933  11.088  0.0536  0.7905 -2.2120
  113OSM    C1311690   2.187   0.980  11.133  0.1522 -0.1721 -0.4621
  113OSM   H13A11691   2.097   0.991  11.192  0.9289 -0.0373  0.7077
  113OSM   H13B11692   2.196   0.874  11.115 -2.9683 -0.5916  0.1188
  113OSM   H13C11693   2.153   1.034  11.046 -2.1024  0.8877  0.9926
  113OSM    C1211694   2.264   1.188  11.248  0.3322 -0.8064 -0.0442
  113OSM   H12A11695   2.359   1.222  11.287 -0.1521  1.0987 -0.4595
  113OSM   H12B11696   2.183   1.183  11.320 -1.3736  0.0475 -1.8630
  113OSM    C1111697   2.210   1.283  11.141 -0.1680 -0.1104  0.2321
  113OSM   H11A11698   2.197   1.384  11.183 -3.9755 -0.0102 -1.0210
  113OSM   H11B11699   2.114   1.252  11.095  1.0640 -0.2732 -2.3541
  113OSM      P11700   2.418   1.398  11.017 -0.1077  0.4665  0.3347
  113OSM    O1311701   2.357   1.528  11.011 -0.0252 -1.0321 -0.8011
  113OSM    O1411702   2.525   1.390  11.124 -0.1469  0.0579  0.3538
  113OSM    O1111703   2.478   1.368  10.881  0.4600 -0.1782  0.8116
  113OSM    O1211704   2.306   1.288  11.033 -0.1487 -0.2616 -0.1194
  113OSM    C1S11705   2.516   1.232  10.845  0.2300 -0.5993  0.4322
  113OSM    H1S11706   2.451   1.152  10.886 -0.5213 -1.3685 -2.1799
  113OSM    H1T11707   2.616   1.206  10.888  0.2581 -1.2927 -0.0501
  113OSM     NF11708   2.552   1.061  10.667  0.3159 -0.4449 -0.5972
  113OSM    HNF11709   2.647   1.040  10.647  0.3842  1.1622 -2.1524
  113OSM    C2S11710   2.518   1.201  10.690  0.3829 -0.2380  0.1084
  113OSM    H2S11711   2.417   1.221  10.649  1.8337  0.3211 -3.3881
  113OSM    C3S11712   2.618   1.306  10.624  0.1695 -0.2268  0.2275
  113OSM    H3S11713   2.720   1.267  10.648 -0.6163 -1.6785  1.2579
  113OSM     O311714   2.607   1.439  10.675 -0.2549  0.1903 -0.4361
  113OSM    HO311715   2.557   1.434  10.757 -0.8199  0.4995 -0.7607
  113OSM    C4S11716   2.602   1.313  10.472  0.7793 -0.3919 -0.4382
  113OSM    H4S11717   2.504   1.355  10.444  0.9067  0.4036  0.2820
  113OSM    C5S11718   2.697   1.294  10.382  0.4571  0.0664  0.4269
  113OSM    H5S11719   2.797   1.261  10.416  0.0741 -1.6979 -0.1183
  113OSM    C6S11720   2.693   1.307  10.231  0.3150  0.2215  0.8591
  113OSM    H6S11721   2.595   1.341  10.193  0.1335 -0.3268  0.8439
  113OSM    H6T11722   2.698   1.205  10.189 -0.7459  0.0555  1.1324
  113OSM    C7S11723   2.818   1.393  10.188  0.3918  0.0050  0.5785
  113OSM    H7S11724   2.910   1.364  10.242 -0.3502  0.0166  1.8877
  113OSM    H7T11725   2.809   1.503  10.208  0.6631  0.2785 -0.7920
  113OSM    C8S11726   2.840   1.370  10.035 -0.5430  0.0559  0.1413
  113OSM    H8S11727   2.742   1.363   9.981 -1.2847  0.8149  1.3679
  113OSM    H8T11728   2.888   1.272  10.015  1.1615  0.9973 -0.4612
  113OSM    C9S11729   2.928   1.467   9.967 -0.0928 -0.1673  0.1542
  113OSM    H9S11730   3.030   1.475  10.012 -0.4882 -0.4355  1.1126
  113OSM    H9T11731   2.890   1.571   9.971  0.5262 -0.0336  3.9836
  113OSM   C10S11732   2.956   1.425   9.818 -0.3369 -0.8700 -0.0633
  113OSM   H10S11733   2.856   1.411   9.771  0.2765  1.2055 -2.0548
  113OSM   H10T11734   3.013   1.330   9.814  1.0727 -0.0894  1.1823
  113OSM   C11S11735   3.032   1.524   9.724 -0.2123  0.0128 -0.0418
  113OSM   H11S11736   3.135   1.538   9.761  0.5534 -0.9590 -1.7621
  113OSM   H11T11737   2.977   1.621   9.729 -1.2996 -0.5747 -0.2915
  113OSM   C12S11738   3.039   1.484   9.572  0.4460  0.0790 -0.1657
  113OSM   H12S11739   2.941   1.477   9.519 -0.4769 -2.8749  1.7525
  113OSM   H12T11740   3.081   1.381   9.568 -0.5076 -0.3211 -0.1755
  113OSM   C13S11741   3.112   1.589   9.491 -0.1907 -0.4663 -0.1198
  113OSM   H13S11742   3.200   1.625   9.549  0.0632 -3.3861  1.4093
  113OSM   H13T11743   3.043   1.675   9.477 -1.1447 -0.5336  3.5999
  113OSM   C14S11744   3.154   1.525   9.360 -0.0283 -0.2127  0.5730
  113OSM   H14S11745   3.070   1.478   9.305  0.6653  1.5697 -2.1172
  113OSM   H14T11746   3.216   1.435   9.381  0.5355 -0.7329 -2.9617
  113OSM   C15S11747   3.229   1.627   9.266 -0.2884  0.0147  0.7374
  113OSM   H15S11748   3.330   1.652   9.305 -0.6865  2.2666  0.3567
  113OSM   H15T11749   3.162   1.715   9.267  0.9203  0.9873 -1.3015
  113OSM   C16S11750   3.228   1.578   9.119 -0.8552  0.7552  0.1752
  113OSM   H16S11751   3.126   1.544   9.089 -0.6445  1.7204 -1.6803
  113OSM   H16T11752   3.294   1.489   9.127  0.8693  2.1725  2.2544
  113OSM   C17S11753   3.283   1.678   9.016  0.1878  0.7691  0.1752
  113OSM   H17S11754   3.296   1.616   8.924  0.6147  0.3470  0.5113
  113OSM   H17T11755   3.381   1.711   9.057  1.2190  0.7393 -2.2191
  113OSM   C18S11756   3.198   1.796   8.976  0.2572 -0.1828  0.5699
  113OSM   H18S11757   3.194   1.817   8.867 -2.4264 -1.0449  0.4530
  113OSM   H18T11758   3.230   1.894   9.017 -1.5977  0.7825 -0.2527
  113OSM   H18U11759   3.091   1.785   9.003  0.1766 -0.0155  0.3175
  113OSM    C1F11760   2.467   0.965  10.704  0.3051 -0.0502 -0.2719
  113OSM     OF11761   2.345   0.989  10.699  0.4007  0.2191 -0.0841
  113OSM    C2F11762   2.518   0.832  10.749 -0.6039 -0.1234  0.6265
  113OSM    H2F11763   2.465   0.793  10.838 -0.1074 -3.3837 -0.4460
  113OSM    H2G11764   2.627   0.846  10.766 -0.2037  0.3660 -2.1067
  113OSM    C3F11765   2.494   0.720  10.655 -0.2591  0.2229 -0.1301
  113OSM    H3F11766   2.385   0.713  10.633 -0.9564  1.4697  2.7606
  113OSM    H3G11767   2.525   0.625  10.703  0.7650  0.5346 -0.1683
  113OSM    C4F11768   2.557   0.732  10.518 -0.2212 -0.1998 -0.1366
  113OSM    H4F11769   2.667   0.743  10.528 -0.4989  1.7423  1.0806
  113OSM    H4G11770   2.524   0.822  10.462 -0.5515  2.5257  4.1887
  113OSM    C5F11771   2.523   0.613  10.430 -0.6951 -0.2335  0.6761
  113OSM    H5F11772   2.417   0.621  10.397 -0.2753 -1.0482 -0.9165
  113OSM    H5G11773   2.550   0.523  10.489  0.5177  0.4139  1.1149
  113OSM    C6F11774   2.612   0.616  10.296 -0.5213 -0.7155 -0.0867
  113OSM    H6F11775   2.720   0.616  10.323 -0.6535  2.4820  0.6219
  113OSM    H6G11776   2.590   0.709  10.241  0.6752 -1.0761 -1.2013
  113OSM    C7F11777   2.586   0.500  10.199  0.0210 -0.7721 -1.5533
  113OSM    H7F11778   2.601   0.398  10.241 -0.7916 -0.1103  0.4156
  113OSM    H7G11779   2.643   0.506  10.104  1.1670  3.8393 -0.6868
  113OSM    C8F11780   2.434   0.502  10.165  0.1360 -0.7087  0.5181
  113OSM    H8F11781   2.418   0.612  10.153  1.2082 -0.6605 -0.5521
  113OSM    H8G11782   2.371   0.479  10.253 -1.2098 -1.7123 -0.6920
  113OSM    C9F11783   2.401   0.428  10.037  0.1505 -0.5555  0.1347
  113OSM    H9F11784   2.457   0.334  10.025  3.5323  1.5384 -1.0998
  113OSM   C10F11785   2.333   0.475   9.931 -0.6074 -0.2031  0.6336
  113OSM   H10F11786   2.310   0.404   9.850 -0.6856  0.8445 -0.2701
  113OSM   C11F11787   2.262   0.608   9.915 -0.5613  0.1798 -0.0621
  113OSM   H11F11788   2.280   0.663   9.820  2.5095  1.2374  1.0600
  113OSM   H11G11789   2.302   0.680   9.989  1.3839 -0.8317 -0.1146
  113OSM   C12F11790   2.112   0.577   9.915  0.4878 -0.3864 -0.0004
  113OSM   H12F11791   2.088   0.525  10.010  1.4617 -2.0704 -0.6638
  113OSM   H12G11792   2.097   0.498   9.839 -1.2451  1.4227 -1.5950
  113OSM   C13F11793   2.025   0.699   9.883 -0.0632 -0.2629 -0.3322
  113OSM   H13F11794   2.032   0.713   9.773  0.0828  0.5434 -0.2194
  113OSM   H13G11795   2.059   0.794   9.929 -0.2140 -1.2572  1.8710
  113OSM   C14F11796   1.877   0.684   9.914  0.1540  0.1750 -0.5126
  113OSM   H14F11797   1.837   0.586   9.880  0.6386 -0.3707  0.4711
  113OSM   H14G11798   1.830   0.760   9.848 -1.0218 -0.5167 -0.4978
  113OSM   C15F11799   1.854   0.712  10.068 -0.1296  0.1819 -0.3759
  113OSM   H15F11800   1.908   0.806  10.092 -1.6987  0.8022  0.7613
  113OSM   H15G11801   1.905   0.622  10.110  1.3084  0.6671 -1.0446
  113OSM   C16F11802   1.705   0.719  10.102 -0.2928  0.2461 -0.0900
  113OSM   H16F11803   1.652   0.621  10.100  0.7692 -0.3833  1.6542
  113OSM   H16G11804   1.655   0.788  10.030  1.3686  2.7894  1.1257
  113OSM   C17F11805   1.675   0.775  10.237  0.1144  0.0447  0.2147
  113OSM   H17F11806   1.583   0.838  10.231 -0.9130 -1.5206 -0.9542
  113OSM   H17G11807   1.753   0.848  10.267 -0.6388  1.4407 -1.1081
  113OSM   C18F11808   1.652   0.671  10.341 -0.5976  0.2197 -0.1423
  113OSM   H18F11809   1.589   0.587  10.305 -1.3978  0.4475  0.7324
  113OSM   H18G11810   1.607   0.707  10.436  3.4173  1.5460  1.3671
  113OSM   H18H11811   1.742   0.617  10.377 -1.1371 -0.3885  0.2914
  114OSM      N11812   4.335   0.143  11.366  0.4764 -0.0123  0.7646
  114OSM    C1511813   4.237   0.054  11.425  0.1618  0.2784  0.1059
  114OSM   H15A11814   4.149   0.105  11.461 -1.0129 -1.1040 -0.7193
  114OSM   H15B11815   4.280   0.012  11.515 -0.8591  1.0894  0.9834
  114OSM   H15C11816   4.194  -0.025  11.364  1.8666 -0.0232 -0.7312
  114OSM    C1411817   4.387   0.239  11.467  0.1991  0.7473  0.0918
  114OSM   H14A11818   4.313   0.315  11.486  0.2575  1.4472 -2.2895
  114OSM   H14B11819   4.471   0.295  11.431  1.3191  0.4900  2.1899
  114OSM   H14C11820   4.418   0.194  11.560  0.8058  1.3981  0.2066
  114OSM    C1311821   4.452   0.061  11.315 -0.4425  0.4589 -0.7103
  114OSM   H13A11822   4.522   0.117  11.254  1.1427  0.2962  0.8973
  114OSM   H13B11823   4.425  -0.022  11.252  1.4938 -2.4423  2.0977
  114OSM   H13C11824   4.510   0.020  11.396 -0.4787 -0.5628 -1.1922
  114OSM    C1211825   4.274   0.220  11.252  0.0795 -0.4938  0.1210
  114OSM   H12A11826   4.250   0.146  11.178  0.7919 -1.3288  0.7165
  114OSM   H12B11827   4.350   0.290  11.220  0.6242  0.3338  3.0701
  114OSM    C1111828   4.148   0.304  11.279  1.0658 -0.1278  0.1869
  114OSM   H11A11829   4.072   0.240  11.329 -1.5048  0.6037 -2.6620
  114OSM   H11B11830   4.110   0.338  11.180 -0.2644  0.4837  0.8911
  114OSM      P11831   4.062   0.508  11.436  0.0974 -0.2487  0.4693
  114OSM    O1311832   4.013   0.449  11.562  0.2545 -0.1200 -0.3401
  114OSM    O1411833   4.110   0.647  11.446 -0.2416  1.1878 -0.0704
  114OSM    O1111834   3.948   0.508  11.329 -0.8080 -0.4804 -0.5572
  114OSM    O1211835   4.168   0.416  11.364 -0.1309  0.1157  0.0115
  114OSM    C1S11836   3.965   0.580  11.209  0.4575  0.3347 -0.1251
  114OSM    H1S11837   4.069   0.567  11.172  0.5664  0.5883  0.0866
  114OSM    H1T11838   3.946   0.689  11.224 -0.3643  0.1822 -0.0517
  114OSM     NF11839   3.897   0.593  10.971 -0.5268 -0.8167  0.7455
  114OSM    HNF11840   3.852   0.676  10.940  0.4097 -1.1735 -1.6494
  114OSM    C2S11841   3.872   0.531  11.094  1.0693  0.2227 -0.1075
  114OSM    H2S11842   3.896   0.423  11.087  1.7407  0.2748  1.2607
  114OSM    C3S11843   3.723   0.552  11.136 -0.6696 -0.3558 -0.0128
  114OSM    H3S11844   3.708   0.661  11.156 -0.2566  0.0182 -1.6631
  114OSM     O311845   3.692   0.491  11.254  0.1925  0.5364 -0.2964
  114OSM    HO311846   3.775   0.478  11.300  0.7125  4.2691 -0.0370
  114OSM    C4S11847   3.629   0.515  11.024  0.0686  0.2264 -0.1212
  114OSM    H4S11848   3.631   0.571  10.929 -0.0374 -1.0491 -0.9003
  114OSM    C5S11849   3.565   0.401  11.021  0.0776  0.6057  0.1275
  114OSM    H5S11850   3.581   0.325  11.099 -5.5302 -0.6786  0.2063
  114OSM    C6S11851   3.481   0.363  10.895  0.0857  0.2650 -0.3439
  114OSM    H6S11852   3.372   0.380  10.905 -0.7731 -4.5468 -0.2246
  114OSM    H6T11853   3.481   0.252  10.902  0.3693  0.1368 -2.2015
  114OSM    C7S11854   3.540   0.383  10.750  0.5746 -0.4779 -0.0327
  114OSM    H7S11855   3.645   0.349  10.740  0.4611 -0.4396 -1.4997
  114OSM    H7T11856   3.535   0.494  10.741  1.4426 -0.5438 -1.5312
  114OSM    C8S11857   3.448   0.325  10.641 -0.1203  0.3506 -0.3621
  114OSM    H8S11858   3.352   0.381  10.636  0.1882  0.9582  0.2930
  114OSM    H8T11859   3.422   0.220  10.662 -1.3740  0.6769 -0.2476
  114OSM    C9S11860   3.501   0.331  10.498  0.5011 -0.2890 -0.5461
  114OSM    H9S11861   3.533   0.432  10.462 -0.9107  0.6699  0.7972
  114OSM    H9T11862   3.407   0.310  10.441  1.1031 -3.5177 -0.3901
  114OSM   C10S11863   3.602   0.226  10.467 -0.4017 -0.1038  0.3762
  114OSM   H10S11864   3.552   0.127  10.472  0.0058 -0.4163 -1.4705
  114OSM   H10T11865   3.692   0.228  10.532 -0.1119  0.2070 -0.0295
  114OSM   C11S11866   3.648   0.224  10.312 -0.0786  0.0631  0.2031
  114OSM   H11S11867   3.754   0.190  10.302  0.4876  1.8905 -0.2362
  114OSM   H11T11868   3.658   0.327  10.272  1.8468 -1.1639 -2.6293
  114OSM   C12S11869   3.552   0.141  10.214 -0.2817  0.4434  0.0300
  114OSM   H12S11870   3.448   0.156  10.250 -0.0709  0.5005  0.6234
  114OSM   H12T11871   3.571   0.031  10.213  0.1929  0.5168  0.4870
  114OSM   C13S11872   3.572   0.178  10.066 -0.2851 -0.4960  0.4659
  114OSM   H13S11873   3.676   0.153  10.036 -0.0470  1.7356 -0.6778
  114OSM   H13T11874   3.557   0.287  10.057  1.8617 -0.0888  1.5597
  114OSM   C14S11875   3.479   0.115   9.968  0.6455  0.0659  0.8962
  114OSM   H14S11876   3.378   0.121  10.013 -0.2771 -1.8167 -0.8017
  114OSM   H14T11877   3.487   0.005   9.956 -0.1665  0.0913  0.0258
  114OSM   C15S11878   3.468   0.181   9.831  0.2253  0.4045 -0.0497
  114OSM   H15S11879   3.560   0.161   9.772  1.0604  1.1358  0.9967
  114OSM   H15T11880   3.453   0.291   9.838 -2.4033 -0.0676  2.4032
  114OSM   C16S11881   3.354   0.114   9.751  0.5272 -0.3118  0.4054
  114OSM   H16S11882   3.389   0.016   9.713  1.1947 -0.7642  2.1422
  114OSM   H16T11883   3.357   0.182   9.663  0.4569  2.5873  2.5923
  114OSM   C17S11884   3.214   0.126   9.814  0.0075  0.7911 -0.1758
  114OSM   H17S11885   3.198   0.230   9.850 -0.3678  0.9996 -0.9275
  114OSM   H17T11886   3.234   0.050   9.892  1.3071  0.2094 -1.0612
  114OSM   C18S11887   3.098   0.082   9.734 -0.1023  0.1977 -0.2643
  114OSM   H18S11888   3.034   0.028   9.807  1.0595 -0.8934 -0.0244
  114OSM   H18T11889   3.119   0.006   9.656 -1.2099  0.4929 -0.8660
  114OSM   H18U11890   3.045   0.162   9.678  1.0293 -1.1357 -3.3930
  114OSM    C1F11891   3.994   0.549  10.893 -0.2085  0.1206 -0.1675
  114OSM     OF11892   4.075   0.468  10.937  0.4582 -0.6253  0.1234
  114OSM    C2F11893   4.007   0.616  10.762 -0.1141  0.2091 -0.7995
  114OSM    H2F11894   4.087   0.562  10.707 -0.9812 -1.8014 -0.1219
  114OSM    H2G11895   4.021   0.726  10.776  0.1081 -0.1848  2.3534
  114OSM    C3F11896   3.877   0.590  10.677  0.1564 -0.0314  0.1684
  114OSM    H3F11897   3.800   0.664  10.707 -0.6387 -1.3516  1.4276
  114OSM    H3G11898   3.843   0.487  10.696  0.7365  0.3456  3.4886
  114OSM    C4F11899   3.895   0.614  10.529  0.4340  0.7616 -0.6660
  114OSM    H4F11900   3.951   0.535  10.474  0.9486  0.4941  0.2350
  114OSM    H4G11901   3.952   0.706  10.505 -1.7515  2.1295 -0.6753
  114OSM    C5F11902   3.762   0.613  10.447 -0.3409 -0.5067  0.1908
  114OSM    H5F11903   3.703   0.701  10.482  0.2993 -0.3059  0.7672
  114OSM    H5G11904   3.709   0.520  10.476 -0.2460  0.0712  2.2859
  114OSM    C6F11905   3.786   0.612  10.291  0.0608 -0.4008  0.0356
  114OSM    H6F11906   3.837   0.521  10.253 -1.1005 -0.5300 -1.2190
  114OSM    H6G11907   3.857   0.697  10.278  0.9370 -0.9047  1.3260
  114OSM    C7F11908   3.660   0.623  10.211  0.5017  0.6923  0.0125
  114OSM    H7F11909   3.586   0.684  10.267 -0.5970 -1.3369  0.8210
  114OSM    H7G11910   3.614   0.523  10.220  0.3267  0.9923  2.7967
  114OSM    C8F11911   3.666   0.677  10.067 -0.1104  0.4425  0.1751
  114OSM    H8F11912   3.723   0.772  10.061  1.2521 -0.3405  0.4186
  114OSM    H8G11913   3.564   0.704  10.032 -0.0384  0.1599 -0.2486
  114OSM    C9F11914   3.747   0.586   9.982 -0.2575  0.2620  0.5828
  114OSM    H9F11915   3.805   0.514  10.042  1.4697 -0.0035 -1.3402
  114OSM   C10F11916   3.756   0.576   9.847  0.3695 -0.6382  0.1197
  114OSM   H10F11917   3.825   0.499   9.810  1.4271  0.8078 -0.9786
  114OSM   C11F11918   3.683   0.661   9.746 -0.0919 -0.1343  0.1762
  114OSM   H11F11919   3.656   0.754   9.801 -0.2021 -0.3917  0.5602
  114OSM   H11G11920   3.592   0.605   9.715 -0.0781  0.2809 -0.6157
  114OSM   C12F11921   3.757   0.706   9.618 -0.2502  0.3133  0.0140
  114OSM   H12F11922   3.774   0.614   9.559  0.1916 -0.3120  1.0975
  114OSM   H12G11923   3.854   0.747   9.655 -0.3685 -0.3306  1.0718
  114OSM   C13F11924   3.687   0.822   9.547 -0.6428 -0.6068 -0.2057
  114OSM   H13F11925   3.766   0.867   9.482 -2.0307  3.9971  1.1181
  114OSM   H13G11926   3.651   0.892   9.625  1.9067 -0.4965  0.9362
  114OSM   C14F11927   3.562   0.789   9.457  0.4373 -0.8755 -0.2965
  114OSM   H14F11928   3.489   0.746   9.529  0.1454  0.5397  0.2601
  114OSM   H14G11929   3.581   0.715   9.377  0.4614 -0.3952 -0.7368
  114OSM   C15F11930   3.494   0.912   9.393 -0.0997  0.6605 -0.3327
  114OSM   H15F11931   3.493   0.994   9.469  0.9616  0.1392  0.2620
  114OSM   H15G11932   3.389   0.883   9.372 -0.3112  1.9292 -1.0722
  114OSM   C16F11933   3.580   0.962   9.274 -0.2041  0.4409 -0.4107
  114OSM   H16F11934   3.687   0.956   9.303  0.0615  0.2411 -1.4275
  114OSM   H16G11935   3.565   1.068   9.246  2.6652  0.9468 -0.1725
  114OSM   C17F11936   3.569   0.882   9.143 -0.7921 -0.6164 -0.5426
  114OSM   H17F11937   3.462   0.875   9.113 -1.6875 -0.4005  2.3966
  114OSM   H17G11938   3.598   0.775   9.155  1.7270  0.2570  1.5080
  114OSM   C18F11939   3.658   0.940   9.032  1.0869  0.2619 -0.0834
  114OSM   H18F11940   3.765   0.921   9.056  1.0781  2.9750  2.3865
  114OSM   H18G11941   3.635   1.046   9.010  1.2954  0.4377  0.5341
  114OSM   H18H11942   3.630   0.886   8.939  1.6772  2.5997 -1.6648
  115OSM      N11943   4.168   2.998   6.191  0.0877  0.0527 -0.0032
  115OSM    C1511944   4.031   2.977   6.257  0.2303 -0.6809 -0.5040
  115OSM   H15A11945   4.002   3.046   6.335 -0.1152 -1.8100  0.3925
  115OSM   H15B11946   4.026   2.874   6.291  0.5702 -1.2056 -1.9893
  115OSM   H15C11947   3.958   2.995   6.180 -1.0268  1.4621  1.1391
  115OSM    C1411948   4.188   2.899   6.086 -0.2408 -0.1042 -0.3197
  115OSM   H14A11949   4.216   2.804   6.131  0.0666  0.0315 -0.2193
  115OSM   H14B11950   4.266   2.932   6.019  0.0448 -1.7866 -0.8315
  115OSM   H14C11951   4.101   2.878   6.026 -0.6453  1.0179 -0.1278
  115OSM    C1311952   4.154   3.135   6.129 -0.1537 -0.2977  0.1569
  115OSM   H13A11953   4.251   3.169   6.096 -0.6158  0.3696 -0.5278
  115OSM   H13B11954   4.127   3.210   6.203  0.2259  0.0991 -0.1035
  115OSM   H13C11955   4.084   3.134   6.048  1.2644 -1.8488 -1.0838
  115OSM    C1211956   4.285   2.998   6.289  0.7391 -0.2589 -0.2823
  115OSM   H12A11957   4.295   2.901   6.336  0.0325  0.6299  1.7646
  115OSM   H12B11958   4.263   3.068   6.369  1.5705  1.5187 -1.5713
  115OSM    C1111959   4.432   3.027   6.260  0.4841  0.3783 -0.0634
  115OSM   H11A11960   4.466   2.947   6.191 -0.3670 -0.1159  0.0837
  115OSM   H11B11961   4.477   3.013   6.361  2.0718 -0.9314 -0.9353
  115OSM      P11962   4.590   3.231   6.230 -0.2645 -0.1114 -0.1239
  115OSM    O1311963   4.699   3.161   6.163 -0.1549  0.1904 -0.2726
  115OSM    O1411964   4.559   3.380   6.207 -0.2317  0.0333  0.1160
  115OSM    O1111965   4.614   3.207   6.386 -0.6690  0.2640 -0.1515
  115OSM    O1211966   4.456   3.154   6.191  0.4533  0.4386 -0.1661
  115OSM    C1S11967   4.700   3.295   6.465 -0.1019  0.4072 -0.5403
  115OSM    H1S11968   4.727   3.390   6.413 -0.8736  1.0634  0.2312
  115OSM    H1T11969   4.801   3.253   6.484 -0.0567  0.3510 -0.9056
  115OSM     NF11970   4.713   3.445   6.662 -0.9675  0.4206 -0.7360
  115OSM    HNF11971   4.766   3.410   6.738 -1.1393  2.8100  0.5350
  115OSM    C2S11972   4.633   3.343   6.597  0.3984 -0.5042 -0.4510
  115OSM    H2S11973   4.534   3.380   6.563  0.0397 -1.6999 -0.7652
  115OSM    C3S11974   4.600   3.232   6.694 -0.2887 -0.5062  0.1573
  115OSM    H3S11975   4.691   3.196   6.746  1.2726 -1.2197 -2.9799
  115OSM     O311976   4.545   3.115   6.640  0.1597  0.7533 -0.4930
  115OSM    HO311977   4.545   3.136   6.547  2.0573 -1.8025 -1.1083
  115OSM    C4S11978   4.522   3.291   6.813  0.0520  0.1054  0.6155
  115OSM    H4S11979   4.582   3.331   6.896 -0.4392  1.3733  0.3747
  115OSM    C5S11980   4.385   3.288   6.826  0.3592  0.2850  0.3433
  115OSM    H5S11981   4.337   3.259   6.732  0.5947  1.8331 -0.2738
  115OSM    C6S11982   4.296   3.331   6.942  0.3167 -0.6134  0.0758
  115OSM    H6S11983   4.228   3.249   6.973  0.0327  0.3389  2.0149
  115OSM    H6T11984   4.212   3.395   6.910  1.0019  0.3085  0.1094
  115OSM    C7S11985   4.362   3.401   7.061 -0.5059  0.5929 -0.1276
  115OSM    H7S11986   4.430   3.484   7.032 -0.5738  0.5964 -0.2745
  115OSM    H7T11987   4.424   3.327   7.117  0.3265  1.5976  0.2950
  115OSM    C8S11988   4.256   3.441   7.158  0.0824  0.5224 -0.3474
  115OSM    H8S11989   4.188   3.353   7.167 -0.9008  1.3613  0.6177
  115OSM    H8T11990   4.200   3.523   7.109 -0.1116 -0.8519 -2.4845
  115OSM    C9S11991   4.305   3.481   7.298  0.2635 -0.0309  0.0582
  115OSM    H9S11992   4.344   3.391   7.351  1.6292  1.3560  1.4925
  115OSM    H9T11993   4.220   3.518   7.358 -1.3889 -0.3179 -2.0563
  115OSM   C10S11994   4.415   3.590   7.294  0.0404 -0.4707  0.0854
  115OSM   H10S11995   4.366   3.676   7.244 -1.9858 -0.9608  1.1695
  115OSM   H10T11996   4.508   3.556   7.243 -1.1456 -2.2689 -0.9163
  115OSM   C11S11997   4.460   3.648   7.429  0.0916  0.6673 -0.0285
  115OSM   H11S11998   4.518   3.742   7.412  2.6653 -1.0491 -1.0540
  115OSM   H11T11999   4.520   3.565   7.473 -0.7151 -0.4452 -1.0074
  115OSM   C12S12000   4.345   3.685   7.528 -0.6269 -0.3475 -0.4005
  115OSM   H12S12001   4.273   3.603   7.548 -1.2270  0.6542  1.6018
  115OSM   H12T12002   4.289   3.777   7.498 -0.6600  0.5227  2.2096
  115OSM   C13S12003   4.405   3.714   7.671  0.1121 -0.1449  0.2129
  115OSM   H13S12004   4.468   3.805   7.672 -1.2614  0.8406 -0.9533
  115OSM   H13T12005   4.461   3.625   7.706  0.8864  0.0889 -0.4387
  115OSM   C14S12006   4.296   3.728   7.785  0.4286 -0.5522 -1.5613
  115OSM   H14S12007   4.217   3.652   7.767  0.0830  0.0821 -2.7685
  115OSM   H14T12008   4.259   3.832   7.798  2.1745  0.0865 -1.4743
  115OSM   C15S12009   4.361   3.683   7.913  0.3429 -0.2500 -0.9841
  115OSM   H15S12010   4.457   3.738   7.922  0.1409 -0.2817  1.7710
  115OSM   H15T12011   4.374   3.573   7.919 -0.9752 -0.3427  0.4806
  115OSM   C16S12012   4.281   3.732   8.039 -0.4535  0.3134 -0.3263
  115OSM   H16S12013   4.186   3.675   8.043  0.7165 -2.1275 -3.9867
  115OSM   H16T12014   4.260   3.838   8.013 -1.6367  0.4075  0.9615
  115OSM   C17S12015   4.361   3.727   8.172  0.0058  0.1234 -0.5046
  115OSM   H17S12016   4.437   3.647   8.157  0.1640  0.0864  0.4366
  115OSM   H17T12017   4.303   3.702   8.263  2.7605  0.4699  1.4239
  115OSM   C18S12018   4.421   3.866   8.202 -0.5153 -0.6249 -0.1219
  115OSM   H18S12019   4.342   3.943   8.185  0.7174  0.6785 -0.0430
  115OSM   H18T12020   4.494   3.887   8.121 -2.7457  0.5503 -1.8851
  115OSM   H18U12021   4.473   3.882   8.299 -0.7889 -1.2914  0.1363
  115OSM    C1F12022   4.736   3.565   6.617  0.1864 -0.0654 -0.0066
  115OSM     OF12023   4.678   3.606   6.516 -0.0318  0.5249  0.2186
  115OSM    C2F12024   4.843   3.643   6.688  0.3593 -0.0139 -0.1879
  115OSM    H2F12025   4.929   3.663   6.621 -0.9553  1.3054 -1.5189
  115OSM    H2G12026   4.868   3.573   6.771 -0.9982 -2.3520 -1.6769
  115OSM    C3F12027   4.787   3.781   6.735 -0.1204 -0.1124  0.0683
  115OSM    H3F12028   4.689   3.773   6.788 -1.8620 -1.8169 -3.2551
  115OSM    H3G12029   4.762   3.844   6.647  2.0377  1.5938  0.6445
  115OSM    C4F12030   4.868   3.864   6.835 -0.2630  0.2267 -0.4333
  115OSM    H4F12031   4.816   3.959   6.856  0.1617  0.6061 -1.1091
  115OSM    H4G12032   4.967   3.897   6.796 -1.3334  2.5779 -1.2290
  115OSM    C5F12033   4.879   3.788   6.972  0.2042  0.6442 -0.1400
  115OSM    H5F12034   4.912   3.682   6.960 -0.3135  0.5680 -0.9126
  115OSM    H5G12035   4.772   3.790   7.001  0.0290  1.9092 -0.8625
  115OSM    C6F12036   4.972   3.868   7.071  0.2393  0.1781  0.5587
  115OSM    H6F12037   4.914   3.953   7.112  1.4481  1.7768 -0.9514
  115OSM    H6G12038   5.063   3.913   7.026 -0.0093  1.5703  1.4037
  115OSM    C7F12039   5.025   3.774   7.180 -0.7330  0.0997  0.6167
  115OSM    H7F12040   5.108   3.827   7.232  3.0297 -2.7633 -2.1602
  115OSM    H7G12041   5.078   3.686   7.137  1.4672  1.2466  0.9026
  115OSM    C8F12042   4.918   3.706   7.264 -0.1131  0.3921 -1.0187
  115OSM    H8F12043   4.979   3.627   7.313  0.2405  2.8983  2.8250
  115OSM    H8G12044   4.846   3.660   7.193 -0.6104  1.9754 -1.5434
  115OSM    C9F12045   4.855   3.789   7.368 -0.1061  0.1616  0.6149
  115OSM    H9F12046   4.784   3.855   7.317  0.2808  0.2985  0.2545
  115OSM   C10F12047   4.866   3.775   7.506 -0.4942 -0.4833 -0.1057
  115OSM   H10F12048   4.802   3.833   7.574  0.2558  2.8592 -2.1225
  115OSM   C11F12049   4.946   3.679   7.585 -0.6702  0.0585  0.9916
  115OSM   H11F12050   5.017   3.731   7.652  0.3512  1.2268 -0.9619
  115OSM   H11G12051   5.012   3.614   7.524 -1.3459  0.4648 -0.1950
  115OSM   C12F12052   4.853   3.580   7.664 -0.2736  0.0344  0.3368
  115OSM   H12F12053   4.899   3.486   7.702  1.7523  0.2292 -1.5287
  115OSM   H12G12054   4.770   3.552   7.596 -0.0470 -0.6399  0.3314
  115OSM   C13F12055   4.793   3.650   7.786 -0.2230 -0.4899  0.1380
  115OSM   H13F12056   4.685   3.667   7.767 -0.4407  0.8139  2.3526
  115OSM   H13G12057   4.846   3.748   7.786 -0.8131 -0.1444 -2.1335
  115OSM   C14F12058   4.832   3.591   7.922  0.4857 -0.1101 -0.3809
  115OSM   H14F12059   4.942   3.578   7.937  0.4420 -1.1296 -0.8976
  115OSM   H14G12060   4.774   3.496   7.922  0.5924 -0.1759 -0.6528
  115OSM   C15F12061   4.791   3.687   8.036  0.3856 -0.0678 -0.1698
  115OSM   H15F12062   4.681   3.691   8.025  0.3596  2.2332  0.7238
  115OSM   H15G12063   4.835   3.789   8.027 -1.5694  0.8638  0.6138
  115OSM   C16F12064   4.824   3.612   8.166  0.2476 -0.8234  0.1177
  115OSM   H16F12065   4.934   3.597   8.172  0.3603 -0.1613 -0.2154
  115OSM   H16G12066   4.773   3.513   8.169  1.9719 -1.7171  0.3226
  115OSM   C17F12067   4.791   3.696   8.295  0.1549 -0.5586 -0.2491
  115OSM   H17F12068   4.685   3.729   8.300  0.5278  0.4276  1.4686
  115OSM   H17G12069   4.856   3.785   8.282 -1.0481  0.8276  2.7579
  115OSM   C18F12070   4.839   3.628   8.424  0.9614 -0.2804  0.6894
  115OSM   H18F12071   4.931   3.568   8.409  0.0839 -1.4372 -0.1488
  115OSM   H18G12072   4.758   3.568   8.471  1.2725 -1.0130  0.3020
  115OSM   H18H12073   4.858   3.712   8.493  0.1917  1.6015 -1.3256
  116OSM      N12074   4.152   0.917   6.360  0.4144  0.0287 -0.2130
  116OSM    C1512075   4.226   0.808   6.407 -0.2325 -0.4150 -0.2587
  116OSM   H15A12076   4.228   0.724   6.340  1.2978 -0.6897  0.1139
  116OSM   H15B12077   4.188   0.782   6.504  0.5558  3.0301  1.0413
  116OSM   H15C12078   4.327   0.846   6.402 -0.8115  1.1818 -0.3041
  116OSM    C1412079   4.025   0.866   6.306  0.7158  0.5535  0.3842
  116OSM   H14A12080   3.972   0.950   6.262 -1.4208 -0.1646  1.5319
  116OSM   H14B12081   3.965   0.826   6.385  0.3913  0.6926  0.2087
  116OSM   H14C12082   4.040   0.789   6.232  2.0491  0.3391  0.8632
  116OSM    C1312083   4.133   1.007   6.481 -0.1140 -0.0819 -0.0581
  116OSM   H13A12084   4.068   1.090   6.459  0.0692  0.1208  0.1769
  116OSM   H13B12085   4.231   1.043   6.507 -0.3434 -0.2679  1.0752
  116OSM   H13C12086   4.077   0.957   6.558  0.8054 -2.0007 -0.5931
  116OSM    C1212087   4.229   0.991   6.246 -0.6056 -0.2310  0.0052
  116OSM   H12A12088   4.176   1.081   6.218 -0.1677 -0.2351 -0.8236
  116OSM   H12B12089   4.221   0.921   6.164  1.0656  0.7302 -1.0062
  116OSM    C1112090   4.376   1.031   6.279 -0.0159  0.0083  0.5655
  116OSM   H11A12091   4.382   1.082   6.377  1.7666  0.2432  0.3406
  116OSM   H11B12092   4.405   1.107   6.202 -1.5254  1.2216  1.1669
  116OSM      P12093   4.623   0.938   6.277  0.0554 -0.3341 -0.2825
  116OSM    O1312094   4.698   0.814   6.273  0.1981 -0.2110  0.0749
  116OSM    O1412095   4.668   1.038   6.173 -0.5341 -0.5468 -0.5532
  116OSM    O1112096   4.646   1.004   6.425  0.2502 -0.1667  0.2404
  116OSM    O1212097   4.462   0.915   6.272  0.1020 -0.5318 -0.6404
  116OSM    C1S12098   4.589   0.937   6.540  0.1370 -0.3774  1.0198
  116OSM    H1S12099   4.647   0.844   6.556 -0.2677 -0.6865  0.7121
  116OSM    H1T12100   4.480   0.912   6.541  0.1104 -0.4883 -1.5579
  116OSM     NF12101   4.595   0.962   6.795 -0.1671  0.4505 -0.0815
  116OSM    HNF12102   4.519   1.000   6.847 -3.1468 -0.8867 -3.2465
  116OSM    C2S12103   4.607   1.030   6.664  0.0146  0.5638  0.3043
  116OSM    H2S12104   4.709   1.072   6.649 -0.6115  1.9329 -0.1837
  116OSM    C3S12105   4.497   1.139   6.649  0.1169  0.2615 -0.8318
  116OSM    H3S12106   4.400   1.086   6.649 -0.4332  1.2528 -1.3850
  116OSM     O312107   4.501   1.206   6.527  0.0579  0.6828 -0.0620
  116OSM    HO312108   4.569   1.159   6.476 -0.8810  0.3842 -1.0681
  116OSM    C4S12109   4.494   1.233   6.759 -0.0663 -0.0922 -0.4640
  116OSM    H4S12110   4.581   1.298   6.776 -0.5238  0.7338 -1.2681
  116OSM    C5S12111   4.390   1.260   6.844  0.1468 -0.2750 -0.6816
  116OSM    H5S12112   4.296   1.202   6.841 -0.6567  1.0176 -0.6196
  116OSM    C6S12113   4.393   1.372   6.940  0.7428  0.6385 -0.1897
  116OSM    H6S12114   4.305   1.438   6.928  0.2511 -0.2503 -1.6485
  116OSM    H6T12115   4.478   1.444   6.936  1.6618 -0.2906  1.7165
  116OSM    C7S12116   4.388   1.325   7.085 -0.5571 -0.5119  0.0653
  116OSM    H7S12117   4.492   1.297   7.113 -0.0513  2.1956  1.1262
  116OSM    H7T12118   4.326   1.236   7.108  0.7809 -2.0129 -1.9171
  116OSM    C8S12119   4.348   1.439   7.175  0.1286 -0.4286 -0.1396
  116OSM    H8S12120   4.240   1.462   7.165 -0.1801 -0.9519  1.8202
  116OSM    H8T12121   4.416   1.523   7.148 -0.4679 -0.4685 -1.8031
  116OSM    C9S12122   4.389   1.399   7.316 -0.2693 -0.4803 -0.0751
  116OSM    H9S12123   4.490   1.441   7.338 -0.7882  0.8081 -0.0627
  116OSM    H9T12124   4.399   1.289   7.318  1.5368 -0.4358 -2.7664
  116OSM   C10S12125   4.284   1.431   7.423 -0.9404 -0.5290 -0.1316
  116OSM   H10S12126   4.196   1.366   7.401 -2.8646  1.4949  1.3092
  116OSM   H10T12127   4.256   1.539   7.424 -2.2150 -0.8523  0.7265
  116OSM   C11S12128   4.339   1.386   7.562  0.1541 -0.2207  0.1649
  116OSM   H11S12129   4.415   1.458   7.598 -0.5768  0.0276  1.2296
  116OSM   H11T12130   4.375   1.281   7.555 -2.0250 -0.9153 -1.1494
  116OSM   C12S12131   4.226   1.380   7.677  0.5087  0.1346 -0.4748
  116OSM   H12S12132   4.127   1.338   7.652  0.0249  0.4155  0.9095
  116OSM   H12T12133   4.208   1.484   7.710 -2.8196 -0.9827  1.4251
  116OSM   C13S12134   4.269   1.310   7.810  0.3453  0.3054 -0.7836
  116OSM   H13S12135   4.288   1.203   7.789  0.5902 -0.0128  0.9868
  116OSM   H13T12136   4.182   1.313   7.879  1.5927  1.8372  0.7566
  116OSM   C14S12137   4.409   1.358   7.865  0.1430  0.3051 -0.0003
  116OSM   H14S12138   4.420   1.468   7.852  0.5036  0.5654  2.3365
  116OSM   H14T12139   4.494   1.314   7.808  1.5278  0.8980  1.6041
  116OSM   C15S12140   4.419   1.336   8.018 -0.3435  0.8800  0.2809
  116OSM   H15S12141   4.404   1.229   8.047  2.7134  0.8251  1.8316
  116OSM   H15T12142   4.346   1.405   8.067  0.4053  2.4440 -0.7770
  116OSM   C16S12143   4.546   1.397   8.077 -0.5151  0.6251 -0.2396
  116OSM   H16S12144   4.546   1.504   8.047 -2.3935  0.3121 -1.4142
  116OSM   H16T12145   4.625   1.347   8.017 -0.0458  2.2666 -1.0157
  116OSM   C17S12146   4.562   1.369   8.230 -0.4608 -0.5199 -1.1097
  116OSM   H17S12147   4.566   1.258   8.233  1.6386 -0.5466 -3.1383
  116OSM   H17T12148   4.481   1.399   8.300  1.0308 -0.0276  0.4078
  116OSM   C18S12149   4.692   1.422   8.283 -0.4524 -0.7543  0.9326
  116OSM   H18S12150   4.774   1.398   8.211  1.3651  1.0157  2.3682
  116OSM   H18T12151   4.706   1.372   8.381 -0.4090 -0.5303  1.0384
  116OSM   H18U12152   4.685   1.532   8.290 -1.6808 -0.8908  2.0339
  116OSM    C1F12153   4.671   0.858   6.829  0.5593  0.6337  0.5413
  116OSM     OF12154   4.770   0.826   6.758  0.3378  0.0327 -0.4696
  116OSM    C2F12155   4.630   0.777   6.955  0.0029 -0.3334  0.3589
  116OSM    H2F12156   4.710   0.700   6.965  2.3392  1.8241 -1.2052
  116OSM    H2G12157   4.531   0.733   6.927 -1.4519  3.2260 -0.3397
  116OSM    C3F12158   4.603   0.861   7.081  0.5420 -0.7969 -1.0920
  116OSM    H3F12159   4.522   0.933   7.054 -0.7415 -1.7171  0.2386
  116OSM    H3G12160   4.689   0.928   7.103 -0.7674  0.4900  0.2881
  116OSM    C4F12161   4.578   0.772   7.206  0.5282 -0.0519  0.5150
  116OSM    H4F12162   4.663   0.708   7.237 -0.7734 -1.7383  0.6640
  116OSM    H4G12163   4.501   0.695   7.184  1.8796 -1.9325  2.2747
  116OSM    C5F12164   4.532   0.867   7.317  0.4178 -0.0064 -0.3919
  116OSM    H5F12165   4.498   0.808   7.404 -0.8991  0.4979 -0.5503
  116OSM    H5G12166   4.442   0.922   7.282 -0.8743 -0.4905  2.0486
  116OSM    C6F12167   4.636   0.969   7.382  0.8532 -0.2530 -0.3385
  116OSM    H6F12168   4.650   1.049   7.306  1.5288  0.7866  0.8722
  116OSM    H6G12169   4.737   0.931   7.411  0.8811 -0.6156 -0.9039
  116OSM    C7F12170   4.577   1.028   7.513  0.3659  0.3828  0.8855
  116OSM    H7F12171   4.473   1.055   7.483  0.1719  0.1175  1.3069
  116OSM    H7G12172   4.641   1.116   7.534 -0.2253  0.5110  2.2765
  116OSM    C8F12173   4.585   0.932   7.637 -0.5145 -0.3399 -0.0725
  116OSM    H8F12174   4.691   0.946   7.669 -0.3729 -0.8404 -0.3183
  116OSM    H8G12175   4.588   0.824   7.610 -0.2857 -0.5945  0.9330
  116OSM    C9F12176   4.482   0.959   7.743  0.2591  0.8255 -0.0566
  116OSM    H9F12177   4.376   0.966   7.716  0.5813 -0.3544 -1.7189
  116OSM   C10F12178   4.519   0.985   7.874  0.2502  0.1059  0.1214
  116OSM   H10F12179   4.446   1.041   7.935  0.9306  0.1243  0.9333
  116OSM   C11F12180   4.654   0.986   7.932 -0.0224 -0.4550 -0.7649
  116OSM   H11F12181   4.698   1.085   7.906 -3.4930  1.0746 -1.1929
  116OSM   H11G12182   4.723   0.910   7.891  1.9516  0.6320  0.4893
  116OSM   C12F12183   4.667   0.971   8.075  0.6303  1.0927 -0.4367
  116OSM   H12F12184   4.616   0.877   8.109  0.4316  0.9368 -1.1594
  116OSM   H12G12185   4.616   1.056   8.125  0.2485  0.1241  0.8688
  116OSM   C13F12186   4.811   0.983   8.127 -0.3426  0.4736  0.2892
  116OSM   H13F12187   4.836   1.090   8.108 -0.6302  0.1573 -1.9583
  116OSM   H13G12188   4.882   0.921   8.069 -1.2631  0.8842 -1.3075
  116OSM   C14F12189   4.833   0.938   8.271 -0.0581  0.2183 -0.7527
  116OSM   H14F12190   4.814   0.829   8.269  1.7310 -0.1097 -0.9945
  116OSM   H14G12191   4.759   0.982   8.341  1.3784 -0.0762  1.0117
  116OSM   C15F12192   4.979   0.956   8.318 -0.5724  1.5208  0.1371
  116OSM   H15F12193   4.994   1.065   8.334  0.5954  1.0837  2.1571
  116OSM   H15G12194   5.046   0.919   8.238  0.6652 -0.1970  1.9322
  116OSM   C16F12195   4.997   0.887   8.456  0.3736  0.2338 -0.8020
  116OSM   H16F12196   4.994   0.777   8.440 -0.2210  0.3071 -1.2162
  116OSM   H16G12197   4.920   0.933   8.521 -0.6616 -1.2440 -0.9600
  116OSM   C17F12198   5.126   0.924   8.536  0.3512  0.8181  0.3854
  116OSM   H17F12199   5.141   1.033   8.521  1.8608  0.4675 -0.7631
  116OSM   H17G12200   5.210   0.875   8.482 -1.2011 -1.4416 -0.0270
  116OSM   C18F12201   5.143   0.891   8.690 -0.0048  0.6323 -0.4173
  116OSM   H18F12202   5.245   0.929   8.715 -0.5002  1.3460  0.5661
  116OSM   H18G12203   5.135   0.782   8.707  1.8413  0.4889 -0.3757
  116OSM   H18H12204   5.075   0.948   8.757  0.0754 -0.5917  0.7169
  117OSM      N12205   2.130   2.238   6.238  0.1432  0.0627 -0.1865
  117OSM    C1512206   2.246   2.307   6.180  0.0807 -0.1879  0.1294
  117OSM   H15A12207   2.319   2.245   6.130  0.3302 -0.0217  0.2866
  117OSM   H15B12208   2.297   2.366   6.255 -1.3607  2.5724 -1.0024
  117OSM   H15C12209   2.214   2.383   6.110 -0.3640  0.1885  0.7309
  117OSM    C1412210   2.052   2.175   6.128 -0.5145 -0.1829 -0.7924
  117OSM   H14A12211   2.114   2.098   6.086 -1.0844  0.3155 -2.6063
  117OSM   H14B12212   2.034   2.249   6.051  2.1627 -0.3832 -1.6571
  117OSM   H14C12213   1.959   2.129   6.157  0.9255 -1.4332  1.9846
  117OSM    C1312214   2.179   2.138   6.339 -0.8790 -0.0803  0.0934
  117OSM   H13A12215   2.269   2.183   6.378 -0.5203 -0.2684 -0.5102
  117OSM   H13B12216   2.204   2.039   6.303  0.1666 -0.0087  0.6135
  117OSM   H13C12217   2.106   2.125   6.418  1.0246 -0.3398  1.8488
  117OSM    C1212218   2.048   2.348   6.309 -0.5344 -0.5012  0.8125
  117OSM   H12A12219   1.966   2.296   6.358 -2.5406  0.3769 -1.5346
  117OSM   H12B12220   2.005   2.415   6.236 -1.3364 -0.2603  1.4989
  117OSM    C1112221   2.128   2.444   6.405 -1.0512 -0.7299 -0.3441
  117OSM   H11A12222   2.195   2.388   6.475 -0.6999 -2.0674 -1.7391
  117OSM   H11B12223   2.053   2.502   6.463 -0.7612 -0.3665 -0.3345
  117OSM      P12224   2.204   2.687   6.295 -0.0501  0.2032  0.0308
  117OSM    O1312225   2.330   2.718   6.222 -0.5332 -0.2296 -0.0514
  117OSM    O1412226   2.071   2.717   6.237  0.1466 -0.2380 -0.4097
  117OSM    O1112227   2.219   2.740   6.451  0.8532  0.2685 -1.1728
  117OSM    O1212228   2.212   2.532   6.327 -0.5567 -0.2373 -0.5082
  117OSM    C1S12229   2.332   2.697   6.531  0.1643  0.7754  0.4824
  117OSM    H1S12230   2.422   2.738   6.481  0.3305 -1.5844 -1.2099
  117OSM    H1T12231   2.349   2.588   6.518 -1.4236  0.7752 -1.7690
  117OSM     NF12232   2.443   2.719   6.742 -0.4715 -0.9535 -0.2830
  117OSM    HNF12233   2.430   2.644   6.807  0.9463  0.5645  1.8388
  117OSM    C2S12234   2.322   2.740   6.675 -0.2885  0.3281 -0.5969
  117OSM    H2S12235   2.293   2.848   6.674 -0.5121  0.2667 -2.3826
  117OSM    C3S12236   2.197   2.657   6.738  0.0035 -0.0442  0.0721
  117OSM    H3S12237   2.217   2.551   6.711 -3.4111 -0.7129 -0.0538
  117OSM     O312238   2.075   2.683   6.675 -0.0143 -0.0486 -0.1396
  117OSM    HO312239   2.110   2.708   6.589 -0.7776  1.5908  0.0145
  117OSM    C4S12240   2.183   2.669   6.890  0.0486 -0.6440  0.0447
  117OSM    H4S12241   2.242   2.604   6.955  0.9277  1.0199  0.9290
  117OSM    C5S12242   2.108   2.766   6.946  0.3099 -0.5960 -0.3786
  117OSM    H5S12243   2.049   2.843   6.894  0.4603  0.2509  0.6965
  117OSM    C6S12244   2.100   2.786   7.093  0.7672 -0.5691  0.2931
  117OSM    H6S12245   2.003   2.747   7.131  0.3514  2.5325  2.6427
  117OSM    H6T12246   2.112   2.892   7.126 -0.2669 -0.5099  0.4930
  117OSM    C7S12247   2.205   2.718   7.179 -0.3985  0.4545  0.2007
  117OSM    H7S12248   2.305   2.726   7.133 -0.7684  1.1242 -0.4754
  117OSM    H7T12249   2.182   2.609   7.177 -0.6982  0.5062  0.5922
  117OSM    C8S12250   2.208   2.763   7.323 -0.4903  0.2741  0.1726
  117OSM    H8S12251   2.107   2.786   7.363 -0.1209 -0.9175  1.8321
  117OSM    H8T12252   2.267   2.857   7.333 -1.7158  1.0129  0.5912
  117OSM    C9S12253   2.272   2.658   7.418  0.7980 -0.5287 -0.1940
  117OSM    H9S12254   2.383   2.667   7.424  0.7095 -0.4812  1.6590
  117OSM    H9T12255   2.248   2.561   7.372 -0.6094  0.3806 -1.4218
  117OSM   C10S12256   2.216   2.669   7.560  0.4144  1.7129  0.3854
  117OSM   H10S12257   2.212   2.780   7.574  0.4367  1.4844  2.3829
  117OSM   H10T12258   2.293   2.639   7.635  1.2585  2.0511 -0.3353
  117OSM   C11S12259   2.071   2.608   7.569  0.6663  0.1980 -0.0686
  117OSM   H11S12260   2.079   2.499   7.548 -0.5552  0.3332 -1.2625
  117OSM   H11T12261   2.005   2.652   7.492 -1.0526  1.7707  2.2373
  117OSM   C12S12262   2.026   2.620   7.719 -0.1801  0.0407 -0.2586
  117OSM   H12S12263   1.919   2.592   7.719  0.2716 -1.8229 -0.0839
  117OSM   H12T12264   2.037   2.726   7.748 -1.7975  0.6754 -1.9203
  117OSM   C13S12265   2.102   2.530   7.816  0.6048  0.3620 -0.1467
  117OSM   H13S12266   2.207   2.561   7.833  0.6621  0.5774 -0.8695
  117OSM   H13T12267   2.101   2.429   7.769  0.2044  0.0469  0.5206
  117OSM   C14S12268   2.030   2.504   7.948 -0.4001  0.2842 -0.1868
  117OSM   H14S12269   2.081   2.418   7.996 -1.9777  0.1398  1.3063
  117OSM   H14T12270   1.923   2.477   7.931 -0.9425  1.4358  1.2812
  117OSM   C15S12271   2.038   2.612   8.056 -0.3111  0.4344  0.6775
  117OSM   H15S12272   2.022   2.710   8.005  0.5526 -0.5992 -1.6145
  117OSM   H15T12273   2.147   2.600   8.077  0.1926 -0.9398 -2.4419
  117OSM   C16S12274   1.935   2.591   8.163 -0.0800  0.1187 -0.2940
  117OSM   H16S12275   1.899   2.486   8.166 -0.0085  0.1025  0.0316
  117OSM   H16T12276   1.840   2.643   8.137  0.3561  0.6637 -0.8187
  117OSM   C17S12277   1.973   2.625   8.306 -0.1276 -0.3154 -0.0563
  117OSM   H17S12278   2.081   2.652   8.298 -0.3103  0.1285 -1.1377
  117OSM   H17T12279   1.975   2.528   8.361  0.7762 -0.2799 -0.0070
  117OSM   C18S12280   1.885   2.727   8.377  0.0906 -0.4659 -0.4171
  117OSM   H18S12281   1.912   2.827   8.334  1.6221 -0.4921  0.4426
  117OSM   H18T12282   1.903   2.731   8.486 -0.4886  1.0990 -0.3568
  117OSM   H18U12283   1.777   2.706   8.361 -1.0250  3.8546  0.6056
  117OSM    C1F12284   2.555   2.790   6.731  0.4239  0.4041  0.0668
  117OSM     OF12285   2.572   2.869   6.643  0.2974 -0.6115 -0.0676
  117OSM    C2F12286   2.659   2.771   6.837  0.2887 -0.2341  0.1394
  117OSM    H2F12287   2.659   2.666   6.873  1.5602 -0.2264  0.1813
  117OSM    H2G12288   2.624   2.833   6.922  0.2097 -0.3692  0.2048
  117OSM    C3F12289   2.796   2.803   6.788 -0.0152  0.5862  0.6963
  117OSM    H3F12290   2.772   2.898   6.734  0.1774  1.5980  2.3623
  117OSM    H3G12291   2.826   2.735   6.706  0.7292  0.9704  0.6447
  117OSM    C4F12292   2.915   2.815   6.887 -0.4979 -0.6410  0.7221
  117OSM    H4F12293   2.886   2.897   6.956  0.2181 -0.9942  1.4525
  117OSM    H4G12294   3.007   2.851   6.836 -2.2396  0.3658 -1.8334
  117OSM    C5F12295   2.950   2.696   6.972  0.0182  0.7921  0.2710
  117OSM    H5F12296   3.005   2.620   6.913  0.4056  1.5987 -0.4161
  117OSM    H5G12297   2.863   2.645   7.020 -0.4800 -2.8315 -4.1129
  117OSM    C6F12298   3.052   2.732   7.089 -0.1328 -1.0197  0.8775
  117OSM    H6F12299   2.998   2.810   7.147 -1.6622  0.2079 -2.0590
  117OSM    H6G12300   3.148   2.777   7.056 -1.9841  3.7280  1.5095
  117OSM    C7F12301   3.086   2.608   7.178  0.2104  0.1569 -0.1088
  117OSM    H7F12302   3.144   2.534   7.119 -1.7703 -2.1172  0.6920
  117OSM    H7G12303   2.992   2.559   7.211 -0.4864 -1.4913 -4.2659
  117OSM    C8F12304   3.178   2.647   7.305 -0.3533 -0.0217 -0.0913
  117OSM    H8F12305   3.270   2.694   7.264  0.4489 -0.8878  0.7102
  117OSM    H8G12306   3.202   2.554   7.360  1.2602  1.1224  1.2098
  117OSM    C9F12307   3.132   2.754   7.401  0.4389 -0.5665 -0.6571
  117OSM    H9F12308   3.140   2.855   7.358 -0.1895  0.3351  1.2765
  117OSM   C10F12309   3.093   2.751   7.531  0.2790  0.0255 -0.0645
  117OSM   H10F12310   3.055   2.845   7.575  1.1086  0.7729 -0.8970
  117OSM   C11F12311   3.077   2.632   7.623 -0.0857 -0.6617 -0.3767
  117OSM   H11F12312   3.112   2.535   7.581 -0.1179 -1.4337  1.3398
  117OSM   H11G12313   2.972   2.628   7.657 -0.4396 -0.1272 -1.3803
  117OSM   C12F12314   3.163   2.652   7.754 -0.3835 -0.9500 -0.1348
  117OSM   H12F12315   3.267   2.677   7.726 -2.0401  1.9731 -4.1505
  117OSM   H12G12316   3.163   2.554   7.808  0.3028 -1.4375 -1.0004
  117OSM   C13F12317   3.108   2.756   7.852  0.4150  0.5185 -0.5301
  117OSM   H13F12318   3.045   2.829   7.798 -0.4318  1.5386  1.7918
  117OSM   H13G12319   3.183   2.813   7.910  1.5542 -1.3105 -0.1584
  117OSM   C14F12320   3.017   2.691   7.957  0.2326 -0.1285 -0.2767
  117OSM   H14F12321   3.083   2.636   8.029 -0.4894 -1.8886 -0.9187
  117OSM   H14G12322   2.960   2.611   7.905 -0.4824 -1.2169  2.0701
  117OSM   C15F12323   2.913   2.781   8.017  0.4268  0.3662 -0.0189
  117OSM   H15F12324   2.835   2.803   7.940 -0.0377  1.6710  0.8132
  117OSM   H15G12325   2.958   2.880   8.039  0.0471  0.6066 -0.3098
  117OSM   C16F12326   2.853   2.721   8.150 -0.2003 -0.4995 -0.2938
  117OSM   H16F12327   2.841   2.613   8.126 -1.6947 -0.4220  0.0283
  117OSM   H16G12328   2.756   2.771   8.170 -0.3400 -1.5269  1.7169
  117OSM   C17F12329   2.938   2.734   8.271 -0.4176 -0.3899  0.4036
  117OSM   H17F12330   3.040   2.696   8.251  0.0860  0.6643  0.9773
  117OSM   H17G12331   2.961   2.839   8.300 -1.8361  0.0455  0.0043
  117OSM   C18F12332   2.879   2.655   8.390 -0.4558 -1.2452  0.1147
  117OSM   H18F12333   2.791   2.711   8.427  1.2266  0.9287  0.9112
  117OSM   H18G12334   2.950   2.665   8.475 -0.5650 -0.2594  0.0942
  117OSM   H18H12335   2.857   2.548   8.367  1.7175 -1.9268  1.0702
  118OSM      N12336   4.943   5.047   6.343 -0.0298 -0.1460 -0.4414
  118OSM    C1512337   5.051   5.130   6.401 -0.9904  0.4728  0.0351
  118OSM   H15A12338   5.139   5.086   6.356 -1.7296 -0.8531 -0.1126
  118OSM   H15B12339   5.061   5.116   6.507 -1.0285 -1.2181 -0.1809
  118OSM   H15C12340   5.033   5.236   6.387 -1.1482  0.3424 -0.7965
  118OSM    C1412341   4.825   5.047   6.441 -0.0665  0.3767 -0.5603
  118OSM   H14A12342   4.864   5.058   6.541 -0.9172 -1.1300 -0.0408
  118OSM   H14B12343   4.763   4.958   6.440 -1.8442  1.4187  3.2861
  118OSM   H14C12344   4.763   5.133   6.421 -3.8560 -2.7389 -2.9696
  118OSM    C1312345   4.891   5.103   6.214  0.1161  0.7100 -0.4327
  118OSM   H13A12346   4.839   5.197   6.224 -0.9705  0.0675  0.0737
  118OSM   H13B12347   4.821   5.032   6.171  1.3519 -0.8786  0.1296
  118OSM   H13C12348   4.974   5.111   6.146 -0.3498  1.6258 -0.8993
  118OSM    C1212349   4.999   4.904   6.318  0.2080 -0.2707  1.0323
  118OSM   H12A12350   4.910   4.844   6.311  0.2601 -0.4253  1.6265
  118OSM   H12B12351   5.056   4.874   6.405  1.1445 -0.0433  0.5040
  118OSM    C1112352   5.095   4.880   6.199  0.0371  0.1968 -0.8722
  118OSM   H11A12353   5.042   4.913   6.107 -0.8312  0.5245 -0.2537
  118OSM   H11B12354   5.118   4.773   6.182 -2.6261 -0.8112  1.5762
  118OSM      P12355   5.328   4.895   6.304 -0.3691  0.2221  0.0528
  118OSM    O1312356   5.363   4.762   6.255  0.1154 -0.9580  0.2667
  118OSM    O1412357   5.438   4.991   6.298  0.1542 -0.3621  0.0041
  118OSM    O1112358   5.268   4.891   6.448 -0.1428 -0.3649 -0.0690
  118OSM    O1212359   5.212   4.958   6.210  0.5807  0.0215 -0.4464
  118OSM    C1S12360   5.235   4.768   6.518 -0.5471  0.2772  0.6152
  118OSM    H1S12361   5.274   4.678   6.466 -0.2839 -0.3149  1.8081
  118OSM    H1T12362   5.125   4.753   6.528 -0.3768  0.3089  2.7958
  118OSM     NF12363   5.251   4.660   6.746  0.6483 -0.3789  0.3269
  118OSM    HNF12364   5.189   4.674   6.824 -0.4859  1.7956 -0.9199
  118OSM    C2S12365   5.270   4.784   6.673  0.0112 -0.5192 -0.0929
  118OSM    H2S12366   5.380   4.800   6.679  0.1341 -0.3984 -2.1419
  118OSM    C3S12367   5.190   4.909   6.730  0.9884 -0.1261 -0.2480
  118OSM    H3S12368   5.083   4.882   6.744  0.8398  0.5710 -0.0237
  118OSM     O312369   5.194   5.032   6.663  0.1043  0.5217 -0.4684
  118OSM    HO312370   5.239   4.997   6.586 -0.6672  0.1996 -0.7866
  118OSM    C4S12371   5.242   4.928   6.872  0.7268  0.3552  0.0389
  118OSM    H4S12372   5.185   4.874   6.948 -1.4941  2.8854  0.2292
  118OSM    C5S12373   5.347   5.005   6.915 -1.2885 -0.1719 -0.1795
  118OSM    H5S12374   5.396   5.064   6.837  0.1392 -1.6211 -0.4010
  118OSM    C6S12375   5.388   5.023   7.061 -0.2455 -0.7188  0.3600
  118OSM    H6S12376   5.381   5.132   7.083  2.5567 -0.3186 -0.4942
  118OSM    H6T12377   5.499   5.016   7.068 -0.1640  0.4413  0.3544
  118OSM    C7S12378   5.317   4.955   7.175 -0.1598  0.7254  0.0508
  118OSM    H7S12379   5.206   4.957   7.163 -0.2431 -0.4766  0.5203
  118OSM    H7T12380   5.331   5.004   7.274  0.3152 -0.6897  0.7015
  118OSM    C8S12381   5.347   4.800   7.191 -0.4193  0.2344  0.2630
  118OSM    H8S12382   5.456   4.790   7.206  0.3649  3.9431 -2.1991
  118OSM    H8T12383   5.318   4.756   7.093 -0.1829 -0.4779  0.5092
  118OSM    C9S12384   5.266   4.726   7.295 -0.0575 -0.2127 -0.6093
  118OSM    H9S12385   5.160   4.735   7.261 -0.8359 -0.3016  1.7239
  118OSM    H9T12386   5.258   4.773   7.395 -0.0315  0.2801 -0.8386
  118OSM   C10S12387   5.301   4.578   7.322 -0.3238 -0.1680 -0.4079
  118OSM   H10S12388   5.409   4.552   7.317 -0.2892 -0.1103  0.0033
  118OSM   H10T12389   5.254   4.521   7.238 -2.7777  0.1539  0.7072
  118OSM   C11S12390   5.240   4.525   7.455  0.9531 -0.8008  0.5348
  118OSM   H11S12391   5.304   4.564   7.537  0.1834 -0.3931  0.9422
  118OSM   H11T12392   5.250   4.414   7.457  0.8210 -0.8293 -0.1001
  118OSM   C12S12393   5.093   4.565   7.473 -0.8634  0.2085  0.0802
  118OSM   H12S12394   5.036   4.525   7.387 -0.3557  0.7565 -0.5100
  118OSM   H12T12395   5.072   4.674   7.472  0.6805  0.5519  1.4007
  118OSM   C13S12396   5.038   4.499   7.603 -0.4568  0.4876  0.0440
  118OSM   H13S12397   5.064   4.391   7.603  0.2734  0.5648 -3.8055
  118OSM   H13T12398   4.928   4.499   7.610 -0.4718  0.6905 -0.1825
  118OSM   C14S12399   5.088   4.562   7.727  0.1186  0.8640  0.7433
  118OSM   H14S12400   5.060   4.669   7.725  0.6288  0.9895 -0.2888
  118OSM   H14T12401   5.196   4.550   7.753 -0.2210 -0.8021  1.4055
  118OSM   C15S12402   5.024   4.500   7.852 -0.3793  1.2002  0.2110
  118OSM   H15S12403   5.048   4.393   7.837  0.1499  1.5503 -1.6197
  118OSM   H15T12404   4.913   4.502   7.857 -0.4497 -2.3178  1.3847
  118OSM   C16S12405   5.071   4.545   7.983 -0.5996 -1.0251 -0.5130
  118OSM   H16S12406   5.042   4.652   7.995 -0.3906 -0.6912 -2.7693
  118OSM   H16T12407   5.181   4.545   7.997 -0.6973  0.8611  0.4474
  118OSM   C17S12408   5.010   4.471   8.098  0.3691  1.1157  0.5163
  118OSM   H17S12409   5.052   4.369   8.082  0.7116  1.1714  1.0331
  118OSM   H17T12410   4.899   4.463   8.094  0.3760 -0.0223  2.1152
  118OSM   C18S12411   5.060   4.512   8.239 -0.5021 -0.0314 -0.2109
  118OSM   H18S12412   4.984   4.474   8.310 -0.5081 -0.3739 -0.3993
  118OSM   H18T12413   5.062   4.623   8.243  2.1048  0.0229 -1.5604
  118OSM   H18U12414   5.163   4.472   8.255 -1.0889 -2.3730 -1.9200
  118OSM    C1F12415   5.312   4.545   6.717  0.3162 -0.2149 -0.9358
  118OSM     OF12416   5.394   4.548   6.623  0.3358 -0.3659  0.7315
  118OSM    C2F12417   5.268   4.420   6.804 -0.4050  0.4260  0.5453
  118OSM    H2F12418   5.212   4.355   6.734  0.8244  1.0017 -1.0028
  118OSM    H2G12419   5.215   4.443   6.898 -2.2419 -0.3307 -0.2796
  118OSM    C3F12420   5.390   4.316   6.832  0.5427 -0.1108 -0.3159
  118OSM    H3F12421   5.437   4.275   6.740 -2.6741 -1.1456 -1.5540
  118OSM    H3G12422   5.351   4.237   6.900  2.0915  0.2449  1.0114
  118OSM    C4F12423   5.509   4.389   6.897 -0.1150 -0.1061  0.3356
  118OSM    H4F12424   5.555   4.439   6.809  0.3109 -2.1612 -0.6310
  118OSM    H4G12425   5.577   4.306   6.926 -1.0050 -0.5704  1.1375
  118OSM    C5F12426   5.489   4.483   7.016 -0.0608  0.4458 -0.7809
  118OSM    H5F12427   5.461   4.420   7.104  0.0786 -0.4051 -1.3386
  118OSM    H5G12428   5.403   4.552   7.003 -1.4478 -0.9588  0.6321
  118OSM    C6F12429   5.610   4.578   7.030  0.1080  0.3713  0.6692
  118OSM    H6F12430   5.698   4.516   7.006 -0.0814  0.9225 -1.4969
  118OSM    H6G12431   5.630   4.612   7.134  1.8059  1.4332  0.0255
  118OSM    C7F12432   5.602   4.692   6.935  0.3861  0.6377  0.3835
  118OSM    H7F12433   5.501   4.737   6.944 -1.4173 -3.2841  0.7136
  118OSM    H7G12434   5.606   4.651   6.832 -1.0388 -2.7753  1.6173
  118OSM    C8F12435   5.705   4.807   6.962  0.0002  0.6892 -0.1029
  118OSM    H8F12436   5.711   4.807   7.073 -0.3958  1.1515 -0.0813
  118OSM    H8G12437   5.675   4.908   6.928  0.7767  0.9796  0.0570
  118OSM    C9F12438   5.837   4.773   6.894  0.1988  0.3799  0.1624
  118OSM    H9F12439   5.843   4.791   6.786  1.1986 -0.7357  0.0243
  118OSM   C10F12440   5.940   4.713   6.956  0.3302 -0.5944 -0.0519
  118OSM   H10F12441   6.020   4.685   6.886  0.2868  0.8690 -0.7073
  118OSM   C11F12442   5.948   4.682   7.104  0.1411  0.9974 -0.0836
  118OSM   H11F12443   5.948   4.572   7.121 -1.4385  1.3747  2.6140
  118OSM   H11G12444   5.863   4.724   7.162 -0.6025 -0.0123 -0.4155
  118OSM   C12F12445   6.081   4.724   7.176 -0.3172 -0.4734 -1.2020
  118OSM   H12F12446   6.102   4.828   7.143  2.4534 -0.3992  0.6277
  118OSM   H12G12447   6.168   4.670   7.135 -0.0725  0.4290 -1.8781
  118OSM   C13F12448   6.083   4.708   7.328  0.3843  0.2478  0.2626
  118OSM   H13F12449   6.074   4.600   7.356  1.8221 -0.6090 -2.4287
  118OSM   H13G12450   5.995   4.764   7.366 -0.5099 -0.1395 -1.1938
  118OSM   C14F12451   6.210   4.768   7.394  0.1932 -0.3098 -0.1442
  118OSM   H14F12452   6.213   4.875   7.362  0.3674 -0.4777 -0.6957
  118OSM   H14G12453   6.297   4.715   7.349  0.0443  0.2331 -1.0778
  118OSM   C15F12454   6.204   4.747   7.544  0.6731 -0.0159  0.0185
  118OSM   H15F12455   6.299   4.791   7.582 -0.7276  3.1876 -0.1052
  118OSM   H15G12456   6.208   4.640   7.575 -0.8349  0.4727  2.0397
  118OSM   C16F12457   6.094   4.820   7.623  0.1657  0.0520  0.1370
  118OSM   H16F12458   6.110   4.787   7.728  2.4085 -0.8383 -0.4438
  118OSM   H16G12459   5.993   4.785   7.594  0.7226 -1.3592 -0.1372
  118OSM   C17F12460   6.095   4.969   7.603 -0.4489  0.0545  0.0828
  118OSM   H17F12461   6.007   5.005   7.661 -1.6062 -1.1153 -0.8864
  118OSM   H17G12462   6.070   5.003   7.501 -0.1310  1.0793  0.3469
  118OSM   C18F12463   6.221   5.042   7.651  0.3535  0.2259 -0.2249
  118OSM   H18F12464   6.314   5.002   7.605  0.4264 -0.8941  0.8736
  118OSM   H18G12465   6.235   5.025   7.760  1.8837 -3.0322 -0.8771
  118OSM   H18H12466   6.202   5.149   7.630  1.7444  0.6092  0.4132
  119OSM      N12467   0.975   4.353   5.698  0.4459  0.6338  0.5237
  119OSM    C1512468   0.887   4.310   5.586 -0.2618 -0.1329 -0.0628
  119OSM   H15A12469   0.801   4.376   5.580  0.6787  1.1746  0.5707
  119OSM   H15B12470   0.855   4.207   5.594  3.8500 -1.8005 -3.1045
  119OSM   H15C12471   0.930   4.323   5.488  0.2177  4.0101  0.6050
  119OSM    C1412472   1.087   4.254   5.704  0.2921  0.0468  0.7763
  119OSM   H14A12473   1.132   4.231   5.608  0.0455  0.6717  0.5091
  119OSM   H14B12474   1.047   4.160   5.739 -1.0949  0.4435  0.3101
  119OSM   H14C12475   1.160   4.284   5.777 -1.2601  0.1801  2.3211
  119OSM    C1312476   1.030   4.489   5.662  0.5971  0.8003  0.1226
  119OSM   H13A12477   1.113   4.509   5.728 -1.3701 -0.1204  3.0029
  119OSM   H13B12478   0.954   4.563   5.680  0.3221  0.5031  0.2063
  119OSM   H13C12479   1.059   4.484   5.558 -0.2724 -1.0935 -0.0642
  119OSM    C1212480   0.914   4.357   5.837 -0.1250  0.5924 -1.0540
  119OSM   H12A12481   0.980   4.355   5.923  1.4274  1.3474 -2.1981
  119OSM   H12B12482   0.850   4.271   5.850 -0.7972  1.1632 -0.5625
  119OSM    C1112483   0.806   4.463   5.869  0.0065  0.5282  0.3190
  119OSM   H11A12484   0.844   4.567   5.861 -0.9368  0.7365 -1.5673
  119OSM   H11B12485   0.771   4.459   5.974 -1.7967 -1.9394 -0.3477
  119OSM      P12486   0.576   4.372   5.792 -0.5152  0.6782 -0.0516
  119OSM    O1312487   0.487   4.396   5.680  0.0261 -0.1058  0.2191
  119OSM    O1412488   0.612   4.232   5.810  0.3450 -0.2037 -0.9637
  119OSM    O1112489   0.510   4.427   5.921 -0.5445  0.2160 -0.5846
  119OSM    O1212490   0.698   4.463   5.771  0.8523  0.4849 -0.6166
  119OSM    C1S12491   0.512   4.363   6.049 -0.7362  0.5820  0.5878
  119OSM    H1S12492   0.609   4.397   6.089 -0.5341  2.4063 -1.4214
  119OSM    H1T12493   0.525   4.252   6.050 -1.1175  0.4916 -1.4272
  119OSM     NF12494   0.418   4.359   6.268 -0.2772  0.5024  0.1445
  119OSM    HNF12495   0.397   4.265   6.294  1.3646  0.1222  0.1560
  119OSM    C2S12496   0.394   4.395   6.132  0.4073 -0.6291  0.2103
  119OSM    H2S12497   0.378   4.505   6.130 -0.4610 -0.7459  0.6817
  119OSM    C3S12498   0.272   4.326   6.072 -0.5833  0.6736  0.0775
  119OSM    H3S12499   0.275   4.215   6.081 -3.1523  0.6341  0.6792
  119OSM     O312500   0.250   4.361   5.932  0.1287  0.2259  0.7979
  119OSM    HO312501   0.327   4.417   5.921 -0.7675  1.1556 -0.9308
  119OSM    C4S12502   0.144   4.339   6.152  0.8343 -0.4706 -0.1850
  119OSM    H4S12503   0.165   4.293   6.250 -2.1976  3.8281  2.6549
  119OSM    C5S12504   0.030   4.411   6.134 -0.6485  0.3720 -0.2597
  119OSM    H5S12505   0.027   4.464   6.037 -3.8717 -0.3989 -0.6173
  119OSM    C6S12506  -0.080   4.417   6.235 -0.8418  0.2762  0.4705
  119OSM    H6S12507  -0.160   4.352   6.194 -0.0332 -0.8089  0.5981
  119OSM    H6T12508  -0.119   4.517   6.263 -1.5021 -0.4530  2.2552
  119OSM    C7S12509  -0.051   4.362   6.381 -0.8614 -0.2116  0.7874
  119OSM    H7S12510   0.005   4.266   6.371  0.6402  0.4194  2.9066
  119OSM    H7T12511  -0.151   4.349   6.427 -0.9475  2.1442  1.3022
  119OSM    C8S12512   0.036   4.455   6.466  0.3196  0.1303 -0.0950
  119OSM    H8S12513  -0.006   4.556   6.445  0.3325 -0.0324 -0.8929
  119OSM    H8T12514   0.141   4.468   6.431  0.2716 -1.4067 -0.8146
  119OSM    C9S12515   0.024   4.427   6.619 -0.8440  0.0853  0.7967
  119OSM    H9S12516  -0.081   4.429   6.657 -0.1294  4.3020  2.8851
  119OSM    H9T12517   0.084   4.507   6.667 -1.0777  0.5844  0.2612
  119OSM   C10S12518   0.090   4.288   6.654 -0.6566 -0.0861 -0.0486
  119OSM   H10S12519   0.199   4.300   6.669 -0.2016  1.4468 -4.0084
  119OSM   H10T12520   0.068   4.213   6.575  2.7695  0.6247 -1.7745
  119OSM   C11S12521   0.037   4.229   6.781 -0.0305 -1.0146 -0.8876
  119OSM   H11S12522   0.095   4.138   6.808  0.9442  0.3009  1.6842
  119OSM   H11T12523  -0.071   4.207   6.770 -0.6952  0.0724  2.7008
  119OSM   C12S12524   0.049   4.322   6.903 -0.0689  0.4631  0.0004
  119OSM   H12S12525  -0.054   4.363   6.915 -0.3490 -0.2638  0.1347
  119OSM   H12T12526   0.119   4.408   6.892 -0.0978  0.1676 -2.8083
  119OSM   C13S12527   0.079   4.246   7.031 -0.4902  0.7066  0.2204
  119OSM   H13S12528   0.184   4.211   7.024 -0.5797  0.3176  0.7648
  119OSM   H13T12529   0.013   4.157   7.036 -0.4928  0.7513  0.9846
  119OSM   C14S12530   0.051   4.329   7.154 -0.5860 -0.3412  0.4292
  119OSM   H14S12531  -0.055   4.357   7.172 -0.8538 -2.0903  1.6725
  119OSM   H14T12532   0.124   4.412   7.148  0.1856 -0.8431  2.4829
  119OSM   C15S12533   0.107   4.255   7.277 -0.6710 -0.0989 -0.0289
  119OSM   H15S12534   0.199   4.207   7.239 -1.8270 -2.0582 -0.4330
  119OSM   H15T12535   0.045   4.170   7.312 -1.2501 -0.0329 -0.8716
  119OSM   C16S12536   0.125   4.347   7.398 -0.1439  0.1174  0.5841
  119OSM   H16S12537   0.026   4.381   7.436 -0.1516 -1.5786  2.1846
  119OSM   H16T12538   0.184   4.437   7.371 -0.2243  0.1849  0.6343
  119OSM   C17S12539   0.207   4.300   7.510 -0.3391 -0.1874 -0.5462
  119OSM   H17S12540   0.173   4.205   7.556 -1.2340  0.3367 -0.1068
  119OSM   H17T12541   0.221   4.378   7.587 -0.9345 -0.4332 -0.1802
  119OSM   C18S12542   0.352   4.253   7.474  0.4110  0.1987  0.6324
  119OSM   H18S12543   0.344   4.164   7.409  1.1551  1.5932 -1.4019
  119OSM   H18T12544   0.399   4.217   7.568  1.4193 -0.0444  0.0389
  119OSM   H18U12545   0.420   4.320   7.417  1.1200  0.5623  1.8624
  119OSM    C1F12546   0.486   4.441   6.349  0.0795 -0.2833 -0.6515
  119OSM     OF12547   0.535   4.542   6.306 -0.1440  0.2376 -0.0048
  119OSM    C2F12548   0.515   4.386   6.488  0.3842 -0.0274  0.4963
  119OSM    H2F12549   0.618   4.346   6.487  0.8342  1.1271  0.0172
  119OSM    H2G12550   0.452   4.297   6.511 -1.4533  0.7319 -1.3830
  119OSM    C3F12551   0.488   4.500   6.588  0.3457 -0.7976  0.1481
  119OSM    H3F12552   0.381   4.528   6.598  1.2691  2.1116  2.7564
  119OSM    H3G12553   0.547   4.590   6.561 -0.9575 -0.2596 -0.9776
  119OSM    C4F12554   0.538   4.461   6.729  0.1652  0.4876 -0.3537
  119OSM    H4F12555   0.647   4.442   6.718  0.0703 -0.4782  0.3014
  119OSM    H4G12556   0.477   4.380   6.775 -0.0568  0.9389  0.1557
  119OSM    C5F12557   0.530   4.581   6.822  0.1939 -0.6424  0.4471
  119OSM    H5F12558   0.428   4.622   6.810  0.2811 -0.2979  0.8713
  119OSM    H5G12559   0.593   4.666   6.791  0.1784 -0.4196  1.0195
  119OSM    C6F12560   0.553   4.568   6.976 -0.2561 -0.3819  0.3156
  119OSM    H6F12561   0.662   4.556   6.993 -0.5027 -0.3494  2.0335
  119OSM    H6G12562   0.503   4.472   7.003  0.2736 -1.0548 -1.0684
  119OSM    C7F12563   0.481   4.672   7.062  0.4364  0.0230  0.7375
  119OSM    H7F12564   0.400   4.715   6.999  0.7422 -1.4739 -0.7266
  119OSM    H7G12565   0.547   4.757   7.088 -1.9070  2.7120 -1.6524
  119OSM    C8F12566   0.419   4.611   7.189 -0.3805 -0.2457 -0.0771
  119OSM    H8F12567   0.378   4.513   7.156 -0.0041 -0.9804  1.5861
  119OSM    H8G12568   0.338   4.671   7.235 -1.2540 -1.1612 -0.3895
  119OSM    C9F12569   0.537   4.579   7.286 -0.3098  0.4292  0.0055
  119OSM    H9F12570   0.615   4.510   7.249 -0.9288 -1.0837  1.4287
  119OSM   C10F12571   0.557   4.641   7.405  0.5172  0.2544 -0.7219
  119OSM   H10F12572   0.650   4.619   7.459 -1.6587 -1.2467  2.6184
  119OSM   C11F12573   0.462   4.738   7.468 -0.4471 -0.0568 -0.5463
  119OSM   H11F12574   0.364   4.731   7.418  0.0305 -0.1770 -1.4842
  119OSM   H11G12575   0.506   4.840   7.460 -0.1700 -0.1295  0.0046
  119OSM   C12F12576   0.440   4.703   7.618  0.3163 -0.3334  0.1820
  119OSM   H12F12577   0.419   4.595   7.628 -4.3996  0.5534  1.0217
  119OSM   H12G12578   0.348   4.758   7.646  0.9009  2.0525 -2.3377
  119OSM   C13F12579   0.555   4.741   7.704  0.4861  0.5255 -0.4592
  119OSM   H13F12580   0.575   4.850   7.701  2.5672  0.2610  2.1077
  119OSM   H13G12581   0.648   4.692   7.670  1.2371  2.6676 -1.5847
  119OSM   C14F12582   0.511   4.700   7.848  0.5566  0.0649 -0.6976
  119OSM   H14F12583   0.501   4.589   7.852 -1.4955  0.2593  0.3516
  119OSM   H14G12584   0.411   4.742   7.871  0.6057 -0.1224 -0.1258
  119OSM   C15F12585   0.601   4.748   7.966  0.7086 -0.0444  0.0953
  119OSM   H15F12586   0.617   4.857   7.951  0.5740  0.2121  1.6856
  119OSM   H15G12587   0.694   4.690   7.944  1.5420  0.6693  1.6064
  119OSM   C16F12588   0.533   4.726   8.104 -0.2217  0.1824 -0.0444
  119OSM   H16F12589   0.508   4.618   8.102  0.2901  0.0786 -1.1324
  119OSM   H16G12590   0.439   4.785   8.112  0.1299  0.9168 -1.1608
  119OSM   C17F12591   0.619   4.761   8.224 -0.7649 -0.2771 -0.5808
  119OSM   H17F12592   0.563   4.754   8.319 -1.2729  0.3089 -0.8369
  119OSM   H17G12593   0.656   4.864   8.203 -1.8142 -0.3442 -2.9334
  119OSM   C18F12594   0.733   4.663   8.236 -0.0704 -0.0417  0.2665
  119OSM   H18F12595   0.808   4.684   8.316  0.4128  2.2724 -0.7596
  119OSM   H18G12596   0.789   4.651   8.141  0.3097  0.8271  0.3737
  119OSM   H18H12597   0.706   4.557   8.258  0.0179 -0.3609 -1.1313
  120OSM      N12598   4.700   1.442   6.165 -0.5564 -0.6163 -0.5424
  120OSM    C1512599   4.608   1.323   6.143 -0.1207  0.3185  0.3747
  120OSM   H15A12600   4.638   1.276   6.050 -1.6794  0.1165 -0.0352
  120OSM   H15B12601   4.504   1.352   6.137 -0.4254 -0.9929 -0.9650
  120OSM   H15C12602   4.627   1.245   6.215  0.8221  0.3154  0.1379
  120OSM    C1412603   4.843   1.389   6.146  0.1604 -0.4279 -0.3014
  120OSM   H14A12604   4.851   1.326   6.059 -0.6644 -0.2508 -0.5168
  120OSM   H14B12605   4.870   1.335   6.236 -0.6883  0.9290  0.7991
  120OSM   H14C12606   4.905   1.474   6.123 -0.3195  0.4512  1.5075
  120OSM    C1312607   4.667   1.549   6.064  0.4444  0.2486 -0.3785
  120OSM   H13A12608   4.684   1.522   5.960  1.4412  2.7081 -0.8779
  120OSM   H13B12609   4.721   1.642   6.064  0.5019  0.2130  0.3821
  120OSM   H13C12610   4.562   1.572   6.078 -0.2208 -2.7464 -0.1512
  120OSM    C1212611   4.679   1.488   6.306 -0.2733 -0.0246 -0.9707
  120OSM   H12A12612   4.759   1.549   6.345 -1.3184  0.3049  0.7325
  120OSM   H12B12613   4.677   1.403   6.373  4.2181  0.3320 -0.2733
  120OSM    C1112614   4.548   1.575   6.330  0.3350  0.6669  0.7826
  120OSM   H11A12615   4.519   1.567   6.437 -0.9156 -0.6640  0.3523
  120OSM   H11B12616   4.462   1.534   6.273  0.0482  1.2176  0.8089
  120OSM      P12617   4.637   1.816   6.367 -0.3388  0.2217 -0.3264
  120OSM    O1312618   4.737   1.886   6.282  0.7836  0.2832  0.8055
  120OSM    O1412619   4.539   1.889   6.446  0.1011 -0.0080  0.8426
  120OSM    O1112620   4.725   1.729   6.464 -0.4812 -0.0243  0.0089
  120OSM    O1212621   4.554   1.707   6.274 -0.1544 -0.6477  0.4002
  120OSM    C1S12622   4.827   1.787   6.548  0.3617  0.2479 -0.1643
  120OSM    H1S12623   4.825   1.898   6.555  0.0162  0.1930  0.6776
  120OSM    H1T12624   4.927   1.764   6.506  0.4043 -1.7563  0.9608
  120OSM     NF12625   4.953   1.793   6.770 -0.5836 -0.0897  0.4470
  120OSM    HNF12626   5.016   1.727   6.811 -1.1935  0.5326  2.4806
  120OSM    C2S12627   4.838   1.731   6.697 -0.2902  0.1865  0.2100
  120OSM    H2S12628   4.747   1.768   6.748 -1.1224  0.4960 -1.4577
  120OSM    C3S12629   4.847   1.572   6.706 -0.0858  0.1841 -0.2626
  120OSM    H3S12630   4.946   1.541   6.665  0.3856  1.5998 -0.2245
  120OSM     O312631   4.759   1.499   6.615  0.1982 -0.2925  0.3310
  120OSM    HO312632   4.708   1.568   6.572 -0.4751 -1.6126 -1.0146
  120OSM    C4S12633   4.822   1.529   6.847  0.4840  0.6601  0.0114
  120OSM    H4S12634   4.751   1.595   6.899  0.9688  2.0899 -1.1090
  120OSM    C5S12635   4.870   1.420   6.908  0.3074 -0.1552  1.0453
  120OSM    H5S12636   4.938   1.361   6.845 -0.2130 -0.5945  0.8825
  120OSM    C6S12637   4.833   1.363   7.045 -0.6230 -0.0445 -0.1277
  120OSM    H6S12638   4.800   1.257   7.041  0.7653 -0.4525 -1.2843
  120OSM    H6T12639   4.755   1.420   7.099 -0.3309  0.5164 -0.2947
  120OSM    C7S12640   4.958   1.367   7.147 -0.1206 -0.1511  0.9802
  120OSM    H7S12641   4.986   1.473   7.162  0.8605 -0.5044  1.6946
  120OSM    H7T12642   5.048   1.313   7.111 -0.8278  0.5524 -2.0313
  120OSM    C8S12643   4.925   1.300   7.286  0.1761  0.1345 -0.0799
  120OSM    H8S12644   5.032   1.289   7.315  0.4682 -0.6459 -1.4159
  120OSM    H8T12645   4.889   1.197   7.265 -0.6578  0.8836 -2.4388
  120OSM    C9S12646   4.838   1.378   7.378  1.0203  0.2808 -0.6171
  120OSM    H9S12647   4.732   1.372   7.347  0.0695  1.1337  2.3084
  120OSM    H9T12648   4.880   1.481   7.381  0.0464  0.7176 -1.7275
  120OSM   C10S12649   4.848   1.340   7.529  0.6151  0.1219 -0.0468
  120OSM   H10S12650   4.956   1.351   7.550  0.1447  0.3670  2.3638
  120OSM   H10T12651   4.818   1.235   7.545  0.6647  0.3495  1.5649
  120OSM   C11S12652   4.757   1.435   7.615  0.3078  0.5293 -0.8124
  120OSM   H11S12653   4.655   1.397   7.591  1.8017 -3.6174 -0.8994
  120OSM   H11T12654   4.772   1.540   7.581 -0.6832  0.3319 -1.9174
  120OSM   C12S12655   4.780   1.438   7.763 -0.3218 -0.2050 -0.4556
  120OSM   H12S12656   4.749   1.337   7.796 -0.4356  0.1789  0.6635
  120OSM   H12T12657   4.708   1.506   7.815  1.3835  0.9275  0.5024
  120OSM   C13S12658   4.920   1.481   7.801 -0.3398 -0.0479 -0.6241
  120OSM   H13S12659   4.936   1.579   7.751 -1.0591 -0.2979 -1.3587
  120OSM   H13T12660   4.985   1.397   7.772  0.1172  0.4995 -1.1938
  120OSM   C14S12661   4.940   1.493   7.952  0.6605  0.2887 -0.5320
  120OSM   H14S12662   4.928   1.393   7.999  1.3608  0.7065  0.5655
  120OSM   H14T12663   4.867   1.565   7.996  0.4793 -0.0534 -0.2725
  120OSM   C15S12664   5.076   1.559   7.982  0.2205 -0.7408 -0.1229
  120OSM   H15S12665   5.087   1.652   7.923  0.0901 -1.3242 -1.0834
  120OSM   H15T12666   5.153   1.491   7.939  1.5652 -1.0227  2.6065
  120OSM   C16S12667   5.115   1.586   8.128  0.1090 -0.4630  0.2087
  120OSM   H16S12668   5.046   1.663   8.170  1.1136  0.4245  0.2665
  120OSM   H16T12669   5.210   1.641   8.143  1.1005 -1.4874 -2.0742
  120OSM   C17S12670   5.101   1.462   8.222 -0.4941 -0.2981 -0.2174
  120OSM   H17S12671   5.015   1.402   8.185  1.1331 -3.7733  1.3409
  120OSM   H17T12672   5.063   1.502   8.319 -1.5345 -0.9248 -0.3576
  120OSM   C18S12673   5.223   1.378   8.229  0.7166  0.0981  0.4230
  120OSM   H18S12674   5.203   1.286   8.287 -2.9094 -0.5242 -1.6551
  120OSM   H18T12675   5.314   1.423   8.274  1.3537 -1.9490  1.2763
  120OSM   H18U12676   5.244   1.352   8.123 -0.8106  1.7897 -0.3285
  120OSM    C1F12677   4.961   1.923   6.790  0.5833 -0.7746  0.6118
  120OSM     OF12678   4.857   1.993   6.777 -0.4353 -0.6158 -0.5250
  120OSM    C2F12679   5.095   1.982   6.836  0.4742 -0.4603 -0.1011
  120OSM    H2F12680   5.163   1.995   6.749 -1.0034  1.3178 -1.0238
  120OSM    H2G12681   5.148   1.911   6.903 -0.0707  1.0262  1.9569
  120OSM    C3F12682   5.072   2.121   6.906  0.8548 -0.1708  0.2963
  120OSM    H3F12683   5.028   2.194   6.836  2.0751 -0.4927 -0.8427
  120OSM    H3G12684   5.170   2.168   6.928  2.1505 -1.8929 -1.5393
  120OSM    C4F12685   4.993   2.115   7.045  0.2753  0.5022  1.1019
  120OSM    H4F12686   4.895   2.064   7.034  0.4873  0.2643  0.2689
  120OSM    H4G12687   4.978   2.217   7.087  0.4723  0.7515  0.5774
  120OSM    C5F12688   5.083   2.046   7.146 -0.5583  0.2015  0.2993
  120OSM    H5F12689   5.191   2.056   7.122 -0.2721 -0.2414  1.3721
  120OSM    H5G12690   5.068   1.936   7.142  0.3262  0.1450 -1.7285
  120OSM    C6F12691   5.060   2.105   7.288  0.2689  0.2854  0.3104
  120OSM    H6F12692   4.952   2.126   7.305  1.1979  4.2114  2.0084
  120OSM    H6G12693   5.111   2.202   7.275 -0.2827  0.3162 -1.8564
  120OSM    C7F12694   5.127   2.028   7.407 -0.3665 -0.1890 -0.1648
  120OSM    H7F12695   5.231   2.002   7.379  0.0102  0.6010  0.4638
  120OSM    H7G12696   5.075   1.931   7.423 -0.5923  0.1269  1.1243
  120OSM    C8F12697   5.146   2.111   7.533 -0.4040 -0.6143 -0.1998
  120OSM    H8F12698   5.184   2.215   7.520 -1.0778 -0.3138  0.2370
  120OSM    H8G12699   5.218   2.054   7.595 -0.7524 -1.3560 -0.4788
  120OSM    C9F12700   5.012   2.129   7.610  0.1042 -0.6803  0.3346
  120OSM    H9F12701   4.930   2.158   7.543 -1.6818  0.1675  2.8153
  120OSM   C10F12702   4.986   2.096   7.739  0.1363 -0.5887  0.1315
  120OSM   H10F12703   4.880   2.093   7.771 -0.5096 -1.3851 -1.9656
  120OSM   C11F12704   5.089   2.047   7.838 -0.4869 -0.0414  0.0868
  120OSM   H11F12705   5.194   2.070   7.814 -0.7504 -0.9210 -1.9448
  120OSM   H11G12706   5.078   1.936   7.835  0.5025 -0.0801 -2.7163
  120OSM   C12F12707   5.059   2.093   7.982  0.2428 -0.1571 -0.5080
  120OSM   H12F12708   4.954   2.073   8.011  0.2096 -2.3804 -1.9573
  120OSM   H12G12709   5.068   2.203   7.993 -1.8461 -0.0440  0.2262
  120OSM   C13F12710   5.145   2.022   8.088 -0.4722  0.3506  0.4701
  120OSM   H13F12711   5.249   2.057   8.101  0.1321 -1.1418 -0.2913
  120OSM   H13G12712   5.138   1.913   8.069  3.4591 -0.3394  2.5895
  120OSM   C14F12713   5.080   2.046   8.226  0.5958  0.4391  0.1895
  120OSM   H14F12714   4.973   2.015   8.220  0.9153 -0.8850  1.2410
  120OSM   H14G12715   5.086   2.151   8.262  0.7859  0.3372  0.4559
  120OSM   C15F12716   5.124   1.962   8.348 -0.8059  1.1469 -0.6051
  120OSM   H15F12717   5.234   1.977   8.345 -0.5848 -0.4830 -1.1351
  120OSM   H15G12718   5.112   1.854   8.328  1.7569  0.5954  0.6350
  120OSM   C16F12719   5.063   2.006   8.480  0.0758  0.3139  0.3018
  120OSM   H16F12720   4.952   2.010   8.469  0.0371 -3.2464 -1.1153
  120OSM   H16G12721   5.093   2.113   8.487  1.8950  0.2257 -4.5583
  120OSM   C17F12722   5.107   1.928   8.608 -0.1211 -0.8882 -0.0306
  120OSM   H17F12723   5.084   1.819   8.600 -1.2520 -0.7525  1.2999
  120OSM   H17G12724   5.050   1.983   8.686 -1.8932 -1.0633 -1.1726
  120OSM   C18F12725   5.258   1.951   8.634  0.4270 -0.0520 -0.6152
  120OSM   H18F12726   5.285   1.921   8.737  0.3247 -0.0425 -0.5859
  120OSM   H18G12727   5.278   2.061   8.629 -0.1555  0.3672  4.3310
  120OSM   H18H12728   5.319   1.896   8.558 -1.2337 -1.7321 -0.7603
  121OSM      N12729   6.107   3.302   5.895  0.4328 -0.3052  0.1028
  121OSM    C1512730   6.154   3.282   5.753 -0.0647 -0.2177 -0.2961
  121OSM   H15A12731   6.136   3.179   5.727 -3.2435 -0.3371  2.0069
  121OSM   H15B12732   6.259   3.303   5.739  0.2092 -2.2682 -1.5175
  121OSM   H15C12733   6.098   3.346   5.686  0.9191  0.6174 -0.3324
  121OSM    C1412734   5.963   3.273   5.901  0.3500  0.4516  1.0953
  121OSM   H14A12735   5.925   3.276   6.002 -1.5465 -1.0260  0.4648
  121OSM   H14B12736   5.926   3.184   5.853 -0.5950  0.3957  1.9199
  121OSM   H14C12737   5.917   3.359   5.854  0.5789 -0.5188 -0.9510
  121OSM    C1312738   6.169   3.195   5.977 -0.3111 -0.8795 -0.4173
  121OSM   H13A12739   6.276   3.209   5.976 -0.3256 -0.4202  2.2387
  121OSM   H13B12740   6.148   3.096   5.940  0.3617 -2.4547  3.2292
  121OSM   H13C12741   6.135   3.200   6.079  1.7930 -0.4212  0.2801
  121OSM    C1212742   6.129   3.448   5.942  0.4346  0.2418 -0.5238
  121OSM   H12A12743   6.065   3.517   5.888 -0.4371  0.3729  0.6576
  121OSM   H12B12744   6.226   3.477   5.904  0.1457  0.9500 -0.7255
  121OSM    C1112745   6.114   3.480   6.092  0.2747  0.4919 -0.3110
  121OSM   H11A12746   6.150   3.585   6.099 -2.0775  1.3066 -0.2498
  121OSM   H11B12747   6.191   3.423   6.147 -0.2257  1.3454  1.3005
  121OSM      P12748   5.895   3.576   6.207 -0.4028 -0.3951  0.1726
  121OSM    O1312749   5.918   3.690   6.114 -0.3047 -0.0671 -0.2831
  121OSM    O1412750   5.758   3.524   6.223 -0.1006  0.2115 -0.3233
  121OSM    O1112751   5.957   3.613   6.352  0.1482  0.4126  0.1245
  121OSM    O1212752   5.988   3.456   6.160  0.7627  0.0137  0.0823
  121OSM    C1S12753   6.072   3.542   6.402 -0.0948 -0.5779  0.5824
  121OSM    H1S12754   6.166   3.587   6.366  1.2584 -2.8507  1.1481
  121OSM    H1T12755   6.083   3.436   6.371  1.4729 -0.0476 -0.7378
  121OSM     NF12756   6.214   3.503   6.609 -0.1762 -0.5711  0.3012
  121OSM    HNF12757   6.225   3.410   6.644  1.0213  0.1051  1.8055
  121OSM    C2S12758   6.076   3.538   6.559 -0.0191  0.3475  0.4791
  121OSM    H2S12759   6.047   3.640   6.591 -0.9187  0.1075  0.4484
  121OSM    C3S12760   5.964   3.439   6.609 -0.0095  0.1263 -0.2801
  121OSM    H3S12761   5.995   3.333   6.592  1.4224  0.4868  0.0610
  121OSM     O312762   5.842   3.463   6.540  0.1229  0.2978 -0.1350
  121OSM    HO312763   5.869   3.528   6.475 -0.1512  1.6967  1.1226
  121OSM    C4S12764   5.938   3.444   6.761  0.2973  1.3954 -0.6848
  121OSM    H4S12765   6.028   3.414   6.816 -0.3398  1.3851  0.3523
  121OSM    C5S12766   5.831   3.493   6.826  0.5252  0.2760 -0.0776
  121OSM    H5S12767   5.740   3.528   6.775  1.0176  0.4255 -0.8527
  121OSM    C6S12768   5.818   3.500   6.977  0.3502  0.0069  0.7684
  121OSM    H6S12769   5.710   3.489   7.002  0.3661 -0.4672  0.6338
  121OSM    H6T12770   5.848   3.600   7.015  2.5402  0.3386 -1.7170
  121OSM    C7S12771   5.896   3.376   7.045 -0.0420  0.0778  0.5795
  121OSM    H7S12772   6.002   3.406   7.030  0.3482 -2.3495 -1.7566
  121OSM    H7T12773   5.873   3.288   6.981 -1.0034  1.1346 -0.5541
  121OSM    C8S12774   5.881   3.352   7.196  0.0288 -0.2106 -0.2168
  121OSM    H8S12775   5.954   3.413   7.254  0.0090 -0.9219  0.5771
  121OSM    H8T12776   5.902   3.243   7.209  0.0857 -0.6266 -3.3844
  121OSM    C9S12777   5.736   3.371   7.247 -0.1829  0.2038 -0.1346
  121OSM    H9S12778   5.674   3.316   7.174 -0.2487 -0.5770  0.4977
  121OSM    H9T12779   5.712   3.480   7.245  1.0525  0.4639 -1.8531
  121OSM   C10S12780   5.709   3.328   7.388 -0.2091  0.4670  0.6261
  121OSM   H10S12781   5.737   3.222   7.399  1.9935  1.0019  0.3234
  121OSM   H10T12782   5.599   3.341   7.400 -0.2335 -0.1460  1.0315
  121OSM   C11S12783   5.793   3.412   7.482  0.0303 -0.0778  0.3940
  121OSM   H11S12784   5.786   3.523   7.477  0.1221 -0.1264 -0.8663
  121OSM   H11T12785   5.899   3.381   7.485  0.1091  0.1511 -0.0495
  121OSM   C12S12786   5.733   3.380   7.625 -0.2691 -0.2353 -0.3879
  121OSM   H12S12787   5.753   3.272   7.640  1.3290  0.3387  1.8249
  121OSM   H12T12788   5.626   3.404   7.636 -0.4988 -0.7269 -1.4606
  121OSM   C13S12789   5.806   3.461   7.736 -0.0384 -0.5796 -0.4263
  121OSM   H13S12790   5.784   3.401   7.827  1.5617 -2.5256 -1.2820
  121OSM   H13T12791   5.775   3.566   7.750  0.3052 -0.4666 -0.5073
  121OSM   C14S12792   5.958   3.471   7.715  0.3154  0.2870  0.8226
  121OSM   H14S12793   5.984   3.552   7.644  1.7397 -0.6089  0.3051
  121OSM   H14T12794   5.997   3.375   7.673  1.4416  0.7134  0.8704
  121OSM   C15S12795   6.016   3.503   7.851 -0.7690  0.1358  0.3267
  121OSM   H15S12796   5.987   3.414   7.911  0.3637  1.0351  2.2744
  121OSM   H15T12797   5.966   3.598   7.882 -1.1001 -0.1126  0.5653
  121OSM   C16S12798   6.169   3.516   7.838 -0.0591  0.0315  0.0024
  121OSM   H16S12799   6.180   3.593   7.759  0.3627  0.4589  0.4740
  121OSM   H16T12800   6.206   3.416   7.807 -4.6204 -1.1681 -2.0428
  121OSM   C17S12801   6.241   3.543   7.974  0.4368  0.5695 -0.5848
  121OSM   H17S12802   6.214   3.465   8.049 -0.5306 -0.0441 -1.5592
  121OSM   H17T12803   6.195   3.636   8.013  0.5353 -0.4363  2.0529
  121OSM   C18S12804   6.393   3.540   7.972  0.4038  0.4891  0.5121
  121OSM   H18S12805   6.439   3.556   8.072  1.5432 -2.9162  0.5738
  121OSM   H18T12806   6.442   3.620   7.912 -1.4519  1.1910 -0.1058
  121OSM   H18U12807   6.428   3.450   7.918  0.8255  0.6177  0.5681
  121OSM    C1F12808   6.324   3.573   6.587 -0.0030 -0.4009 -0.3642
  121OSM     OF12809   6.311   3.688   6.545  0.0206  0.7342 -0.6280
  121OSM    C2F12810   6.457   3.519   6.611  0.2845 -0.2196  0.4336
  121OSM    H2F12811   6.512   3.562   6.525 -0.6498 -0.2492 -0.1821
  121OSM    H2G12812   6.455   3.408   6.608 -0.1180 -0.2073  0.2834
  121OSM    C3F12813   6.525   3.575   6.738 -0.6480 -0.7513  0.0582
  121OSM    H3F12814   6.466   3.551   6.828 -0.0984 -1.4852  0.2324
  121OSM    H3G12815   6.527   3.686   6.742 -1.2064 -0.7648  0.7104
  121OSM    C4F12816   6.669   3.518   6.755  0.3702  0.3752 -0.3030
  121OSM    H4F12817   6.734   3.555   6.672  2.4885  2.2291  2.0913
  121OSM    H4G12818   6.673   3.408   6.765  3.3409  0.4160 -0.5015
  121OSM    C5F12819   6.743   3.568   6.882 -0.3754 -0.3271 -0.2003
  121OSM    H5F12820   6.740   3.678   6.896  1.0467 -0.2456 -0.4298
  121OSM    H5G12821   6.853   3.553   6.882 -0.5015 -1.3100 -0.9877
  121OSM    C6F12822   6.702   3.497   7.013 -0.1619 -0.8859 -0.0961
  121OSM    H6F12823   6.738   3.393   7.025  2.0638 -0.2990 -1.2958
  121OSM    H6G12824   6.593   3.508   7.030 -0.1973 -1.2399 -0.0921
  121OSM    C7F12825   6.747   3.571   7.145 -0.3989 -0.2295  0.0197
  121OSM    H7F12826   6.706   3.674   7.146  1.0414  0.3765 -1.5673
  121OSM    H7G12827   6.858   3.576   7.143 -0.3618 -0.6297  0.7066
  121OSM    C8F12828   6.698   3.488   7.266 -0.0303  0.3536 -0.1501
  121OSM    H8F12829   6.717   3.379   7.265 -3.4780 -0.2809 -1.0504
  121OSM    H8G12830   6.587   3.495   7.267 -0.2135 -1.9771  2.0861
  121OSM    C9F12831   6.756   3.561   7.389  0.4412  0.6497  0.0056
  121OSM    H9F12832   6.850   3.616   7.374  0.5485  0.4821  0.0731
  121OSM   C10F12833   6.705   3.559   7.510  0.3035  0.8860  0.5382
  121OSM   H10F12834   6.751   3.626   7.584 -1.2070  4.0921 -1.3366
  121OSM   C11F12835   6.575   3.479   7.547 -0.9436  0.6655 -0.5149
  121OSM   H11F12836   6.586   3.437   7.649 -1.2980 -0.4469 -0.9206
  121OSM   H11G12837   6.562   3.387   7.486  0.2786  0.7277 -0.8888
  121OSM   C12F12838   6.443   3.552   7.555  0.2949  0.7172  0.7150
  121OSM   H12F12839   6.453   3.630   7.633 -1.1826  1.5576  0.0781
  121OSM   H12G12840   6.360   3.486   7.587 -1.5861  1.0145 -3.1319
  121OSM   C13F12841   6.403   3.606   7.415 -0.2995  0.4583  0.3763
  121OSM   H13F12842   6.397   3.525   7.340 -0.9498  0.5897  0.2800
  121OSM   H13G12843   6.477   3.679   7.377 -0.5818 -1.2213 -3.6100
  121OSM   C14F12844   6.267   3.683   7.430 -0.4134 -0.4176  0.0569
  121OSM   H14F12845   6.268   3.744   7.523 -0.6286  0.4609 -0.5095
  121OSM   H14G12846   6.192   3.604   7.452 -0.0717 -0.4063  1.3071
  121OSM   C15F12847   6.212   3.768   7.315  0.2782 -0.5960 -0.6276
  121OSM   H15F12848   6.281   3.847   7.280  0.1940 -0.3637 -0.2814
  121OSM   H15G12849   6.121   3.822   7.351  0.2125  0.5326 -2.4307
  121OSM   C16F12850   6.196   3.686   7.183 -0.9102  0.2842 -0.4274
  121OSM   H16F12851   6.117   3.609   7.186 -1.0519  0.4012 -1.0458
  121OSM   H16G12852   6.292   3.639   7.152 -0.1980  1.7856 -0.5834
  121OSM   C17F12853   6.147   3.771   7.057  0.4684 -0.7068  0.3171
  121OSM   H17F12854   6.219   3.854   7.038  1.7670 -1.8238  0.3620
  121OSM   H17G12855   6.051   3.820   7.088  0.6613  0.2847 -0.6057
  121OSM   C18F12856   6.127   3.690   6.929  0.1394  0.8094  0.4074
  121OSM   H18F12857   6.093   3.589   6.963  0.6534 -0.0201 -1.4541
  121OSM   H18G12858   6.215   3.675   6.862 -0.0128 -1.7770  0.7263
  121OSM   H18H12859   6.048   3.722   6.857 -0.1031 -0.4020  0.1236
  122OSM      N12860   5.189   5.303   5.980  0.2950  0.2359  0.1840
  122OSM    C1512861   5.323   5.271   5.920 -0.3346  0.3313  0.2744
  122OSM   H15A12862   5.352   5.173   5.956 -0.7983 -0.6882 -2.0441
  122OSM   H15B12863   5.395   5.341   5.959 -0.4850  0.5162  0.2146
  122OSM   H15C12864   5.305   5.268   5.814 -0.0325  2.5756  0.1297
  122OSM    C1412865   5.078   5.218   5.909 -0.5142  0.1326  0.2528
  122OSM   H14A12866   4.977   5.255   5.921 -0.6447  0.3915 -1.5139
  122OSM   H14B12867   5.080   5.114   5.937 -0.8622  0.4534  1.5041
  122OSM   H14C12868   5.105   5.216   5.804 -0.6753 -1.1208  0.2219
  122OSM    C1312869   5.188   5.260   6.125  0.0605  0.1295  0.2936
  122OSM   H13A12870   5.188   5.153   6.140  0.3304  0.1140  0.1794
  122OSM   H13B12871   5.103   5.304   6.176 -1.0346 -1.1061 -0.4200
  122OSM   H13C12872   5.277   5.294   6.175  1.0284  0.3573 -1.5353
  122OSM    C1212873   5.150   5.449   5.970  0.5215 -0.2592 -0.7059
  122OSM   H12A12874   5.048   5.458   6.003  1.6221  0.3751  2.7885
  122OSM   H12B12875   5.151   5.481   5.867 -0.4036  0.1464 -0.5879
  122OSM    C1112876   5.238   5.560   6.042 -0.3617 -0.2426  1.0840
  122OSM   H11A12877   5.235   5.534   6.150 -0.3892  1.2370  1.4524
  122OSM   H11B12878   5.181   5.651   6.017  2.2998  0.7593 -1.6871
  122OSM      P12879   5.460   5.694   6.037 -0.2163 -0.4832 -0.2767
  122OSM    O1312880   5.605   5.678   6.011  0.2500  0.5790  0.0447
  122OSM    O1412881   5.412   5.827   5.997 -0.0251  0.5034 -0.3870
  122OSM    O1112882   5.435   5.678   6.195 -0.4068 -0.0801 -0.3943
  122OSM    O1212883   5.369   5.576   5.982  0.5462 -0.5413  0.4281
  122OSM    C1S12884   5.514   5.568   6.248 -0.0005 -0.2360  0.8765
  122OSM    H1S12885   5.624   5.581   6.247  0.2961 -2.6015 -1.4219
  122OSM    H1T12886   5.477   5.476   6.198 -2.2215  0.7379  0.6686
  122OSM     NF12887   5.579   5.471   6.463 -0.4255  0.7132  0.0429
  122OSM    HNF12888   5.554   5.380   6.495  0.2776  0.1844 -0.9029
  122OSM    C2S12889   5.485   5.558   6.403 -0.5845 -0.0306  0.3350
  122OSM    H2S12890   5.500   5.657   6.451 -0.9523 -0.1291  0.6541
  122OSM    C3S12891   5.343   5.511   6.431 -1.0602 -0.2719 -0.5447
  122OSM    H3S12892   5.327   5.413   6.381  0.1633 -1.8040  1.9509
  122OSM     O312893   5.249   5.608   6.385  0.4068 -0.3653 -0.6503
  122OSM    HO312894   5.293   5.642   6.307  2.0459 -0.0107  0.4022
  122OSM    C4S12895   5.322   5.499   6.582 -0.0335 -0.4919  0.3288
  122OSM    H4S12896   5.335   5.590   6.641  0.2832 -1.7262  2.2121
  122OSM    C5S12897   5.301   5.386   6.648 -0.4741  0.3580 -0.6430
  122OSM    H5S12898   5.302   5.286   6.601  1.4028  0.6361 -1.2066
  122OSM    C6S12899   5.306   5.376   6.793  0.0686 -0.3526 -0.9435
  122OSM    H6S12900   5.383   5.301   6.819  0.5183 -0.2139 -1.8802
  122OSM    H6T12901   5.203   5.343   6.817 -0.2324  2.2982  1.7198
  122OSM    C7S12902   5.321   5.515   6.869 -1.0132 -0.4083  0.4116
  122OSM    H7S12903   5.242   5.590   6.846 -1.8451 -1.0715  1.0564
  122OSM    H7T12904   5.414   5.558   6.828 -1.7865  1.5850  0.6827
  122OSM    C8S12905   5.347   5.507   7.019 -0.7087 -0.1765  0.9955
  122OSM    H8S12906   5.431   5.437   7.041  0.8911  1.4750  0.2773
  122OSM    H8T12907   5.273   5.446   7.075 -2.0620 -0.7248 -1.3592
  122OSM    C9S12908   5.378   5.637   7.096 -0.0560 -0.4276 -0.0563
  122OSM    H9S12909   5.290   5.705   7.088  0.3351  0.0883 -0.0226
  122OSM    H9T12910   5.464   5.699   7.060 -2.0792  1.5734 -1.6098
  122OSM   C10S12911   5.400   5.605   7.246 -0.2635 -0.2354  0.5185
  122OSM   H10S12912   5.342   5.516   7.278 -0.3837 -0.0039  0.9446
  122OSM   H10T12913   5.354   5.688   7.304  0.0281  0.9734 -0.9675
  122OSM   C11S12914   5.546   5.568   7.286 -0.2133  0.1075 -0.3051
  122OSM   H11S12915   5.605   5.660   7.263 -2.7837  1.4750 -1.6542
  122OSM   H11T12916   5.577   5.479   7.228 -2.2376 -0.7516 -0.1155
  122OSM   C12S12917   5.571   5.550   7.439 -0.3197 -0.5851 -0.8989
  122OSM   H12S12918   5.679   5.563   7.461 -0.1808  0.8391 -2.3462
  122OSM   H12T12919   5.539   5.444   7.453 -0.2986 -0.7013 -1.7431
  122OSM   C13S12920   5.497   5.641   7.530 -0.0485  0.1208 -0.2494
  122OSM   H13S12921   5.388   5.621   7.538 -0.1027  0.1762 -0.8142
  122OSM   H13T12922   5.504   5.744   7.488  3.6621  0.3037  0.6405
  122OSM   C14S12923   5.554   5.653   7.669 -0.4101  0.5449 -0.4814
  122OSM   H14S12924   5.534   5.751   7.716  1.1269  0.0499  1.2366
  122OSM   H14T12925   5.665   5.649   7.666 -0.3999 -0.6637  0.9672
  122OSM   C15S12926   5.500   5.543   7.762  0.0515  0.7496  0.0271
  122OSM   H15S12927   5.514   5.446   7.710 -0.9596 -0.0317  1.2042
  122OSM   H15T12928   5.391   5.561   7.769 -0.0067  0.6463 -0.5806
  122OSM   C16S12929   5.568   5.535   7.899  0.1211 -0.3840 -0.0296
  122OSM   H16S12930   5.571   5.634   7.949  0.0951  0.1143 -1.0005
  122OSM   H16T12931   5.669   5.490   7.891  0.5249  0.6906 -0.9017
  122OSM   C17S12932   5.491   5.440   7.993 -0.6054 -1.1452  0.1306
  122OSM   H17S12933   5.440   5.373   7.921 -2.0093 -0.9915  0.9503
  122OSM   H17T12934   5.415   5.496   8.052 -0.5367  1.4735 -2.1626
  122OSM   C18S12935   5.566   5.363   8.096 -0.5391  0.6609  0.8164
  122OSM   H18S12936   5.493   5.307   8.159 -0.3319 -0.3557  0.1697
  122OSM   H18T12937   5.615   5.429   8.170 -1.0162 -0.6904  2.3622
  122OSM   H18U12938   5.649   5.309   8.045 -1.7543 -0.5875  0.0963
  122OSM    C1F12939   5.714   5.508   6.477 -0.8739 -0.1940 -0.7937
  122OSM     OF12940   5.755   5.625   6.486  0.2042 -0.0299  0.3396
  122OSM    C2F12941   5.814   5.388   6.467 -0.6417 -0.8480  0.5126
  122OSM    H2F12942   5.883   5.406   6.382 -1.1922  0.8683  0.4122
  122OSM    H2G12943   5.748   5.301   6.443 -0.3653 -0.8166 -0.3575
  122OSM    C3F12944   5.867   5.348   6.605 -0.2721 -0.2940  1.2280
  122OSM    H3F12945   5.941   5.426   6.631  2.4347 -1.4431 -2.5473
  122OSM    H3G12946   5.931   5.256   6.606 -0.8298 -0.6775  1.7228
  122OSM    C4F12947   5.769   5.339   6.723 -0.4343  0.1227  0.1389
  122OSM    H4F12948   5.688   5.273   6.686  0.9153 -0.8117 -1.1622
  122OSM    H4G12949   5.730   5.441   6.746 -1.5904  0.1783 -1.9827
  122OSM    C5F12950   5.840   5.279   6.847 -0.6541  0.5931 -0.6643
  122OSM    H5F12951   5.916   5.350   6.887  0.5252 -0.4899 -0.9181
  122OSM    H5G12952   5.904   5.194   6.816 -0.8547  0.9845 -2.1985
  122OSM    C6F12953   5.735   5.233   6.956 -0.3147  0.4318 -0.2915
  122OSM    H6F12954   5.665   5.171   6.897 -1.8365  0.5735  1.3016
  122OSM    H6G12955   5.679   5.320   6.997 -1.3829 -0.8222  0.9645
  122OSM    C7F12956   5.780   5.158   7.078  0.1482  1.1172 -0.4587
  122OSM    H7F12957   5.844   5.078   7.035 -2.1722 -0.7163 -0.5448
  122OSM    H7G12958   5.690   5.105   7.113 -0.8968  3.1112 -0.0244
  122OSM    C8F12959   5.835   5.214   7.209 -0.5652 -0.1713  0.3293
  122OSM    H8F12960   5.770   5.296   7.247 -0.1304  0.2101  0.2692
  122OSM    H8G12961   5.927   5.273   7.186 -0.0043 -1.0414  0.3267
  122OSM    C9F12962   5.851   5.098   7.307  0.2352  0.1689 -0.6420
  122OSM    H9F12963   5.948   5.045   7.313 -0.2119 -0.3663  2.1671
  122OSM   C10F12964   5.754   5.049   7.386 -0.3477  0.3831 -0.3939
  122OSM   H10F12965   5.782   4.962   7.447 -0.2964  0.4166 -0.3703
  122OSM   C11F12966   5.616   5.107   7.405 -0.4391 -0.6097 -0.3408
  122OSM   H11F12967   5.537   5.028   7.403 -0.5494 -0.5212  0.3826
  122OSM   H11G12968   5.588   5.175   7.322 -1.2935  0.3767  0.7445
  122OSM   C12F12969   5.606   5.181   7.540  0.1538 -0.5333  0.7240
  122OSM   H12F12970   5.502   5.221   7.541  0.5532  0.5968 -0.8301
  122OSM   H12G12971   5.682   5.262   7.541  0.5434 -0.8940  0.4948
  122OSM   C13F12972   5.625   5.091   7.667 -0.1487  0.2877  0.4754
  122OSM   H13F12973   5.733   5.065   7.657 -0.3470 -0.1759 -0.4970
  122OSM   H13G12974   5.565   5.000   7.646  0.5133 -0.0320 -0.0772
  122OSM   C14F12975   5.579   5.161   7.798  0.1106 -0.8833  0.1671
  122OSM   H14F12976   5.484   5.212   7.773  1.2297  1.1164 -0.1053
  122OSM   H14G12977   5.652   5.238   7.830 -0.7803 -0.0150  0.1372
  122OSM   C15F12978   5.574   5.056   7.918  0.7143  0.4656  0.0045
  122OSM   H15F12979   5.524   5.107   8.003 -1.3345 -1.2383 -0.1418
  122OSM   H15G12980   5.681   5.054   7.946  1.1581  1.2994 -1.5642
  122OSM   C16F12981   5.507   4.924   7.893 -0.4671  0.2056 -0.1850
  122OSM   H16F12982   5.516   4.870   7.990 -0.8312 -2.2614 -1.4886
  122OSM   H16G12983   5.567   4.867   7.819  1.3102  1.5646  0.1568
  122OSM   C17F12984   5.363   4.919   7.849  0.0819  0.8413  0.2784
  122OSM   H17F12985   5.337   5.010   7.790  0.3632 -0.2670 -1.6243
  122OSM   H17G12986   5.296   4.907   7.936 -1.9395  0.1861 -1.3148
  122OSM   C18F12987   5.332   4.796   7.760 -0.4683 -0.0059 -0.1999
  122OSM   H18F12988   5.403   4.778   7.676  0.8972  2.3648  0.4079
  122OSM   H18G12989   5.232   4.799   7.713 -0.6013 -0.5824  0.0452
  122OSM   H18H12990   5.341   4.708   7.828  1.4570  0.2977 -0.0257
  123OSM      N12991   3.028   1.128   6.074  0.3842 -0.2980 -0.1142
  123OSM    C1512992   2.919   1.026   6.108 -0.2093 -0.3543 -0.2002
  123OSM   H15A12993   2.950   0.978   6.200 -1.0851  1.1833  0.9219
  123OSM   H15B12994   2.927   0.949   6.033 -0.6767 -2.3079  1.6877
  123OSM   H15C12995   2.821   1.069   6.116  1.5495  4.0218 -0.9228
  123OSM    C1412996   3.150   1.059   6.024 -0.3022  0.1949  0.2888
  123OSM   H14A12997   3.225   1.129   5.990  1.5549 -1.9087 -0.0514
  123OSM   H14B12998   3.130   0.990   5.944 -0.0463 -2.0671  2.1284
  123OSM   H14C12999   3.193   1.003   6.106 -2.6939 -1.2366  0.5934
  123OSM    C1313000   2.972   1.217   5.966  0.7589 -0.3268  0.5248
  123OSM   H13A13001   2.959   1.150   5.882 -1.1654  2.0111 -1.1177
  123OSM   H13B13002   3.044   1.291   5.935  0.3696 -1.0226 -2.2057
  123OSM   H13C13003   2.878   1.261   5.996  0.3528 -1.0160  0.2607
  123OSM    C1213004   3.062   1.219   6.191  0.1156 -0.6261 -0.1084
  123OSM   H12A13005   2.994   1.298   6.219  0.2369  0.4131 -2.5780
  123OSM   H12B13006   3.145   1.282   6.162 -1.0809  1.2917  0.5655
  123OSM    C1113007   3.101   1.149   6.322  0.7898 -0.3519  0.0237
  123OSM   H11A13008   3.019   1.096   6.377  0.2767  0.9080  0.5063
  123OSM   H11B13009   3.118   1.232   6.395 -2.4741  0.1881  0.2874
  123OSM      P13010   3.359   1.124   6.354  0.2895 -0.1608 -0.1414
  123OSM    O1313011   3.463   1.043   6.288 -0.0096 -0.4906  0.7257
  123OSM    O1413012   3.371   1.268   6.339 -0.0640 -0.0737 -0.1189
  123OSM    O1113013   3.362   1.095   6.508  0.3066  0.0562  0.0482
  123OSM    O1213014   3.217   1.075   6.303  0.0267 -0.1929  0.3820
  123OSM    C1S13015   3.453   1.142   6.596  0.9233  0.0820  0.8062
  123OSM    H1S13016   3.512   1.224   6.548 -0.4309  1.4551  1.4324
  123OSM    H1T13017   3.524   1.062   6.626 -0.8070 -1.6515  0.3834
  123OSM     NF13018   3.482   1.267   6.809 -0.2256  0.0526 -0.2349
  123OSM    HNF13019   3.528   1.216   6.881 -0.5789 -0.8074 -0.6030
  123OSM    C2S13020   3.384   1.194   6.725  0.5028  0.4707  0.4783
  123OSM    H2S13021   3.296   1.260   6.706  0.3093  0.1220  0.1676
  123OSM    C3S13022   3.322   1.076   6.800  1.0058  0.4517  0.5524
  123OSM    H3S13023   3.401   1.007   6.837  0.4207 -1.5235 -1.7361
  123OSM     O313024   3.243   0.988   6.718  0.3084 -0.8854  0.5613
  123OSM    HO313025   3.255   1.023   6.629  0.7689 -0.2861  0.8568
  123OSM    C4S13026   3.243   1.128   6.913  0.8847 -0.4613  0.2693
  123OSM    H4S13027   3.295   1.130   7.010  0.4210 -1.3126  0.5339
  123OSM    C5S13028   3.114   1.172   6.910 -0.1155  0.0676  0.2175
  123OSM    H5S13029   3.062   1.192   6.815  0.2517 -1.6760 -0.3664
  123OSM    C6S13030   3.055   1.223   7.035 -0.0379 -0.0302  1.0725
  123OSM    H6S13031   2.946   1.202   7.029 -0.1312  0.8604 -0.6589
  123OSM    H6T13032   3.073   1.333   7.043 -1.7641  0.4469 -1.0494
  123OSM    C7S13033   3.101   1.178   7.172 -0.3866  0.5067 -0.0214
  123OSM    H7S13034   3.211   1.191   7.188  0.0348 -0.5725 -1.9704
  123OSM    H7T13035   3.077   1.071   7.185 -0.2050  0.2533 -1.6845
  123OSM    C8S13036   3.024   1.255   7.286 -0.1870  0.0306  0.4746
  123OSM    H8S13037   3.029   1.364   7.264 -0.4616  0.0548  0.5255
  123OSM    H8T13038   3.085   1.244   7.378  0.9582 -2.1702 -0.5123
  123OSM    C9S13039   2.880   1.200   7.309  0.5870 -0.1104 -0.1748
  123OSM    H9S13040   2.902   1.100   7.353  2.1702  1.0353  1.6913
  123OSM    H9T13041   2.823   1.198   7.214 -1.2295 -1.1343  0.9021
  123OSM   C10S13042   2.793   1.280   7.406 -1.1132 -0.3625  0.2109
  123OSM   H10S13043   2.696   1.228   7.424 -2.2784  0.7862 -2.4224
  123OSM   H10T13044   2.772   1.377   7.355 -2.5947 -1.2388 -0.9182
  123OSM   C11S13045   2.859   1.317   7.534  1.2828  0.6190 -0.5196
  123OSM   H11S13046   2.955   1.373   7.529  0.7394  1.7952  1.7403
  123OSM   H11T13047   2.887   1.226   7.590  1.4014  1.5095  0.8995
  123OSM   C12S13048   2.765   1.388   7.628  0.3923 -0.5621 -0.7325
  123OSM   H12S13049   2.684   1.316   7.655 -0.0502  0.3737  0.4609
  123OSM   H12T13050   2.710   1.469   7.576  0.9872  0.3210  0.0092
  123OSM   C13S13051   2.823   1.452   7.752 -0.9620  0.1586  0.2577
  123OSM   H13S13052   2.748   1.510   7.811  2.2266 -0.1143  4.8372
  123OSM   H13T13053   2.905   1.521   7.725 -0.5109 -1.0425 -1.4886
  123OSM   C14S13054   2.883   1.347   7.852 -0.3505 -0.1389  0.3403
  123OSM   H14S13055   2.939   1.264   7.805 -0.3311 -2.0049  3.4861
  123OSM   H14T13056   2.803   1.293   7.907  0.9389 -2.5649 -0.1066
  123OSM   C15S13057   2.975   1.415   7.959 -0.2559 -0.3243  0.7489
  123OSM   H15S13058   3.057   1.461   7.900 -1.3577  2.1543  1.1026
  123OSM   H15T13059   3.008   1.336   8.030 -1.0702 -0.6348  0.7862
  123OSM   C16S13060   2.909   1.534   8.029  0.5538 -0.6995 -0.2464
  123OSM   H16S13061   2.833   1.498   8.102  1.7759 -2.1648  0.3421
  123OSM   H16T13062   2.863   1.612   7.966  1.7317 -0.7230 -1.1641
  123OSM   C17S13063   3.017   1.608   8.115 -0.2739  0.1822 -0.8698
  123OSM   H17S13064   2.981   1.711   8.133 -0.5227 -0.2076  0.9234
  123OSM   H17T13065   3.106   1.624   8.051  0.4194 -1.6087 -0.3892
  123OSM   C18S13066   3.075   1.537   8.238  0.2074  0.2988  0.0564
  123OSM   H18S13067   3.118   1.435   8.226  0.5415  0.2579  1.4935
  123OSM   H18T13068   2.993   1.522   8.312 -2.4369  1.1429 -2.6147
  123OSM   H18U13069   3.154   1.605   8.278  0.1279  1.8669 -2.3911
  123OSM    C1F13070   3.518   1.392   6.774  0.0250 -0.2830 -0.5404
  123OSM     OF13071   3.467   1.454   6.681  0.3670  0.6203  0.5094
  123OSM    C2F13072   3.615   1.456   6.874  0.3453  0.6509 -0.1554
  123OSM    H2F13073   3.580   1.428   6.976  0.2709 -0.9406 -0.6177
  123OSM    H2G13074   3.597   1.565   6.861  1.9778  1.0401  0.6625
  123OSM    C3F13075   3.754   1.398   6.865  0.0681 -0.2407  0.1622
  123OSM    H3F13076   3.817   1.426   6.778 -1.3060 -0.1897 -0.8279
  123OSM    H3G13077   3.762   1.287   6.868  2.7517 -0.0758  0.6610
  123OSM    C4F13078   3.827   1.464   6.984 -0.1153 -0.0983 -0.0145
  123OSM    H4F13079   3.790   1.567   7.001 -1.9969 -0.2061 -3.1714
  123OSM    H4G13080   3.938   1.465   6.975 -0.2013 -0.6879 -1.2469
  123OSM    C5F13081   3.793   1.402   7.120  0.1344  0.9802  0.6061
  123OSM    H5F13082   3.824   1.297   7.102 -0.4365  1.5582 -4.5310
  123OSM    H5G13083   3.682   1.391   7.128 -0.1544  3.6556  0.7290
  123OSM    C6F13084   3.848   1.483   7.243 -0.3613 -0.0875 -0.0288
  123OSM    H6F13085   3.959   1.484   7.238 -0.3929  1.6729 -0.6888
  123OSM    H6G13086   3.830   1.434   7.341 -1.5998  0.8304  0.2113
  123OSM    C7F13087   3.796   1.623   7.254 -0.2964  1.1047  0.1527
  123OSM    H7F13088   3.687   1.634   7.236 -0.5656 -0.8870  0.4446
  123OSM    H7G13089   3.847   1.679   7.173  2.1700  0.4857  1.2226
  123OSM    C8F13090   3.828   1.701   7.390 -0.7981 -0.0292  0.5392
  123OSM    H8F13091   3.791   1.804   7.370 -0.5069  0.0479  0.3962
  123OSM    H8G13092   3.935   1.707   7.417 -0.4903  2.2888 -1.0076
  123OSM    C9F13093   3.741   1.634   7.501  0.2404 -0.4594 -0.2806
  123OSM    H9F13094   3.632   1.637   7.488 -0.0594 -1.9830  1.6958
  123OSM   C10F13095   3.782   1.599   7.625  0.7695  0.1536  0.2589
  123OSM   H10F13096   3.710   1.568   7.702 -0.8390 -0.6704 -1.5509
  123OSM   C11F13097   3.924   1.622   7.670 -0.4252  0.6777 -0.2951
  123OSM   H11F13098   3.944   1.731   7.667  1.8426  0.2920  0.0470
  123OSM   H11G13099   4.004   1.568   7.615 -0.0751  0.4430  0.4448
  123OSM   C12F13100   3.949   1.567   7.818 -0.4845  0.4600 -0.0385
  123OSM   H12F13101   4.056   1.585   7.839 -0.2413  0.5414 -1.2898
  123OSM   H12G13102   3.939   1.456   7.808 -0.6514  0.4383  0.3540
  123OSM   C13F13103   3.868   1.636   7.926  0.4710  0.6657  0.3817
  123OSM   H13F13104   3.759   1.620   7.909  1.0352 -5.5159  1.3314
  123OSM   H13G13105   3.879   1.746   7.926  1.2040  0.6162 -1.6574
  123OSM   C14F13106   3.904   1.568   8.060  0.9545 -0.0813 -0.1272
  123OSM   H14F13107   3.891   1.458   8.051 -3.1698  0.3781 -0.7526
  123OSM   H14G13108   3.830   1.613   8.130 -1.0397 -1.1262 -1.5248
  123OSM   C15F13109   4.049   1.592   8.114 -0.2088  0.4328 -0.8110
  123OSM   H15F13110   4.053   1.691   8.164  0.4257 -0.5501  1.1545
  123OSM   H15G13111   4.124   1.586   8.032  0.6498  1.4736 -0.1106
  123OSM   C16F13112   4.093   1.495   8.224 -0.0619  0.1825 -0.1286
  123OSM   H16F13113   4.137   1.403   8.179  0.0330 -0.0481  0.4269
  123OSM   H16G13114   4.003   1.470   8.284  0.4516  4.4612  2.5837
  123OSM   C17F13115   4.218   1.553   8.307  0.1048 -0.0993  0.6486
  123OSM   H17F13116   4.199   1.661   8.324  1.4617  0.5396 -1.5631
  123OSM   H17G13117   4.306   1.557   8.239 -1.2394  0.3368 -1.0928
  123OSM   C18F13118   4.243   1.474   8.430  0.2656 -0.5601  0.3744
  123OSM   H18F13119   4.314   1.527   8.497 -0.6106 -1.5263  2.0787
  123OSM   H18G13120   4.279   1.371   8.410 -0.3686 -0.4893 -1.2637
  123OSM   H18H13121   4.145   1.468   8.481 -0.2928 -0.8628 -0.7088
  124OSM      N13122   3.161   4.512   6.370  0.1904  0.2612 -0.1763
  124OSM    C1513123   3.064   4.433   6.289  0.0323 -0.0290  1.0039
  124OSM   H15A13124   3.113   4.343   6.255 -0.2010 -0.6956  2.3917
  124OSM   H15B13125   3.029   4.496   6.208  2.0977  0.7123  0.6690
  124OSM   H15C13126   2.970   4.406   6.336 -1.1646  1.2440 -0.6131
  124OSM    C1413127   3.090   4.631   6.427  0.2084 -0.1705 -0.1758
  124OSM   H14A13128   3.018   4.604   6.502  0.5101  0.4720  0.3567
  124OSM   H14B13129   3.040   4.690   6.352  1.1007 -0.4602 -1.0101
  124OSM   H14C13130   3.152   4.703   6.479 -1.0099 -0.0543  1.1396
  124OSM    C1313131   3.201   4.435   6.488 -0.2926 -0.2053  0.2339
  124OSM   H13A13132   3.121   4.382   6.536 -1.1866  0.8283 -0.0968
  124OSM   H13B13133   3.244   4.496   6.567 -1.6527 -2.4535  2.7688
  124OSM   H13C13134   3.274   4.361   6.457 -1.1185 -0.2774 -1.5922
  124OSM    C1213135   3.269   4.563   6.294 -0.2980  0.3581  0.0425
  124OSM   H12A13136   3.229   4.624   6.213 -0.8538 -3.0755 -2.3701
  124OSM   H12B13137   3.329   4.493   6.238 -1.4177  0.5701 -1.4774
  124OSM    C1113138   3.381   4.645   6.371  0.1079  0.2100 -0.6358
  124OSM   H11A13139   3.411   4.604   6.470  0.2220  1.8508  0.0288
  124OSM   H11B13140   3.342   4.742   6.409  1.8286  0.4282  0.6580
  124OSM      P13141   3.599   4.556   6.242  0.0525 -0.2346 -0.4918
  124OSM    O1313142   3.516   4.452   6.181 -0.4432 -0.1476  0.8850
  124OSM    O1413143   3.709   4.618   6.166 -0.0650  0.2383  0.3557
  124OSM    O1113144   3.659   4.504   6.378  0.3894  0.1752  0.5032
  124OSM    O1213145   3.500   4.673   6.298 -0.2291 -0.5994  0.5844
  124OSM    C1S13146   3.705   4.589   6.475  0.3784 -0.3292  0.0938
  124OSM    H1S13147   3.621   4.651   6.512 -1.7571 -0.9212 -3.5406
  124OSM    H1T13148   3.785   4.657   6.438  1.3772 -2.3115 -1.5160
  124OSM     NF13149   3.811   4.594   6.699 -0.1850 -0.4278  0.5081
  124OSM    HNF13150   3.908   4.615   6.690 -0.5189  1.3904  1.0106
  124OSM    C2S13151   3.776   4.507   6.591 -0.2281  0.6088  0.1756
  124OSM    H2S13152   3.700   4.443   6.640  0.2520  1.0246  1.4736
  124OSM    C3S13153   3.889   4.413   6.543 -0.0628  0.5279 -0.0113
  124OSM    H3S13154   3.979   4.460   6.497 -0.0769  1.8849  1.3305
  124OSM     O313155   3.844   4.318   6.444 -0.3869 -0.5843 -0.6089
  124OSM    HO313156   3.782   4.374   6.396  0.2267  1.0810  0.4768
  124OSM    C4S13157   3.938   4.326   6.656 -0.2219 -0.0935  0.3909
  124OSM    H4S13158   3.879   4.234   6.669 -3.8030  2.2894  1.7184
  124OSM    C5S13159   4.049   4.347   6.732 -0.1004  0.2132 -0.0672
  124OSM    H5S13160   4.119   4.426   6.702 -0.2463  0.6030  0.6174
  124OSM    C6S13161   4.113   4.267   6.840 -0.0619 -0.4097 -0.0947
  124OSM    H6S13162   4.216   4.304   6.855 -0.0729  0.6921 -2.5022
  124OSM    H6T13163   4.133   4.161   6.814 -0.6448 -1.5546  3.7678
  124OSM    C7S13164   4.039   4.279   6.970  0.4866  0.0773 -0.7580
  124OSM    H7S13165   3.939   4.229   6.967  1.3474 -2.1371  3.4546
  124OSM    H7T13166   4.015   4.387   6.977  1.5343  0.3316 -0.9726
  124OSM    C8S13167   4.117   4.236   7.093  0.6088 -0.0423 -0.6093
  124OSM    H8S13168   4.220   4.279   7.095  0.8452 -0.6128 -0.3829
  124OSM    H8T13169   4.145   4.130   7.075 -0.3210 -0.2271 -0.9443
  124OSM    C9S13170   4.054   4.254   7.235  0.0850 -0.4626  0.6087
  124OSM    H9S13171   3.961   4.193   7.233 -1.2262  1.5106 -0.6868
  124OSM    H9T13172   4.016   4.359   7.241  1.5080  0.0940 -0.0263
  124OSM   C10S13173   4.152   4.226   7.349 -0.2703 -0.6729  0.1931
  124OSM   H10S13174   4.261   4.244   7.336 -0.3947  1.7258  2.1099
  124OSM   H10T13175   4.149   4.118   7.376 -1.4170 -0.1560  2.2840
  124OSM   C11S13176   4.126   4.298   7.478 -0.6401  0.0785  0.0637
  124OSM   H11S13177   4.034   4.261   7.528  1.4352 -1.9480  2.5290
  124OSM   H11T13178   4.122   4.406   7.454  0.5294  0.2932  0.7928
  124OSM   C12S13179   4.239   4.269   7.584 -0.1367 -0.0606  0.2497
  124OSM   H12S13180   4.315   4.349   7.579 -0.5439  0.2175 -2.7423
  124OSM   H12T13181   4.291   4.174   7.561 -0.1542 -0.7717  3.0404
  124OSM   C13S13182   4.194   4.258   7.732 -0.6535 -0.2923 -0.2878
  124OSM   H13S13183   4.119   4.336   7.758  0.1761  0.3683  0.1663
  124OSM   H13T13184   4.275   4.288   7.803 -0.7233  0.2089 -0.4142
  124OSM   C14S13185   4.134   4.119   7.780  0.3781  0.7000  0.6100
  124OSM   H14S13186   4.212   4.051   7.738 -1.4047 -0.8954 -0.1689
  124OSM   H14T13187   4.036   4.092   7.736  1.0017 -2.6051  1.0913
  124OSM   C15S13188   4.144   4.103   7.939  0.3412 -0.0146 -0.4869
  124OSM   H15S13189   4.249   4.082   7.968  0.1372  0.5466  0.7190
  124OSM   H15T13190   4.086   4.010   7.960 -0.3269  0.2831 -0.9907
  124OSM   C16S13191   4.087   4.218   8.018 -0.0246  0.5354 -0.3157
  124OSM   H16S13192   3.977   4.207   8.020 -0.0044 -0.1088 -1.7609
  124OSM   H16T13193   4.115   4.319   7.980 -1.3586  0.8241 -0.5608
  124OSM   C17S13194   4.143   4.217   8.164 -0.3935 -0.3531  0.2248
  124OSM   H17S13195   4.171   4.113   8.191 -1.7328 -0.3519  1.7600
  124OSM   H17T13196   4.060   4.256   8.227  0.2975  1.7750 -0.1358
  124OSM   C18S13197   4.270   4.308   8.193  0.6295 -0.1054  0.0981
  124OSM   H18S13198   4.333   4.249   8.263  2.1765  0.9256 -0.4115
  124OSM   H18T13199   4.237   4.404   8.237  1.6021 -0.0260  0.6792
  124OSM   H18U13200   4.327   4.337   8.102  0.4754 -1.1925 -0.3542
  124OSM    C1F13201   3.724   4.664   6.776 -0.5886 -0.9529  0.5950
  124OSM     OF13202   3.606   4.650   6.756 -0.0507 -0.6593  0.7964
  124OSM    C2F13203   3.781   4.740   6.898 -0.0717 -0.2624 -0.9801
  124OSM    H2F13204   3.719   4.726   6.989  0.0558 -1.1369 -1.0230
  124OSM    H2G13205   3.788   4.846   6.868  2.9822  0.1349  0.9123
  124OSM    C3F13206   3.921   4.691   6.935 -0.2649  0.0171 -0.1688
  124OSM    H3F13207   3.996   4.700   6.854 -0.1636 -0.4440 -0.1267
  124OSM    H3G13208   3.912   4.582   6.951  0.2722  0.2359  1.7414
  124OSM    C4F13209   3.960   4.745   7.073 -0.8658 -0.0640 -0.2612
  124OSM    H4F13210   3.945   4.854   7.079 -0.5963 -0.0019 -0.6284
  124OSM    H4G13211   4.071   4.736   7.079 -1.1300 -2.5831  1.6793
  124OSM    C5F13212   3.887   4.681   7.190 -0.6372  0.0670 -0.1226
  124OSM    H5F13213   3.884   4.571   7.175 -3.6197  0.1213 -0.2959
  124OSM    H5G13214   3.777   4.694   7.199 -1.1352 -4.9121  2.5026
  124OSM    C6F13215   3.965   4.701   7.323 -0.0548 -0.1691 -0.1878
  124OSM    H6F13216   3.986   4.809   7.340 -0.4372 -0.3779  1.7136
  124OSM    H6G13217   4.063   4.652   7.307 -0.0176 -0.3513  0.6161
  124OSM    C7F13218   3.891   4.660   7.449  0.3208  0.2187 -0.6782
  124OSM    H7F13219   3.840   4.562   7.435  0.0604  0.4050 -1.0449
  124OSM    H7G13220   3.809   4.729   7.476 -0.5119 -1.5054  1.4009
  124OSM    C8F13221   3.978   4.654   7.581 -1.0557 -0.0039 -0.1740
  124OSM    H8F13222   4.070   4.601   7.548 -0.1457  0.2141  1.9585
  124OSM    H8G13223   3.926   4.580   7.646  0.7252 -0.2562  0.9971
  124OSM    C9F13224   4.028   4.778   7.645 -0.2225 -0.0119  0.3250
  124OSM    H9F13225   4.034   4.865   7.577 -1.0951  0.3454  0.7005
  124OSM   C10F13226   4.052   4.791   7.776 -0.0547 -0.1401 -0.1959
  124OSM   H10F13227   4.083   4.887   7.820 -0.8380 -0.2173  0.5595
  124OSM   C11F13228   4.040   4.679   7.872 -0.2308  0.4916 -0.1205
  124OSM   H11F13229   4.101   4.591   7.843  1.9725  1.8925  0.1597
  124OSM   H11G13230   3.933   4.647   7.868 -0.4482  0.4090  3.8583
  124OSM   C12F13231   4.071   4.722   8.011 -0.0645 -0.3450 -0.1568
  124OSM   H12F13232   4.018   4.818   8.031 -0.2448 -0.1951 -1.2975
  124OSM   H12G13233   4.176   4.752   8.028  0.8261 -2.1369 -2.3046
  124OSM   C13F13234   4.048   4.621   8.120 -0.6728 -0.2199  0.5855
  124OSM   H13F13235   4.120   4.540   8.096  0.8411  0.2531  3.3566
  124OSM   H13G13236   3.945   4.579   8.110  0.2545 -2.2830 -0.6389
  124OSM   C14F13237   4.073   4.664   8.263 -0.1733  0.2053 -0.5311
  124OSM   H14F13238   4.005   4.750   8.285 -1.9189 -1.1125 -0.5966
  124OSM   H14G13239   4.177   4.697   8.280  0.3418 -1.4445 -0.3846
  124OSM   C15F13240   4.030   4.554   8.361  1.2704  0.8250  0.4481
  124OSM   H15F13241   4.102   4.470   8.353  0.0927 -0.1231 -0.3593
  124OSM   H15G13242   3.933   4.509   8.331  2.0887 -0.6864  0.0220
  124OSM   C16F13243   4.017   4.591   8.513  0.5791 -0.0187  0.0727
  124OSM   H16F13244   3.966   4.507   8.565  1.7609  1.2637  3.4112
  124OSM   H16G13245   3.956   4.681   8.535 -0.2835 -1.5024  4.1187
  124OSM   C17F13246   4.156   4.594   8.577 -0.3861  0.2576  0.1765
  124OSM   H17F13247   4.216   4.673   8.526  0.7665  0.0361  1.1670
  124OSM   H17G13248   4.212   4.499   8.566 -1.3507 -0.1239 -1.4863
  124OSM   C18F13249   4.161   4.629   8.725  0.0012  0.8354 -0.2145
  124OSM   H18F13250   4.264   4.615   8.765 -0.5447 -3.1248  0.0613
  124OSM   H18G13251   4.106   4.550   8.781 -0.2924  1.7503  0.7811
  124OSM   H18H13252   4.115   4.729   8.738  1.1613  1.2237  1.0456
  125OSM      N13253   0.152   3.496   5.900 -0.4834 -0.0723 -0.2399
  125OSM    C1513254   0.081   3.423   5.789 -0.1465  0.2934  0.9482
  125OSM   H15A13255  -0.022   3.411   5.818 -0.1028 -1.2184  0.4933
  125OSM   H15B13256   0.109   3.321   5.771 -1.0966  0.2129 -0.0516
  125OSM   H15C13257   0.081   3.490   5.704  1.7955  0.1358  0.8104
  125OSM    C1413258   0.305   3.510   5.868 -0.3226 -0.6939 -0.1434
  125OSM   H14A13259   0.349   3.565   5.950  1.0411 -2.2678  0.2031
  125OSM   H14B13260   0.316   3.560   5.773 -0.5893  0.4155  0.4062
  125OSM   H14C13261   0.345   3.409   5.874  0.2975 -0.4341  0.2107
  125OSM    C1313262   0.098   3.632   5.909  0.5904 -0.1274  0.8827
  125OSM   H13A13263   0.150   3.681   5.990  0.1154  1.9715 -0.0504
  125OSM   H13B13264  -0.007   3.636   5.936 -0.4398  0.0016 -2.8283
  125OSM   H13C13265   0.090   3.681   5.813  0.7768 -1.7394  0.0259
  125OSM    C1213266   0.132   3.423   6.029  0.0419  0.5246 -0.4672
  125OSM   H12A13267   0.159   3.319   6.018 -2.4009 -0.2390  0.4055
  125OSM   H12B13268   0.030   3.423   6.066  0.6032 -1.4398  1.1645
  125OSM    C1113269   0.216   3.478   6.151  0.9859  0.7722 -0.4176
  125OSM   H11A13270   0.162   3.451   6.244  1.3292  1.3466 -0.0479
  125OSM   H11B13271   0.214   3.589   6.148  1.8211  0.8409  1.4148
  125OSM      P13272   0.368   3.264   6.164 -0.3993 -0.1223 -0.0100
  125OSM    O1313273   0.340   3.186   6.040  0.2385 -0.0469  0.4276
  125OSM    O1413274   0.506   3.254   6.218  0.7511  0.1076  0.4150
  125OSM    O1113275   0.254   3.232   6.268  0.0697 -0.8366  0.1663
  125OSM    O1213276   0.347   3.420   6.140  0.0854  0.2679 -0.5846
  125OSM    C1S13277   0.251   3.113   6.353 -0.2071 -0.1521  0.0210
  125OSM    H1S13278   0.304   3.025   6.312 -1.3576 -0.2240 -1.3824
  125OSM    H1T13279   0.145   3.080   6.347 -0.0657 -0.5525 -0.2864
  125OSM     NF13280   0.315   3.006   6.573 -0.2722  0.0137 -0.9127
  125OSM    HNF13281   0.254   2.977   6.646  0.8019  0.6137  0.2365
  125OSM    C2S13282   0.304   3.136   6.508  0.5364  0.3158 -0.2223
  125OSM    H2S13283   0.403   3.186   6.499  0.8741 -0.6087 -1.8024
  125OSM    C3S13284   0.202   3.235   6.580 -0.0195 -0.3908 -0.0302
  125OSM    H3S13285   0.114   3.175   6.611 -0.0270 -1.5351 -2.1987
  125OSM     O313286   0.153   3.342   6.504  0.2505  0.2391  0.5386
  125OSM    HO313287   0.200   3.327   6.421 -0.0175 -2.5078  0.8421
  125OSM    C4S13288   0.275   3.290   6.704  0.0742  0.1507 -0.6042
  125OSM    H4S13289   0.379   3.320   6.686  0.6341 -0.4194  1.4843
  125OSM    C5S13290   0.215   3.303   6.831 -0.5482  0.6250  0.2829
  125OSM    H5S13291   0.106   3.305   6.843 -0.6401  0.8963 -0.5671
  125OSM    C6S13292   0.287   3.358   6.948  0.8858 -0.4234 -0.6091
  125OSM    H6S13293   0.299   3.468   6.949  1.2278 -0.4638  0.3020
  125OSM    H6T13294   0.396   3.343   6.940  0.7963 -1.8199  0.5338
  125OSM    C7S13295   0.241   3.307   7.084  0.0207 -0.3876  0.5532
  125OSM    H7S13296   0.243   3.197   7.071 -1.5356 -0.0346 -3.1191
  125OSM    H7T13297   0.137   3.337   7.106  0.8660  1.3672  2.3245
  125OSM    C8S13298   0.322   3.342   7.211 -0.2385  0.3922 -0.0780
  125OSM    H8S13299   0.316   3.453   7.220 -0.6941  0.4807 -1.3229
  125OSM    H8T13300   0.432   3.324   7.204 -0.0378  1.7453 -0.7033
  125OSM    C9S13301   0.275   3.275   7.340 -0.8011 -0.2531  0.7418
  125OSM    H9S13302   0.281   3.164   7.342  0.9203 -0.2363 -1.5556
  125OSM    H9T13303   0.174   3.312   7.367 -0.5474 -0.1108  1.5112
  125OSM   C10S13304   0.358   3.329   7.459 -0.1745  0.4707  0.0517
  125OSM   H10S13305   0.339   3.438   7.475  0.9643  0.5314  1.0292
  125OSM   H10T13306   0.465   3.322   7.433 -0.1804  0.3080  0.0728
  125OSM   C11S13307   0.344   3.265   7.599 -0.5710 -0.4402 -0.4647
  125OSM   H11S13308   0.429   3.301   7.660 -0.5000 -2.0567  0.4203
  125OSM   H11T13309   0.357   3.156   7.583 -1.9912 -1.0511  2.1909
  125OSM   C12S13310   0.211   3.296   7.663  0.5130 -0.0147 -0.6351
  125OSM   H12S13311   0.191   3.218   7.740 -1.7621 -1.8594 -3.0012
  125OSM   H12T13312   0.123   3.284   7.596  1.1483 -0.6771 -1.3421
  125OSM   C13S13313   0.214   3.437   7.728  0.8364 -0.4662 -0.2258
  125OSM   H13S13314   0.226   3.515   7.650  0.3300 -1.5201 -1.3764
  125OSM   H13T13315   0.296   3.432   7.802  0.4452 -3.4305  0.0614
  125OSM   C14S13316   0.087   3.460   7.817  0.1564 -0.2663 -0.2120
  125OSM   H14S13317   0.077   3.377   7.891  0.2651 -1.6563 -1.7165
  125OSM   H14T13318   0.005   3.454   7.743 -0.4845  1.4936  0.3412
  125OSM   C15S13319   0.103   3.590   7.897 -0.3402 -0.1878 -0.0229
  125OSM   H15S13320   0.002   3.621   7.931 -1.1784 -3.2480  0.5014
  125OSM   H15T13321   0.136   3.675   7.834 -0.5047  2.2677  3.0662
  125OSM   C16S13322   0.201   3.595   8.018 -0.0354 -0.1325 -0.6850
  125OSM   H16S13323   0.302   3.577   7.975 -0.1044  0.0748 -0.9293
  125OSM   H16T13324   0.172   3.519   8.094  2.4096 -0.3970  0.0200
  125OSM   C17S13325   0.204   3.737   8.083 -0.2544  0.2209  0.0829
  125OSM   H17S13326   0.111   3.753   8.142 -1.0295  0.3345 -1.1470
  125OSM   H17T13327   0.188   3.813   8.004  0.8567 -1.0804 -1.4162
  125OSM   C18S13328   0.325   3.765   8.178 -0.0542 -0.4185  0.5751
  125OSM   H18S13329   0.414   3.754   8.113 -1.9540 -0.3841 -2.1064
  125OSM   H18T13330   0.328   3.693   8.263  0.6547  0.6770  1.4929
  125OSM   H18U13331   0.339   3.869   8.212  2.9327  0.1967 -2.3521
  125OSM    C1F13332   0.400   2.915   6.529  0.1488  0.2644  0.3642
  125OSM     OF13333   0.494   2.928   6.451  0.1916  0.4604  0.5949
  125OSM    C2F13334   0.364   2.779   6.575 -0.9615 -0.5119  0.9322
  125OSM    H2F13335   0.317   2.735   6.485  0.0728  1.2337 -0.5210
  125OSM    H2G13336   0.290   2.773   6.656  1.3535 -0.5217  3.1036
  125OSM    C3F13337   0.484   2.689   6.600  0.2627  0.2842  0.3112
  125OSM    H3F13338   0.560   2.740   6.662 -1.3415  4.1281 -0.7827
  125OSM    H3G13339   0.528   2.663   6.501  2.3119 -0.5040  1.3986
  125OSM    C4F13340   0.448   2.560   6.674  0.0895 -0.0172 -0.4123
  125OSM    H4F13341   0.537   2.495   6.660 -1.1924 -1.2750 -3.1383
  125OSM    H4G13342   0.353   2.522   6.631 -0.0585 -0.4176  0.2528
  125OSM    C5F13343   0.430   2.580   6.819 -0.1451 -0.3173 -0.2848
  125OSM    H5F13344   0.344   2.650   6.828 -0.0359 -0.3168  0.8700
  125OSM    H5G13345   0.519   2.631   6.861 -1.4146  2.2928 -0.6495
  125OSM    C6F13346   0.400   2.446   6.893  0.7372 -0.6780  0.5628
  125OSM    H6F13347   0.467   2.364   6.861 -1.0473 -1.0072 -2.6241
  125OSM    H6G13348   0.297   2.410   6.872  1.0193 -0.8698 -0.5704
  125OSM    C7F13349   0.416   2.460   7.049 -0.5999  0.4148 -0.4169
  125OSM    H7F13350   0.330   2.520   7.086  1.0491  2.6259 -0.0455
  125OSM    H7G13351   0.512   2.512   7.070 -1.0327  0.7541  0.7573
  125OSM    C8F13352   0.419   2.325   7.118  0.1128 -0.2959 -0.3419
  125OSM    H8F13353   0.526   2.294   7.126 -0.5622 -2.1258  2.4438
  125OSM    H8G13354   0.370   2.247   7.057 -0.5013  1.1525 -1.7333
  125OSM    C9F13355   0.353   2.329   7.252  0.5087 -0.3225  0.4992
  125OSM    H9F13356   0.253   2.374   7.259  0.2377 -1.1691  2.2736
  125OSM   C10F13357   0.412   2.294   7.371  0.3557 -0.3554  0.2539
  125OSM   H10F13358   0.343   2.290   7.457  1.3105 -0.0605  1.0419
  125OSM   C11F13359   0.552   2.257   7.405 -0.7427 -0.6099  0.5854
  125OSM   H11F13360   0.575   2.303   7.504 -1.7401  1.2286 -0.0176
  125OSM   H11G13361   0.605   2.309   7.322 -1.1994  0.3406  0.8915
  125OSM   C12F13362   0.590   2.112   7.401 -0.1442  0.4707 -0.9490
  125OSM   H12F13363   0.700   2.098   7.395 -0.1140  0.7965 -1.1154
  125OSM   H12G13364   0.551   2.074   7.304 -1.8405 -0.0972 -0.0718
  125OSM   C13F13365   0.526   2.029   7.508  1.0074  0.1777  0.2538
  125OSM   H13F13366   0.516   1.924   7.473 -0.5119 -0.6122  2.9456
  125OSM   H13G13367   0.418   2.056   7.514  0.4814 -1.5533 -0.9718
  125OSM   C14F13368   0.602   2.033   7.643  0.3643  0.5591  0.1428
  125OSM   H14F13369   0.665   2.124   7.648  3.7367 -1.6674 -0.0178
  125OSM   H14G13370   0.668   1.944   7.637 -0.9476 -0.5801  1.8894
  125OSM   C15F13371   0.508   2.026   7.759 -0.3536  0.3636 -0.1805
  125OSM   H15F13372   0.420   2.094   7.756  1.3583  2.6487 -0.0325
  125OSM   H15G13373   0.564   2.071   7.844 -1.2961  2.9072 -0.8687
  125OSM   C16F13374   0.484   1.885   7.789 -0.0132 -0.3038  0.1909
  125OSM   H16F13375   0.581   1.833   7.801 -0.0006  0.0588  1.7099
  125OSM   H16G13376   0.425   1.831   7.712  1.3554  0.7623 -1.6650
  125OSM   C17F13377   0.418   1.877   7.929  0.1537 -0.3801  0.3171
  125OSM   H17F13378   0.356   1.785   7.923  0.5067 -0.6324  0.5078
  125OSM   H17G13379   0.343   1.959   7.937  0.0129 -0.6520  1.9867
  125OSM   C18F13380   0.517   1.863   8.047 -0.5026  0.3231  0.9927
  125OSM   H18F13381   0.612   1.919   8.049 -0.2259 -0.0163 -1.6437
  125OSM   H18G13382   0.553   1.758   8.061  0.8303  0.7808  1.0385
  125OSM   H18H13383   0.458   1.882   8.140 -0.7711  0.1438  0.8604
  126OSM      N13384   4.182   0.190   6.647  0.0356 -0.1735  0.4192
  126OSM    C1513385   4.113   0.287   6.737  0.0503  1.0697  1.2397
  126OSM   H15A13386   4.033   0.243   6.794 -0.7439 -0.7929 -1.2550
  126OSM   H15B13387   4.083   0.379   6.689 -1.2768  1.9546  3.6539
  126OSM   H15C13388   4.183   0.329   6.808  0.1124  0.8253  1.3207
  126OSM    C1413389   4.237   0.076   6.731  0.0212  0.0496  0.5298
  126OSM   H14A13390   4.323   0.101   6.791  0.5968  1.7686 -0.9923
  126OSM   H14B13391   4.263  -0.004   6.664 -1.5315  0.4402 -0.5674
  126OSM   H14C13392   4.171   0.034   6.806 -0.7024 -1.7550 -1.0780
  126OSM    C1313393   4.077   0.113   6.563 -0.6837 -0.9791  0.3551
  126OSM   H13A13394   3.983   0.099   6.614 -2.2369  2.0307 -1.4798
  126OSM   H13B13395   4.112   0.016   6.531  0.9748 -0.9377  1.9356
  126OSM   H13C13396   4.046   0.165   6.473 -0.7330  0.6197  1.2686
  126OSM    C1213397   4.303   0.261   6.577  1.1719  0.4819  0.1633
  126OSM   H12A13398   4.354   0.182   6.523  1.2681 -1.0052  2.3246
  126OSM   H12B13399   4.381   0.288   6.646  0.1751  1.7409  0.8079
  126OSM    C1113400   4.266   0.389   6.489  0.2924  0.0234 -0.0461
  126OSM   H11A13401   4.176   0.365   6.429  0.6420 -2.2807  0.2952
  126OSM   H11B13402   4.353   0.410   6.423 -0.0535 -0.4310 -0.6514
  126OSM      P13403   4.347   0.568   6.656  0.3177 -0.1179 -0.0051
  126OSM    O1313404   4.379   0.488   6.780  0.3321 -0.1573  0.5042
  126OSM    O1413405   4.458   0.594   6.565  0.3309  0.2247 -0.6379
  126OSM    O1113406   4.274   0.698   6.691 -0.6826  0.4360 -0.2227
  126OSM    O1213407   4.231   0.494   6.581  0.0654 -0.1965 -0.6834
  126OSM    C1S13408   4.141   0.696   6.747 -0.2251  0.3314  0.3410
  126OSM    H1S13409   4.090   0.598   6.743 -1.6565  1.1136 -1.8939
  126OSM    H1T13410   4.074   0.756   6.682  0.4802 -0.0805 -0.7947
  126OSM     NF13411   4.008   0.710   6.958 -0.2119  0.2058  0.9745
  126OSM    HNF13412   3.938   0.781   6.962 -0.7167 -0.3383  1.8586
  126OSM    C2S13413   4.135   0.744   6.888  0.3436  0.3592  0.4168
  126OSM    H2S13414   4.223   0.697   6.938  1.5055  2.7204  0.6505
  126OSM    C3S13415   4.170   0.895   6.891 -0.2972 -0.3263 -0.3403
  126OSM    H3S13416   4.114   0.960   6.820  2.1679 -0.2155 -2.2687
  126OSM     O313417   4.302   0.921   6.846 -0.0206 -0.2884 -0.7730
  126OSM    HO313418   4.319   0.859   6.775 -0.9486 -0.3839 -0.9183
  126OSM    C4S13419   4.166   0.954   7.025  0.4284  0.4762 -0.3148
  126OSM    H4S13420   4.251   0.928   7.090 -1.0075  0.6635  1.6923
  126OSM    C5S13421   4.060   1.028   7.074  0.0038  0.4881 -0.3987
  126OSM    H5S13422   3.982   1.065   7.006 -0.3061 -0.5522 -0.6179
  126OSM    C6S13423   4.048   1.080   7.218  0.0701  0.8644 -0.2279
  126OSM    H6S13424   3.940   1.072   7.246  0.5318 -0.0821  1.3418
  126OSM    H6T13425   4.052   1.191   7.211 -2.0275  1.0811  1.3169
  126OSM    C7S13426   4.140   1.042   7.326 -0.0902 -0.4918  1.2087
  126OSM    H7S13427   4.105   1.095   7.417  0.8283  1.1822  0.6047
  126OSM    H7T13428   4.244   1.065   7.293 -1.1267  0.4963 -1.4707
  126OSM    C8S13429   4.143   0.897   7.373 -0.1580  0.1085  0.2754
  126OSM    H8S13430   4.223   0.890   7.449  0.6753 -2.4082 -0.7575
  126OSM    H8T13431   4.181   0.826   7.296  1.6857  0.1435  1.1430
  126OSM    C9S13432   4.009   0.830   7.414 -0.0190  0.6015  0.3462
  126OSM    H9S13433   4.028   0.721   7.422 -1.7313  0.1785 -1.1357
  126OSM    H9T13434   3.934   0.857   7.337  0.5324  2.2964  0.3732
  126OSM   C10S13435   3.944   0.872   7.552  0.1454 -0.6224 -0.2332
  126OSM   H10S13436   3.840   0.834   7.562 -0.1485 -0.2072 -1.6291
  126OSM   H10T13437   3.945   0.983   7.560 -1.2035 -0.7416  1.9365
  126OSM   C11S13438   4.027   0.810   7.664 -0.1446  0.0640 -0.1553
  126OSM   H11S13439   4.135   0.820   7.639  0.2081 -0.9951  0.8834
  126OSM   H11T13440   4.009   0.701   7.675  2.2911 -0.2534  1.1068
  126OSM   C12S13441   4.002   0.867   7.799 -0.3160 -0.2985 -0.4228
  126OSM   H12S13442   4.033   0.799   7.881  0.3479 -1.5412 -1.6971
  126OSM   H12T13443   3.892   0.873   7.816 -0.1126 -2.4124  1.9692
  126OSM   C13S13444   4.068   1.004   7.816 -0.1690 -0.7323 -0.2625
  126OSM   H13S13445   4.044   1.063   7.725 -2.9940  0.2431  1.0437
  126OSM   H13T13446   4.178   1.011   7.831 -0.1033 -0.9602 -0.6315
  126OSM   C14S13447   3.992   1.087   7.925  0.6033  0.4175  0.0935
  126OSM   H14S13448   3.893   1.091   7.876  0.3955 -0.9484  0.3713
  126OSM   H14T13449   4.039   1.188   7.919 -0.3004  0.7086 -3.7108
  126OSM   C15S13450   3.979   1.026   8.063  0.5227 -0.2473 -0.0944
  126OSM   H15S13451   3.946   0.920   8.067  1.1007 -0.4318 -0.2659
  126OSM   H15T13452   3.902   1.085   8.117  0.9897  0.2663  0.0091
  126OSM   C16S13453   4.108   1.044   8.146  0.1616 -0.3172  0.1802
  126OSM   H16S13454   4.113   1.155   8.157  0.9206 -0.2622 -0.6864
  126OSM   H16T13455   4.200   1.021   8.088 -0.9474 -0.3468 -1.5879
  126OSM   C17S13456   4.114   0.988   8.283 -0.2373 -0.2572  0.2228
  126OSM   H17S13457   4.146   0.881   8.284  0.5230 -0.0357  0.1582
  126OSM   H17T13458   4.009   0.984   8.319 -1.0367  0.8181 -1.8966
  126OSM   C18S13459   4.226   1.049   8.372  0.1402 -0.3692 -1.2517
  126OSM   H18S13460   4.210   1.154   8.404 -0.3233 -0.7973 -0.0329
  126OSM   H18T13461   4.311   1.055   8.300  1.3180 -3.3029 -0.1988
  126OSM   H18U13462   4.247   0.991   8.464 -0.2820  1.1218 -0.2007
  126OSM    C1F13463   3.973   0.580   6.983  0.1924 -0.1491 -0.2588
  126OSM     OF13464   4.053   0.487   6.965 -0.1305 -0.2825 -0.1155
  126OSM    C2F13465   3.825   0.540   7.009 -0.1374 -0.0297 -0.2031
  126OSM    H2F13466   3.792   0.481   6.921  1.4074 -0.6708 -0.3737
  126OSM    H2G13467   3.767   0.635   7.003  1.3429  0.9163  0.3515
  126OSM    C3F13468   3.799   0.460   7.137  0.4402 -0.4553  0.3605
  126OSM    H3F13469   3.876   0.381   7.149  1.5938  0.6523  0.4572
  126OSM    H3G13470   3.695   0.424   7.123  0.9367 -1.9424  0.4927
  126OSM    C4F13471   3.807   0.545   7.268 -0.3351 -0.5178 -0.0611
  126OSM    H4F13472   3.741   0.633   7.252 -0.2773 -0.3728  0.5046
  126OSM    H4G13473   3.908   0.581   7.295 -0.8428  2.4776 -1.9373
  126OSM    C5F13474   3.756   0.470   7.390  0.2778 -0.2457 -0.0265
  126OSM    H5F13475   3.792   0.365   7.382 -1.1179 -0.8089  0.8345
  126OSM    H5G13476   3.646   0.460   7.402 -0.2262  2.6462 -1.8255
  126OSM    C6F13477   3.811   0.525   7.524  0.2212 -0.6806 -0.7263
  126OSM    H6F13478   3.770   0.628   7.533 -1.3567 -1.5196  2.7612
  126OSM    H6G13479   3.922   0.524   7.521  0.2081 -3.3223 -1.7348
  126OSM    C7F13480   3.766   0.439   7.643  0.3035 -0.7911 -0.5810
  126OSM    H7F13481   3.812   0.340   7.625  2.2324  0.5120 -3.0948
  126OSM    H7G13482   3.656   0.424   7.649  0.3841 -0.7910  0.9934
  126OSM    C8F13483   3.804   0.492   7.778  0.4165  0.1475 -0.1740
  126OSM    H8F13484   3.905   0.536   7.763  0.3629  0.7986  1.2932
  126OSM    H8G13485   3.802   0.413   7.856 -1.0174 -1.5658 -1.9019
  126OSM    C9F13486   3.716   0.600   7.840 -0.5622  0.0582  0.2880
  126OSM    H9F13487   3.707   0.693   7.783  0.0054 -0.0921 -0.0496
  126OSM   C10F13488   3.651   0.603   7.963 -0.4892  0.6481 -0.0276
  126OSM   H10F13489   3.586   0.689   7.987 -0.7240  0.5410 -0.2743
  126OSM   C11F13490   3.659   0.492   8.066 -0.4289  0.5304 -0.0086
  126OSM   H11F13491   3.684   0.390   8.031  1.7721  1.0132  0.0845
  126OSM   H11G13492   3.554   0.472   8.096 -0.5238 -0.2373 -0.8237
  126OSM   C12F13493   3.743   0.519   8.189 -0.8990  0.0624  0.0579
  126OSM   H12F13494   3.724   0.608   8.253  0.5542  0.3386  0.1187
  126OSM   H12G13495   3.845   0.534   8.149 -1.3232 -0.2785 -1.1483
  126OSM   C13F13496   3.768   0.390   8.281 -0.3702 -0.1426 -0.5542
  126OSM   H13F13497   3.754   0.304   8.211  1.0265  0.4555 -1.5922
  126OSM   H13G13498   3.694   0.393   8.364  1.3287  1.3136  0.9532
  126OSM   C14F13499   3.907   0.391   8.350  0.7334  1.1509 -0.0541
  126OSM   H14F13500   3.913   0.489   8.403 -0.9124  0.4265  1.5335
  126OSM   H14G13501   3.983   0.379   8.271  2.6182  2.2671  1.5504
  126OSM   C15F13502   3.922   0.269   8.449 -0.2347  0.0409 -0.2838
  126OSM   H15F13503   4.032   0.252   8.453 -0.3620 -0.6779  0.2013
  126OSM   H15G13504   3.870   0.179   8.410  0.9003 -0.2214 -1.2292
  126OSM   C16F13505   3.884   0.301   8.591 -0.3458  0.2752 -0.7415
  126OSM   H16F13506   3.776   0.276   8.600 -0.3994  1.0831  1.0886
  126OSM   H16G13507   3.902   0.408   8.617 -0.7880 -0.1501  1.4065
  126OSM   C17F13508   3.967   0.216   8.688  0.0228  0.5880 -0.3787
  126OSM   H17F13509   4.066   0.266   8.694  0.7718 -0.9228 -0.0995
  126OSM   H17G13510   3.986   0.118   8.639  0.2180 -1.2439  3.2246
  126OSM   C18F13511   3.896   0.198   8.825 -0.3807  0.6116 -0.8470
  126OSM   H18F13512   3.813   0.124   8.822 -0.1119  0.3461 -1.8819
  126OSM   H18G13513   3.856   0.295   8.859 -1.5200 -0.4746  0.9801
  126OSM   H18H13514   3.968   0.156   8.899 -1.2767  0.7625  0.1174
  127OSM      N13515   2.203   1.495   6.069  0.0793  0.6552 -0.0226
  127OSM    C1513516   2.342   1.457   6.029  0.4097 -0.4640  0.0202
  127OSM   H15A13517   2.342   1.359   5.984  1.1871 -1.4778  2.1342
  127OSM   H15B13518   2.402   1.450   6.119 -0.1133  1.0622  0.5038
  127OSM   H15C13519   2.379   1.525   5.954 -0.5234 -0.8074 -0.7597
  127OSM    C1413520   2.127   1.535   5.944 -0.0060  0.0925 -0.5076
  127OSM   H14A13521   2.027   1.549   5.983  0.3404  1.4674 -0.1096
  127OSM   H14B13522   2.117   1.460   5.867 -0.5250 -0.7313  0.3299
  127OSM   H14C13523   2.159   1.627   5.900  1.5174  0.1255  0.6317
  127OSM    C1313524   2.136   1.384   6.150  0.0724  0.3024  0.1957
  127OSM   H13A13525   2.119   1.290   6.101 -0.7002  0.5864 -0.0870
  127OSM   H13B13526   2.043   1.421   6.191 -0.1209  1.3102 -1.1022
  127OSM   H13C13527   2.187   1.357   6.241 -1.0901  0.4366  0.8842
  127OSM    C1213528   2.219   1.625   6.154  0.5282 -0.4502  0.3701
  127OSM   H12A13529   2.117   1.651   6.175 -0.0025 -3.1740  1.2564
  127OSM   H12B13530   2.260   1.710   6.100  0.1142 -0.9568 -0.7737
  127OSM    C1113531   2.306   1.619   6.286 -0.3766  0.6442  0.0363
  127OSM   H11A13532   2.269   1.545   6.361 -0.0714  0.0659 -0.3849
  127OSM   H11B13533   2.293   1.722   6.328  2.0940  0.3015  1.7883
  127OSM      P13534   2.554   1.691   6.261  0.1208 -0.0524  0.2753
  127OSM    O1313535   2.685   1.630   6.232 -0.4364  0.2642  0.2963
  127OSM    O1413536   2.515   1.794   6.162  0.3731 -0.0152 -0.4543
  127OSM    O1113537   2.557   1.760   6.413  0.1397  0.3838  0.0500
  127OSM    O1213538   2.443   1.580   6.268 -0.0371  0.8260  0.2083
  127OSM    C1S13539   2.602   1.674   6.520 -0.5945 -0.4129  0.2153
  127OSM    H1S13540   2.712   1.664   6.508 -0.5346 -0.6994  0.9800
  127OSM    H1T13541   2.549   1.577   6.512 -0.7304 -0.4982  2.0518
  127OSM     NF13542   2.595   1.643   6.762 -0.0593 -0.1624 -0.7721
  127OSM    HNF13543   2.512   1.595   6.790 -0.0572  0.0701 -0.3645
  127OSM    C2S13544   2.580   1.742   6.657 -0.1635 -0.6562  0.4483
  127OSM    H2S13545   2.667   1.811   6.662 -0.4557 -0.1748 -1.1039
  127OSM    C3S13546   2.448   1.810   6.675 -0.2600  0.2195  0.1171
  127OSM    H3S13547   2.368   1.734   6.668  1.4907 -1.7158  0.6242
  127OSM     O313548   2.427   1.906   6.569 -0.5689 -0.1825  0.0950
  127OSM    HO313549   2.473   1.876   6.490  3.2480  0.8031  1.8253
  127OSM    C4S13550   2.425   1.865   6.815 -0.6497 -0.1069  0.7331
  127OSM    H4S13551   2.497   1.942   6.842 -0.2330 -0.8781  1.8757
  127OSM    C5S13552   2.325   1.832   6.899  0.1132 -0.5538 -0.3401
  127OSM    H5S13553   2.243   1.766   6.868 -1.1009  0.4614  0.6724
  127OSM    C6S13554   2.305   1.886   7.039 -0.2355 -0.4440 -0.7880
  127OSM    H6S13555   2.366   1.975   7.067  1.1903 -0.9047 -2.3393
  127OSM    H6T13556   2.330   1.804   7.110 -1.3146 -1.4463 -1.5529
  127OSM    C7S13557   2.154   1.924   7.076 -0.0005  0.6430  0.9452
  127OSM    H7S13558   2.081   1.842   7.059  0.0941  0.3024  2.1001
  127OSM    H7T13559   2.121   2.011   7.016  0.5044  0.3828  0.2833
  127OSM    C8S13560   2.150   1.967   7.221  0.5506  0.0948 -0.4645
  127OSM    H8S13561   2.138   1.889   7.299 -2.1866  1.6512  0.7523
  127OSM    H8T13562   2.048   2.010   7.233  1.8223  2.5563  2.0299
  127OSM    C9S13563   2.240   2.075   7.269 -0.4875 -0.4506 -0.2892
  127OSM    H9S13564   2.226   2.160   7.199  0.9593  0.1122  0.0808
  127OSM    H9T13565   2.345   2.040   7.258 -1.1906 -2.0439 -2.0577
  127OSM   C10S13566   2.211   2.105   7.413  0.2467  0.3121  0.1535
  127OSM   H10S13567   2.213   2.008   7.466 -0.4933 -1.1968 -2.4645
  127OSM   H10T13568   2.111   2.152   7.430  0.7688  1.3149  0.4635
  127OSM   C11S13569   2.315   2.209   7.469 -0.0023 -0.3386  0.0119
  127OSM   H11S13570   2.336   2.300   7.409 -0.3392  1.0624  1.9575
  127OSM   H11T13571   2.404   2.143   7.473 -1.0624 -1.8058 -0.1651
  127OSM   C12S13572   2.294   2.266   7.611  0.0254  0.0766  0.7574
  127OSM   H12S13573   2.185   2.279   7.626 -0.1108  0.1258 -0.2465
  127OSM   H12T13574   2.338   2.368   7.612 -0.4246  0.3054 -0.7046
  127OSM   C13S13575   2.338   2.184   7.732 -0.0939  0.7582  0.2218
  127OSM   H13S13576   2.449   2.176   7.733 -0.1457 -0.1664 -0.4930
  127OSM   H13T13577   2.296   2.083   7.709 -0.6709  0.9257  0.5201
  127OSM   C14S13578   2.283   2.219   7.874  0.2892  0.3592  0.2983
  127OSM   H14S13579   2.173   2.225   7.862  0.5789  0.9855 -2.2034
  127OSM   H14T13580   2.331   2.311   7.914  0.6760  1.0799 -1.7728
  127OSM   C15S13581   2.319   2.121   7.993 -0.2660 -0.7579  0.0487
  127OSM   H15S13582   2.429   2.117   8.006 -0.3950  1.2900  2.2655
  127OSM   H15T13583   2.286   2.018   7.967 -0.1653 -0.5999 -0.7047
  127OSM   C16S13584   2.264   2.166   8.128  0.6306 -0.4709 -0.0407
  127OSM   H16S13585   2.153   2.162   8.136  0.3319  1.5702 -2.6437
  127OSM   H16T13586   2.287   2.275   8.131 -0.6886 -0.1800 -0.0656
  127OSM   C17S13587   2.331   2.088   8.253 -0.8941 -0.1130 -0.7674
  127OSM   H17S13588   2.442   2.087   8.261 -0.9476 -0.8165 -0.0087
  127OSM   H17T13589   2.313   1.978   8.246 -0.9116 -0.0207 -2.2529
  127OSM   C18S13590   2.286   2.144   8.390  0.0573  0.4129  0.0084
  127OSM   H18S13591   2.311   2.080   8.478  0.5615 -0.1753 -0.5542
  127OSM   H18T13592   2.175   2.149   8.387 -0.3005 -4.6720 -0.2688
  127OSM   H18U13593   2.326   2.247   8.399  1.0652 -0.0489  0.9498
  127OSM    C1F13594   2.713   1.579   6.788  0.4519  0.1617  0.8390
  127OSM     OF13595   2.810   1.602   6.717  0.1079 -0.3569  0.2332
  127OSM    C2F13596   2.716   1.490   6.903 -0.1268  0.4403 -0.4087
  127OSM    H2F13597   2.754   1.387   6.888 -1.8063 -0.3382  0.5484
  127OSM    H2G13598   2.611   1.482   6.939  0.5275 -0.0329  1.4216
  127OSM    C3F13599   2.799   1.546   7.024 -0.2264 -0.5124  0.4749
  127OSM    H3F13600   2.905   1.566   7.000  0.3836 -2.4079  1.4547
  127OSM    H3G13601   2.795   1.465   7.101  1.0990 -1.1561 -0.1250
  127OSM    C4F13602   2.747   1.678   7.086  0.5518 -0.5613 -0.0522
  127OSM    H4F13603   2.746   1.763   7.015 -2.1100 -1.2489 -0.8893
  127OSM    H4G13604   2.814   1.709   7.169 -0.8091 -1.7384  1.5445
  127OSM    C5F13605   2.607   1.654   7.149  0.3946  0.9428  0.4819
  127OSM    H5F13606   2.596   1.548   7.180  0.2334  1.0862  0.9218
  127OSM    H5G13607   2.535   1.674   7.066  0.2528 -0.0118  0.3701
  127OSM    C6F13608   2.560   1.742   7.272 -0.0692  0.4540 -0.2621
  127OSM    H6F13609   2.454   1.711   7.286  0.4545 -1.5267 -0.4769
  127OSM    H6G13610   2.555   1.847   7.237  0.5380  0.4169 -0.4701
  127OSM    C7F13611   2.639   1.703   7.395 -0.0003  0.7929  0.1903
  127OSM    H7F13612   2.743   1.740   7.381 -0.4560  1.9427 -0.2697
  127OSM    H7G13613   2.639   1.593   7.411 -2.0087  0.7858  0.2038
  127OSM    C8F13614   2.581   1.759   7.529  0.7315  0.3097  0.0873
  127OSM    H8F13615   2.642   1.714   7.610  0.2978 -0.0048  0.2393
  127OSM    H8G13616   2.481   1.713   7.540  0.8142 -0.2404 -1.3020
  127OSM    C9F13617   2.580   1.911   7.541  0.3998 -0.5146 -0.1053
  127OSM    H9F13618   2.523   1.961   7.461 -1.7721  0.1754  1.8144
  127OSM   C10F13619   2.644   1.982   7.633  0.2841 -0.3053 -0.2479
  127OSM   H10F13620   2.627   2.091   7.625 -0.0176 -0.5348 -3.1356
  127OSM   C11F13621   2.726   1.941   7.757 -0.0330 -0.0622  0.3625
  127OSM   H11F13622   2.829   1.978   7.741 -0.0793 -0.6627 -1.4564
  127OSM   H11G13623   2.738   1.830   7.755 -1.7532 -0.2961  1.2216
  127OSM   C12F13624   2.669   1.969   7.898 -0.4514  0.7535  0.1607
  127OSM   H12F13625   2.558   1.969   7.903 -0.5152 -1.3144 -0.8001
  127OSM   H12G13626   2.695   2.075   7.919 -5.6011  2.3876 -1.2127
  127OSM   C13F13627   2.721   1.869   8.003 -0.3284 -0.0311 -0.1890
  127OSM   H13F13628   2.829   1.892   8.019 -0.3779  0.7763 -0.9209
  127OSM   H13G13629   2.713   1.768   7.959  0.1712 -0.7158  1.2804
  127OSM   C14F13630   2.642   1.877   8.131 -0.6988  0.0407  0.1695
  127OSM   H14F13631   2.535   1.859   8.108 -1.1180 -0.2234  2.1708
  127OSM   H14G13632   2.658   1.980   8.170 -0.3622 -0.1955  0.6521
  127OSM   C15F13633   2.685   1.773   8.239 -0.2315  0.0012 -0.7347
  127OSM   H15F13634   2.789   1.792   8.275 -0.3847 -0.2741 -0.1513
  127OSM   H15G13635   2.694   1.672   8.195  0.1120 -0.5903  0.6577
  127OSM   C16F13636   2.583   1.769   8.350 -0.7095 -0.5704  0.5110
  127OSM   H16F13637   2.545   1.873   8.366  0.5854 -0.2722  1.7562
  127OSM   H16G13638   2.628   1.749   8.449  1.4547 -2.2302 -0.7727
  127OSM   C17F13639   2.472   1.669   8.321 -0.3599  0.4981  0.7964
  127OSM   H17F13640   2.475   1.651   8.211  2.3561 -0.6011  1.0073
  127OSM   H17G13641   2.368   1.708   8.328 -0.6201 -0.1623  0.6227
  127OSM   C18F13642   2.471   1.529   8.391 -0.3891 -0.0820 -1.2362
  127OSM   H18F13643   2.487   1.542   8.500 -1.0572 -2.6321 -0.7959
  127OSM   H18G13644   2.553   1.464   8.351  1.1485  0.8212  0.4076
  127OSM   H18H13645   2.372   1.479   8.389 -1.3766  1.7358  0.8156
  128OSM      N13646   3.130   5.261   6.008  0.2392 -0.3609 -0.0852
  128OSM    C1513647   3.149   5.348   6.126 -0.2692 -0.2337 -0.6960
  128OSM   H15A13648   3.196   5.287   6.202 -2.3069 -0.7233  0.1960
  128OSM   H15B13649   3.052   5.379   6.160  0.9794  2.4546  0.5299
  128OSM   H15C13650   3.213   5.433   6.106 -1.5932  0.7464 -0.7999
  128OSM    C1413651   3.037   5.334   5.909 -0.3489 -0.0240 -0.4564
  128OSM   H14A13652   3.063   5.436   5.884 -1.3120  0.9142  2.1876
  128OSM   H14B13653   2.939   5.341   5.953  0.6386 -0.6574  1.9424
  128OSM   H14C13654   3.047   5.288   5.812  3.6114 -0.7436  0.1790
  128OSM    C1313655   3.270   5.232   5.942 -0.0186  0.8654  1.0063
  128OSM   H13A13656   3.344   5.230   6.021 -1.0543 -0.4746  1.9709
  128OSM   H13B13657   3.305   5.319   5.887 -1.4122  0.6063 -0.3290
  128OSM   H13C13658   3.273   5.149   5.874 -0.2420  1.8588 -0.2401
  128OSM    C1213659   3.063   5.139   6.056 -0.7282 -0.2899 -0.1400
  128OSM   H12A13660   3.122   5.097   6.136 -1.3348 -3.4932 -1.3201
  128OSM   H12B13661   3.061   5.064   5.979  1.2610 -1.3109  0.7892
  128OSM    C1113662   2.915   5.157   6.114 -0.3719  0.0837 -0.1176
  128OSM   H11A13663   2.853   5.229   6.057  1.1905  2.5934  1.2998
  128OSM   H11B13664   2.918   5.189   6.220 -0.6135  1.2370 -0.4571
  128OSM      P13665   2.726   4.993   6.075  0.0918 -0.1585 -0.2102
  128OSM    O1313666   2.703   5.039   5.938  0.0111  0.5311 -0.0828
  128OSM    O1413667   2.701   4.850   6.107  0.6585 -0.5281 -0.1938
  128OSM    O1113668   2.639   5.088   6.169  0.2704 -0.2562  0.1007
  128OSM    O1213669   2.874   5.026   6.119  0.0814 -1.1292 -0.3981
  128OSM    C1S13670   2.644   5.069   6.312  0.1803 -0.7151 -0.4233
  128OSM    H1S13671   2.746   5.045   6.348  0.8020  0.4481 -1.4029
  128OSM    H1T13672   2.577   4.989   6.350 -0.3092  1.2086  2.9620
  128OSM     NF13673   2.613   5.196   6.528  0.2849  0.0925  0.0538
  128OSM    HNF13674   2.525   5.188   6.573  0.8669  1.7204  1.5291
  128OSM    C2S13675   2.592   5.198   6.386 -0.1423 -0.1110  0.3805
  128OSM    H2S13676   2.656   5.280   6.347  0.1456 -0.2598  0.5394
  128OSM    C3S13677   2.455   5.241   6.336 -0.2570  1.2054 -0.3191
  128OSM    H3S13678   2.391   5.157   6.368  0.3237  1.5683  1.8611
  128OSM     O313679   2.440   5.248   6.195  0.4133 -0.2384  0.4251
  128OSM    HO313680   2.519   5.212   6.154 -1.1274 -0.7523 -2.2284
  128OSM    C4S13681   2.398   5.361   6.406  0.7452 -0.5503  0.8464
  128OSM    H4S13682   2.471   5.441   6.427  0.3204  0.7396 -2.2232
  128OSM    C5S13683   2.273   5.358   6.450 -0.3341 -0.4888  0.2395
  128OSM    H5S13684   2.225   5.259   6.446  2.2958 -1.8164  0.7901
  128OSM    C6S13685   2.195   5.469   6.519 -0.0571 -0.5601  0.1842
  128OSM    H6S13686   2.140   5.427   6.606 -1.5448 -0.5096 -0.7093
  128OSM    H6T13687   2.125   5.520   6.449 -0.0354 -1.5446 -0.5602
  128OSM    C7S13688   2.290   5.585   6.565 -0.0474 -0.0016 -0.2325
  128OSM    H7S13689   2.328   5.636   6.474 -0.5271 -0.2931 -0.6040
  128OSM    H7T13690   2.371   5.554   6.633  0.6669  0.5251 -0.8359
  128OSM    C8S13691   2.201   5.682   6.647  0.2272 -0.0463 -0.1752
  128OSM    H8S13692   2.113   5.717   6.589 -1.5992 -0.9185  2.0023
  128OSM    H8T13693   2.246   5.783   6.661 -1.4213  0.4199  2.2180
  128OSM    C9S13694   2.173   5.641   6.796 -0.4947 -0.3714  1.0598
  128OSM    H9S13695   2.273   5.612   6.834  0.6811 -1.4640 -2.6362
  128OSM    H9T13696   2.124   5.542   6.796  1.2585 -1.2683 -1.1741
  128OSM   C10S13697   2.120   5.747   6.894  0.5535 -0.1480 -0.6481
  128OSM   H10S13698   2.015   5.764   6.863  0.7833  1.9256 -0.3342
  128OSM   H10T13699   2.174   5.843   6.879  0.2574  0.0276 -0.5938
  128OSM   C11S13700   2.121   5.697   7.035 -0.3828  0.0194 -0.0926
  128OSM   H11S13701   2.227   5.673   7.059 -1.3600 -2.0702  2.2815
  128OSM   H11T13702   2.062   5.606   7.058 -1.5578  0.4676 -1.2461
  128OSM   C12S13703   2.080   5.799   7.130  0.3919 -0.0370 -0.2120
  128OSM   H12S13704   1.970   5.814   7.131  0.3763  0.0890 -1.7031
  128OSM   H12T13705   2.124   5.896   7.099  0.4869  0.5721  1.8102
  128OSM   C13S13706   2.142   5.781   7.273 -0.3145  0.3760 -0.2201
  128OSM   H13S13707   2.226   5.851   7.289 -0.6742  0.5905  0.7846
  128OSM   H13T13708   2.191   5.684   7.297 -0.0142  0.7001  0.4701
  128OSM   C14S13709   2.038   5.800   7.383 -0.6779 -0.0461  1.0234
  128OSM   H14S13710   1.973   5.711   7.368  0.3924 -0.6943  0.2327
  128OSM   H14T13711   1.977   5.893   7.370 -0.3675 -0.0291 -0.3578
  128OSM   C15S13712   2.107   5.791   7.526  0.6399 -0.4073  0.6589
  128OSM   H15S13713   2.171   5.881   7.543 -1.4750  1.4016 -0.5915
  128OSM   H15T13714   2.163   5.696   7.528  2.1498  0.3943 -1.3204
  128OSM   C16S13715   1.997   5.802   7.636 -0.5225  0.2717  0.0746
  128OSM   H16S13716   1.916   5.729   7.613 -0.9228  0.1267  1.9145
  128OSM   H16T13717   1.954   5.903   7.618 -1.0749  0.3119  1.5409
  128OSM   C17S13718   2.061   5.778   7.770  0.0370 -1.1460  0.0642
  128OSM   H17S13719   2.151   5.840   7.789 -0.2192 -0.9432  0.6681
  128OSM   H17T13720   2.094   5.672   7.772 -0.2870 -1.3063 -2.0439
  128OSM   C18S13721   1.968   5.805   7.892 -0.0706  0.8121  0.6738
  128OSM   H18S13722   2.016   5.761   7.983  3.4282  0.5391 -1.2180
  128OSM   H18T13723   1.862   5.775   7.886  0.3228 -0.3912 -0.5282
  128OSM   H18U13724   1.957   5.913   7.917 -0.2318  0.6484  1.3271
  128OSM    C1F13725   2.725   5.178   6.592 -0.5324  0.3549  0.1298
  128OSM     OF13726   2.839   5.170   6.541  0.4422  0.2880 -0.7092
  128OSM    C2F13727   2.708   5.156   6.738  0.1704  0.0974 -0.1376
  128OSM    H2F13728   2.766   5.064   6.762 -1.1300 -1.2230 -1.7971
  128OSM    H2G13729   2.600   5.154   6.764  0.4108 -0.8943  0.8417
  128OSM    C3F13730   2.774   5.274   6.808  0.4967 -0.1365  0.4321
  128OSM    H3F13731   2.724   5.371   6.784  0.1313 -0.6688 -1.0291
  128OSM    H3G13732   2.881   5.277   6.779  0.4402 -1.8431  0.0302
  128OSM    C4F13733   2.771   5.248   6.957 -0.2134  0.8371  0.2393
  128OSM    H4F13734   2.800   5.144   6.981 -0.0786  0.6790 -0.5940
  128OSM    H4G13735   2.664   5.254   6.985 -0.3825  0.5928 -0.3673
  128OSM    C5F13736   2.840   5.356   7.051  0.1738  0.1490 -0.2169
  128OSM    H5F13737   2.803   5.455   7.018  1.0669  0.8408  0.8733
  128OSM    H5G13738   2.949   5.361   7.031  0.2815 -1.9533 -0.2599
  128OSM    C6F13739   2.824   5.329   7.201 -0.2044 -0.4191 -0.5367
  128OSM    H6F13740   2.855   5.227   7.233 -2.2640 -0.8727  0.1201
  128OSM    H6G13741   2.720   5.347   7.237 -0.1365  0.8842 -0.9616
  128OSM    C7F13742   2.909   5.426   7.283  0.5624  0.0886  0.5417
  128OSM    H7F13743   2.887   5.531   7.254 -1.0232 -0.4053 -0.1090
  128OSM    H7G13744   3.017   5.412   7.264  0.4774  1.2052 -0.8008
  128OSM    C8F13745   2.880   5.420   7.438 -0.8180 -0.1652 -0.0558
  128OSM    H8F13746   2.894   5.317   7.477 -0.8629 -0.2697 -0.3176
  128OSM    H8G13747   2.774   5.446   7.453 -0.5550  1.3995 -0.8084
  128OSM    C9F13748   2.953   5.527   7.513 -0.3221 -0.5086 -0.0720
  128OSM    H9F13749   2.933   5.631   7.483  2.0114 -0.0287 -0.0682
  128OSM   C10F13750   3.051   5.497   7.596 -0.1408 -0.2488  0.2093
  128OSM   H10F13751   3.107   5.580   7.642 -0.9659  0.3602  0.1294
  128OSM   C11F13752   3.084   5.351   7.625  0.3881 -0.0488  0.3855
  128OSM   H11F13753   3.133   5.316   7.531 -0.0661 -0.0271  0.1430
  128OSM   H11G13754   2.998   5.286   7.650 -1.0065  0.8925 -1.7727
  128OSM   C12F13755   3.191   5.343   7.732  0.4204  0.6421 -0.1516
  128OSM   H12F13756   3.128   5.337   7.823 -0.3911 -0.2140 -0.7624
  128OSM   H12G13757   3.262   5.429   7.727  1.4546 -0.2693 -1.4706
  128OSM   C13F13758   3.282   5.216   7.727  0.7709  0.0568  0.1378
  128OSM   H13F13759   3.350   5.233   7.641  0.3068 -2.3085 -0.7148
  128OSM   H13G13760   3.231   5.118   7.718  2.1642 -0.4860 -2.5103
  128OSM   C14F13761   3.363   5.199   7.863 -0.0666  0.2748 -0.2307
  128OSM   H14F13762   3.430   5.287   7.873  0.3785 -0.4433  4.1128
  128OSM   H14G13763   3.431   5.111   7.871  0.3870  0.5255 -1.1675
  128OSM   C15F13764   3.273   5.206   7.991 -0.2722 -0.4675  0.4159
  128OSM   H15F13765   3.182   5.144   7.977  1.3191 -1.9220 -4.8235
  128OSM   H15G13766   3.239   5.311   8.002 -0.4403 -0.5465  0.6384
  128OSM   C16F13767   3.348   5.173   8.123 -0.0306  0.3852 -0.2441
  128OSM   H16F13768   3.420   5.089   8.116 -0.6959 -0.1725 -0.4022
  128OSM   H16G13769   3.276   5.122   8.190  0.5451 -0.7886 -0.5081
  128OSM   C17F13770   3.405   5.288   8.191  0.3751 -0.3516  0.2873
  128OSM   H17F13771   3.324   5.362   8.207  0.7535  0.1550 -0.1261
  128OSM   H17G13772   3.477   5.346   8.130 -0.6315 -0.0386 -0.6266
  128OSM   C18F13773   3.470   5.262   8.327  0.0108  0.1345  0.5699
  128OSM   H18F13774   3.536   5.345   8.357  2.5616 -2.0346  1.1382
  128OSM   H18G13775   3.545   5.180   8.318 -0.0363  0.0596  0.8713
  128OSM   H18H13776   3.392   5.244   8.404 -0.0742  3.8989  1.4552
  129OSM      N13777   0.411   0.483   5.674 -0.4553 -0.0959  0.6281
  129OSM    C1513778   0.418   0.341   5.632  0.1140 -0.4990  0.2259
  129OSM   H15A13779   0.358   0.342   5.543  0.4772  1.0975 -0.0137
  129OSM   H15B13780   0.373   0.274   5.703 -1.0893 -0.1415 -0.1972
  129OSM   H15C13781   0.516   0.309   5.600 -0.8257 -0.4327 -2.8637
  129OSM    C1413782   0.503   0.555   5.574  0.2018  0.0611  0.4176
  129OSM   H14A13783   0.490   0.663   5.573  1.7726  0.2622 -1.7165
  129OSM   H14B13784   0.482   0.523   5.473  1.3461 -0.4665  0.3432
  129OSM   H14C13785   0.605   0.526   5.591  0.4570  0.3179 -0.6543
  129OSM    C1313786   0.274   0.534   5.654 -0.7890 -0.1116  0.6001
  129OSM   H13A13787   0.199   0.491   5.718 -0.8377 -1.7623 -0.5562
  129OSM   H13B13788   0.244   0.496   5.558 -0.3836  0.4712  0.2409
  129OSM   H13C13789   0.262   0.642   5.654 -0.4858 -0.0525  3.0807
  129OSM    C1213790   0.462   0.497   5.817  0.1223  0.1339  0.5243
  129OSM   H12A13791   0.482   0.601   5.837 -0.5308 -0.0665  2.3073
  129OSM   H12B13792   0.550   0.435   5.829 -0.0298 -0.6535 -2.0624
  129OSM    C1113793   0.367   0.451   5.929 -0.0819 -0.3403  0.9924
  129OSM   H11A13794   0.264   0.493   5.916 -0.3567 -0.8905  1.3600
  129OSM   H11B13795   0.397   0.507   6.020 -1.1934  0.0928  1.1037
  129OSM      P13796   0.420   0.234   6.063  0.2290  0.3660 -0.1351
  129OSM    O1313797   0.364   0.096   6.064  0.1880  0.0930 -0.3871
  129OSM    O1413798   0.565   0.247   6.083 -0.7713 -0.1543  0.3555
  129OSM    O1113799   0.348   0.312   6.175 -0.5164 -0.4658 -0.4078
  129OSM    O1213800   0.369   0.307   5.927 -0.9882  0.2928 -0.6427
  129OSM    C1S13801   0.316   0.261   6.308 -0.6162 -0.1862 -0.0163
  129OSM    H1S13802   0.409   0.212   6.343  0.6993  1.8040 -0.6560
  129OSM    H1T13803   0.234   0.186   6.319 -0.6219  0.1680  2.4225
  129OSM     NF13804   0.278   0.319   6.538  0.0946  0.3915  0.0818
  129OSM    HNF13805   0.193   0.304   6.587  0.8811  1.8973  1.9798
  129OSM    C2S13806   0.283   0.381   6.402 -0.3228 -0.1702  0.4106
  129OSM    H2S13807   0.359   0.462   6.394 -1.9880  1.2756 -0.9775
  129OSM    C3S13808   0.158   0.447   6.353 -0.0467 -0.2823 -0.4700
  129OSM    H3S13809   0.078   0.371   6.344  0.5620 -1.2840  2.3116
  129OSM     O313810   0.171   0.507   6.220 -0.3657 -0.3290 -0.1319
  129OSM    HO313811   0.247   0.465   6.178 -1.6712 -0.4380 -2.4867
  129OSM    C4S13812   0.112   0.546   6.460 -0.3140  0.0364  0.3942
  129OSM    H4S13813   0.030   0.504   6.520 -1.0301  0.8169 -0.0130
  129OSM    C5S13814   0.142   0.678   6.471  0.3445  0.4493 -0.3136
  129OSM    H5S13815   0.206   0.716   6.391  0.9685  0.3215  0.1199
  129OSM    C6S13816   0.082   0.775   6.569  0.5197 -0.2985 -0.2260
  129OSM    H6S13817  -0.014   0.812   6.529  1.1054  3.8369  1.9506
  129OSM    H6T13818   0.143   0.867   6.560 -0.2710  0.2507  0.0697
  129OSM    C7S13819   0.068   0.715   6.705  0.4581  0.0353  0.4651
  129OSM    H7S13820   0.003   0.625   6.703 -1.4003  1.3763 -0.3990
  129OSM    H7T13821   0.036   0.794   6.776  0.4035 -0.1893  0.6907
  129OSM    C8S13822   0.203   0.668   6.772  0.5541  0.1829  0.5748
  129OSM    H8S13823   0.280   0.747   6.761  2.4089 -1.7735 -0.9343
  129OSM    H8T13824   0.235   0.577   6.717  0.5370  1.2488 -1.2150
  129OSM    C9S13825   0.184   0.644   6.925 -0.2870 -0.7082 -0.2741
  129OSM    H9S13826   0.105   0.567   6.933 -0.3562 -0.6268 -0.1768
  129OSM    H9T13827   0.141   0.740   6.960  0.2994 -0.1506 -1.0303
  129OSM   C10S13828   0.308   0.611   7.016  0.0731  0.2383  0.1609
  129OSM   H10S13829   0.359   0.708   7.033  0.1689  0.0381  1.0149
  129OSM   H10T13830   0.370   0.540   6.957  0.6163 -1.1656  2.3764
  129OSM   C11S13831   0.262   0.550   7.147 -0.0269  0.2462 -0.1898
  129OSM   H11S13832   0.355   0.524   7.203 -0.0516 -0.4929 -0.4837
  129OSM   H11T13833   0.213   0.455   7.117 -0.3364 -0.0967  1.3718
  129OSM   C12S13834   0.155   0.634   7.219  1.2520 -0.5294  0.0808
  129OSM   H12S13835   0.059   0.625   7.164  0.5697  1.5791  0.8453
  129OSM   H12T13836   0.181   0.742   7.231  0.7313 -0.5739  1.8590
  129OSM   C13S13837   0.131   0.578   7.360 -0.0058 -0.1930  0.2153
  129OSM   H13S13838   0.143   0.468   7.351 -0.0204 -0.2597  0.9287
  129OSM   H13T13839   0.027   0.613   7.377 -0.0284  1.1503 -2.4497
  129OSM   C14S13840   0.216   0.636   7.470  0.4734 -0.0894 -0.6583
  129OSM   H14S13841   0.211   0.747   7.469  1.3294 -0.0458 -0.3481
  129OSM   H14T13842   0.319   0.597   7.457  0.3993  0.5794 -3.3853
  129OSM   C15S13843   0.182   0.588   7.617 -0.1561 -0.4603 -0.4011
  129OSM   H15S13844   0.192   0.477   7.611  0.4128 -0.2862 -3.0048
  129OSM   H15T13845   0.079   0.620   7.640  0.5503  2.8559 -1.6216
  129OSM   C16S13846   0.267   0.651   7.728 -0.1498 -0.5423 -0.0240
  129OSM   H16S13847   0.258   0.760   7.709 -1.6013 -0.6788 -0.1771
  129OSM   H16T13848   0.368   0.610   7.708 -0.3710 -0.6206 -1.0338
  129OSM   C17S13849   0.203   0.635   7.863 -0.1220  0.2807  0.5984
  129OSM   H17S13850   0.093   0.656   7.862 -0.3835 -1.0764 -0.4990
  129OSM   H17T13851   0.249   0.716   7.923  1.2796 -0.3303  0.3468
  129OSM   C18S13852   0.228   0.501   7.925  0.4330  0.0498 -0.2215
  129OSM   H18S13853   0.162   0.425   7.877 -0.3567  0.9032 -0.4900
  129OSM   H18T13854   0.192   0.493   8.030 -0.6258  1.2733 -0.4772
  129OSM   H18U13855   0.332   0.463   7.915  0.9713  1.7247 -1.2666
  129OSM    C1F13856   0.395   0.289   6.607 -0.6960  0.2497 -0.5406
  129OSM     OF13857   0.507   0.312   6.559 -0.3915 -0.4519 -0.3399
  129OSM    C2F13858   0.373   0.234   6.739  0.4378 -0.4168 -0.2346
  129OSM    H2F13859   0.284   0.168   6.737  0.5162 -0.5580  0.9618
  129OSM    H2G13860   0.363   0.313   6.816  2.3817  0.5171 -0.8867
  129OSM    C3F13861   0.490   0.140   6.793  0.0773 -0.0722  0.1564
  129OSM    H3F13862   0.583   0.201   6.799 -0.6292  0.9895  0.5107
  129OSM    H3G13863   0.506   0.055   6.723 -0.8495  1.4978 -2.0053
  129OSM    C4F13864   0.466   0.077   6.937 -0.5384 -0.2039 -0.7058
  129OSM    H4F13865   0.560   0.019   6.950 -1.4446 -1.4569  0.3008
  129OSM    H4G13866   0.380   0.007   6.935 -1.0306  0.4448 -2.5022
  129OSM    C5F13867   0.444   0.181   7.044  0.3511 -0.3130 -0.0074
  129OSM    H5F13868   0.348   0.232   7.025 -0.6693 -1.3760  2.1027
  129OSM    H5G13869   0.512   0.268   7.039  1.3054 -0.9491  1.4261
  129OSM    C6F13870   0.443   0.128   7.190 -0.2449 -0.3394 -0.0210
  129OSM    H6F13871   0.541   0.077   7.204 -0.5994 -0.8922  0.4815
  129OSM    H6G13872   0.367   0.048   7.203 -0.8456  0.5066  1.9476
  129OSM    C7F13873   0.445   0.235   7.296  0.1106 -0.2784  0.1265
  129OSM    H7F13874   0.356   0.300   7.281 -1.6793 -2.6712 -0.1400
  129OSM    H7G13875   0.541   0.290   7.289 -0.4003  0.6899  0.5564
  129OSM    C8F13876   0.444   0.171   7.434  0.8346 -0.5091 -0.3679
  129OSM    H8F13877   0.537   0.110   7.444 -0.8237 -2.7724  1.7259
  129OSM    H8G13878   0.349   0.115   7.437  0.3186  0.3412 -0.7160
  129OSM    C9F13879   0.449   0.272   7.547 -0.4631 -0.1497  0.1370
  129OSM    H9F13880   0.505   0.366   7.534  0.3016 -0.6065  0.1007
  129OSM   C10F13881   0.396   0.251   7.666  0.0620  0.1704 -0.0388
  129OSM   H10F13882   0.417   0.324   7.746  0.9056  0.4584 -0.5087
  129OSM   C11F13883   0.329   0.114   7.711  0.1195 -0.8024 -0.3289
  129OSM   H11F13884   0.359   0.021   7.658 -2.0521 -1.6872 -0.0595
  129OSM   H11G13885   0.223   0.122   7.679 -1.2211 -0.4227  3.8803
  129OSM   C12F13886   0.345   0.069   7.859 -0.0421  0.1631  0.7387
  129OSM   H12F13887   0.290  -0.028   7.854  2.2235 -1.0539 -1.6339
  129OSM   H12G13888   0.282   0.127   7.930 -0.8759  0.0963  0.0611
  129OSM   C13F13889   0.483   0.031   7.909 -0.1063 -0.0082 -0.3259
  129OSM   H13F13890   0.548   0.121   7.897  1.2280 -0.2458  4.2215
  129OSM   H13G13891   0.518  -0.059   7.853  1.1298 -1.1301  2.1595
  129OSM   C14F13892   0.485  -0.005   8.063  0.1488 -0.0580 -0.0465
  129OSM   H14F13893   0.587  -0.039   8.091 -1.0072 -1.8178  2.2067
  129OSM   H14G13894   0.417  -0.093   8.071 -0.5546  0.3249 -1.6867
  129OSM   C15F13895   0.447   0.118   8.153 -0.5443 -0.6439  0.4137
  129OSM   H15F13896   0.337   0.128   8.143 -0.7103 -2.1549  0.5067
  129OSM   H15G13897   0.493   0.213   8.119 -1.5584 -0.1262  0.5053
  129OSM   C16F13898   0.493   0.082   8.297  0.4951 -0.1017 -0.5599
  129OSM   H16F13899   0.438  -0.006   8.337  0.8906  0.6035  1.6519
  129OSM   H16G13900   0.443   0.168   8.348  1.1029  0.4003 -0.7984
  129OSM   C17F13901   0.639   0.079   8.318 -0.1815  0.0375 -0.0329
  129OSM   H17F13902   0.688   0.168   8.273  1.5342 -1.6026 -1.4064
  129OSM   H17G13903   0.687  -0.012   8.278 -1.7615  1.2718 -5.1460
  129OSM   C18F13904   0.678   0.087   8.467  0.2484 -0.0240  0.9011
  129OSM   H18F13905   0.644  -0.002   8.525  0.0749 -0.0251  0.7978
  129OSM   H18G13906   0.634   0.178   8.514 -0.7122  0.5517 -1.0552
  129OSM   H18H13907   0.789   0.096   8.471  0.0734  3.9868 -1.2838
  130OSM      N13908   1.512   4.617   6.131 -0.5960  0.1441  0.2564
  130OSM    C1513909   1.503   4.497   6.041  0.2559  0.1636 -1.2646
  130OSM   H15A13910   1.515   4.529   5.938  1.5812 -1.2788 -1.5740
  130OSM   H15B13911   1.410   4.448   6.064 -0.2791  2.0086  0.5553
  130OSM   H15C13912   1.577   4.423   6.067  0.2864  1.0472  1.3119
  130OSM    C1413913   1.648   4.682   6.123 -0.0027  0.3769 -0.1490
  130OSM   H14A13914   1.722   4.611   6.159 -0.8776  0.7843  2.6203
  130OSM   H14B13915   1.656   4.768   6.188  0.7583  0.8799 -0.9034
  130OSM   H14C13916   1.667   4.716   6.023 -2.1345  0.3067 -0.5957
  130OSM    C1313917   1.403   4.724   6.089  0.3495 -0.4696  0.8268
  130OSM   H13A13918   1.399   4.735   5.982  0.2945  1.7451  1.0283
  130OSM   H13B13919   1.413   4.807   6.158 -1.6555 -0.2741  0.8936
  130OSM   H13C13920   1.305   4.686   6.111  0.7046 -2.0788 -0.2635
  130OSM    C1213921   1.489   4.571   6.268  0.3565  0.1951  0.5922
  130OSM   H12A13922   1.390   4.528   6.270  0.2606  0.4344  1.0825
  130OSM   H12B13923   1.485   4.650   6.341 -2.1681  1.5423 -0.9085
  130OSM    C1113924   1.573   4.449   6.335  0.1197  0.0146 -0.1150
  130OSM   H11A13925   1.549   4.439   6.443 -1.5228 -0.2727 -0.4910
  130OSM   H11B13926   1.677   4.484   6.319 -0.1572  1.4952  1.2055
  130OSM      P13927   1.428   4.236   6.293  0.1652  0.1652 -0.1159
  130OSM    O1313928   1.340   4.281   6.179 -0.0041  0.1350  0.1854
  130OSM    O1413929   1.458   4.090   6.304  0.0703  0.4843  0.1055
  130OSM    O1113930   1.367   4.280   6.430 -0.1614 -0.9561  0.0733
  130OSM    O1213931   1.559   4.319   6.278 -0.0327  0.3566 -1.0208
  130OSM    C1S13932   1.226   4.277   6.459 -0.2266  0.0398  0.7930
  130OSM    H1S13933   1.174   4.193   6.408  0.6099 -0.1298  0.2147
  130OSM    H1T13934   1.177   4.370   6.422 -2.1332  0.0659  3.2043
  130OSM     NF13935   1.051   4.221   6.615 -0.4843  0.5137  0.1192
  130OSM    HNF13936   0.987   4.292   6.642  0.3653 -0.0518  3.8074
  130OSM    C2S13937   1.195   4.261   6.608 -0.9817  0.3613 -0.0390
  130OSM    H2S13938   1.251   4.174   6.648  0.7948  0.8546 -1.3894
  130OSM    C3S13939   1.234   4.389   6.692  0.3014  0.2471 -0.5566
  130OSM    H3S13940   1.174   4.478   6.663 -1.0169  0.8306  3.6310
  130OSM     O313941   1.370   4.435   6.678 -0.1162 -0.8824  0.2860
  130OSM    HO313942   1.414   4.369   6.624  1.0134  0.3426 -0.3345
  130OSM    C4S13943   1.200   4.358   6.837  0.4863 -0.0357 -0.0612
  130OSM    H4S13944   1.098   4.386   6.866  1.2551  2.5967  0.2189
  130OSM    C5S13945   1.272   4.325   6.942  0.2459  0.1542 -0.8968
  130OSM    H5S13946   1.381   4.325   6.932  0.2548 -1.4776 -0.8741
  130OSM    C6S13947   1.210   4.300   7.077  0.0677 -0.0838 -0.4476
  130OSM    H6S13948   1.214   4.190   7.093  1.0303  0.3498  2.6039
  130OSM    H6T13949   1.105   4.334   7.069  0.4036  0.7875 -1.3118
  130OSM    C7S13950   1.263   4.378   7.196 -0.7984  0.1972 -0.3180
  130OSM    H7S13951   1.223   4.481   7.191 -0.3280  0.5873  2.6354
  130OSM    H7T13952   1.374   4.379   7.189 -0.7019 -0.3281  0.8734
  130OSM    C8S13953   1.230   4.307   7.326 -0.2772  0.0824 -1.1158
  130OSM    H8S13954   1.245   4.198   7.313  0.2662  0.3519 -2.9240
  130OSM    H8T13955   1.120   4.306   7.334  0.0064 -0.9130  4.3269
  130OSM    C9S13956   1.295   4.354   7.451  0.1072  0.0138 -0.1809
  130OSM    H9S13957   1.273   4.462   7.459  1.7048  0.2092  1.7813
  130OSM    H9T13958   1.404   4.335   7.453  0.5688  2.2811 -1.6282
  130OSM   C10S13959   1.241   4.280   7.572 -0.8500  0.8614 -0.0655
  130OSM   H10S13960   1.298   4.185   7.579 -1.5472  0.2109 -2.6841
  130OSM   H10T13961   1.134   4.253   7.570 -1.2725  2.4490  0.0728
  130OSM   C11S13962   1.272   4.360   7.694 -0.3040  0.5305  0.6593
  130OSM   H11S13963   1.213   4.454   7.695 -2.6756 -0.8458 -1.5182
  130OSM   H11T13964   1.379   4.390   7.696  0.0649 -0.6549 -0.2186
  130OSM   C12S13965   1.257   4.286   7.834 -0.4625  0.8637 -0.5177
  130OSM   H12S13966   1.333   4.206   7.839 -0.3540  0.9429 -0.8453
  130OSM   H12T13967   1.156   4.246   7.854 -0.1305  0.5723  0.6012
  130OSM   C13S13968   1.294   4.384   7.948  0.0122  0.6046  1.0651
  130OSM   H13S13969   1.222   4.467   7.960  0.2854  0.9658  0.2846
  130OSM   H13T13970   1.393   4.423   7.913 -0.7523  0.0692 -1.8561
  130OSM   C14S13971   1.319   4.308   8.079 -0.0938  0.3106 -0.1482
  130OSM   H14S13972   1.411   4.246   8.073  1.2802  2.3248 -0.5965
  130OSM   H14T13973   1.238   4.235   8.099  0.1155  0.1413  0.0793
  130OSM   C15S13974   1.341   4.402   8.198  0.6018  0.4312 -0.2137
  130OSM   H15S13975   1.359   4.508   8.170  0.0146  1.3388  2.6589
  130OSM   H15T13976   1.439   4.375   8.243  0.6220 -0.2356 -0.6541
  130OSM   C16S13977   1.230   4.414   8.298  0.8006  0.4226 -0.5688
  130OSM   H16S13978   1.217   4.326   8.364 -0.0540  0.7381 -0.3158
  130OSM   H16T13979   1.138   4.420   8.237  0.1563  0.0978  0.3603
  130OSM   C17S13980   1.252   4.528   8.395  0.7532  0.3451 -0.1688
  130OSM   H17S13981   1.168   4.542   8.466  0.8158 -2.2144  0.4835
  130OSM   H17T13982   1.262   4.613   8.324  2.4566 -0.5453 -1.0394
  130OSM   C18S13983   1.384   4.530   8.468  0.0434 -0.5083  0.4492
  130OSM   H18S13984   1.378   4.451   8.546 -3.2884  0.9983  1.8277
  130OSM   H18T13985   1.386   4.622   8.530 -0.1955  0.2922 -0.7260
  130OSM   H18U13986   1.468   4.518   8.397 -1.2051 -2.3789 -0.7707
  130OSM    C1F13987   1.010   4.099   6.588 -0.9207 -0.0183  0.2054
  130OSM     OF13988   1.088   4.008   6.549  0.4464  0.4025  0.2948
  130OSM    C2F13989   0.863   4.077   6.598 -0.1463  0.2016  0.4109
  130OSM    H2F13990   0.844   3.982   6.545  0.3739  1.4265 -2.0410
  130OSM    H2G13991   0.802   4.148   6.538 -0.2159  0.2060  0.4874
  130OSM    C3F13992   0.819   4.077   6.744  0.6093  0.2866 -0.7068
  130OSM    H3F13993   0.835   4.179   6.785 -1.0073 -0.0086  0.7054
  130OSM    H3G13994   0.875   4.001   6.803  1.4439 -0.3641 -2.2869
  130OSM    C4F13995   0.666   4.049   6.764 -0.6770 -0.1492 -0.0611
  130OSM    H4F13996   0.657   3.938   6.765 -0.7465 -0.1681 -1.5646
  130OSM    H4G13997   0.612   4.099   6.681 -0.7505  0.5124  0.3802
  130OSM    C5F13998   0.602   4.093   6.890  0.1107  0.0724 -0.0679
  130OSM    H5F13999   0.492   4.075   6.889  0.3228 -1.2258 -1.0863
  130OSM    H5G14000   0.622   4.202   6.890  0.9388 -0.0500 -1.9949
  130OSM    C6F14001   0.660   4.009   7.008 -0.6796 -0.3715 -0.0251
  130OSM    H6F14002   0.768   4.031   7.021 -0.8489 -0.4041  1.4914
  130OSM    H6G14003   0.644   3.902   6.981 -2.4798  0.3589 -2.0448
  130OSM    C7F14004   0.596   4.039   7.151 -0.1833 -0.1361  0.5551
  130OSM    H7F14005   0.652   3.988   7.233 -0.2352  1.0551  1.3564
  130OSM    H7G14006   0.491   4.006   7.136 -0.3543  1.4759 -2.1012
  130OSM    C8F14007   0.582   4.185   7.189  0.2472  0.6090 -0.6179
  130OSM    H8F14008   0.540   4.175   7.291  0.6063  0.1635 -0.5166
  130OSM    H8G14009   0.508   4.247   7.132 -1.8307 -1.5661 -0.3683
  130OSM    C9F14010   0.717   4.256   7.181 -0.0853  0.0838 -0.1200
  130OSM    H9F14011   0.759   4.277   7.081  0.9361  2.4882  0.7639
  130OSM   C10F14012   0.797   4.298   7.281 -0.1976 -0.2463 -0.1222
  130OSM   H10F14013   0.892   4.350   7.262 -0.6154  0.9939  0.9962
  130OSM   C11F14014   0.751   4.287   7.423 -0.0658  0.3949 -0.2392
  130OSM   H11F14015   0.772   4.185   7.461 -0.6596  0.7363  1.0220
  130OSM   H11G14016   0.645   4.311   7.445  0.0308  1.1039 -0.5454
  130OSM   C12F14017   0.830   4.387   7.510  0.2335  0.6140  0.7957
  130OSM   H12F14018   0.814   4.491   7.476 -0.1176  0.2627 -0.1477
  130OSM   H12G14019   0.937   4.361   7.502  0.1658  0.2734  0.9889
  130OSM   C13F14020   0.783   4.365   7.650 -0.2410 -1.0918 -0.3678
  130OSM   H13F14021   0.776   4.257   7.672 -0.0056 -1.2097 -0.8434
  130OSM   H13G14022   0.689   4.420   7.671 -0.1021 -1.4658  1.2713
  130OSM   C14F14023   0.889   4.398   7.753 -0.2056 -0.3673 -0.2884
  130OSM   H14F14024   0.915   4.505   7.769 -1.5261 -0.1522  0.5022
  130OSM   H14G14025   0.984   4.344   7.735 -0.0640 -0.9591  2.0863
  130OSM   C15F14026   0.839   4.345   7.890  0.5449  0.5307 -0.2026
  130OSM   H15F14027   0.826   4.236   7.872 -2.3005  0.7273  0.5477
  130OSM   H15G14028   0.738   4.383   7.915  0.7480  2.2472 -1.8328
  130OSM   C16F14029   0.929   4.361   8.013 -0.1427  0.7565 -0.6005
  130OSM   H16F14030   0.914   4.462   8.057  1.5715  0.9888 -0.5325
  130OSM   H16G14031   1.038   4.349   7.997 -0.2912  0.2143 -1.2189
  130OSM   C17F14032   0.874   4.272   8.123 -0.1739 -0.2087  0.3408
  130OSM   H17F14033   0.764   4.271   8.108 -0.3908 -1.3565  1.9436
  130OSM   H17G14034   0.902   4.310   8.223 -2.8977  0.2187  0.9900
  130OSM   C18F14035   0.917   4.128   8.116  0.0385  0.2293  0.1620
  130OSM   H18F14036   0.870   4.065   8.194 -1.5195  0.6533 -0.4157
  130OSM   H18G14037   1.026   4.108   8.129 -0.3408 -0.8704  1.8696
  130OSM   H18H14038   0.877   4.082   8.023 -1.3666 -0.3398  1.0223
  131OSM      N14039   1.543   2.509   6.136  0.5932  0.2741  0.2309
  131OSM    C1514040   1.659   2.587   6.072  0.0654 -0.2862 -0.3408
  131OSM   H15A14041   1.624   2.680   6.030  1.3177  0.6717  0.7122
  131OSM   H15B14042   1.720   2.529   6.005  0.0246 -2.5877  1.5436
  131OSM   H15C14043   1.731   2.615   6.147  0.7336 -1.0684 -0.6768
  131OSM    C1414044   1.458   2.613   6.202 -0.2636  0.3019 -0.2782
  131OSM   H14A14045   1.404   2.672   6.130 -1.8900  1.4423  1.7938
  131OSM   H14B14046   1.526   2.683   6.248 -1.3356  1.5140 -0.5048
  131OSM   H14C14047   1.383   2.564   6.264 -0.3461 -1.5771 -1.8130
  131OSM    C1314048   1.454   2.448   6.029 -0.1870  0.7740 -0.0372
  131OSM   H13A14049   1.355   2.426   6.065 -0.0760  1.1504  0.5101
  131OSM   H13B14050   1.500   2.358   5.993 -1.4050 -0.4400  1.3796
  131OSM   H13C14051   1.440   2.519   5.949 -0.3309  0.2798 -0.4497
  131OSM    C1214052   1.598   2.403   6.231 -0.6847 -0.3860 -0.8034
  131OSM   H12A14053   1.518   2.356   6.286  0.8126 -0.6750  1.1869
  131OSM   H12B14054   1.652   2.451   6.312 -2.2807 -0.2240  0.1752
  131OSM    C1114055   1.681   2.292   6.162 -0.1387  0.1531 -0.3450
  131OSM   H11A14056   1.739   2.252   6.248 -0.2188  0.9259  0.0749
  131OSM   H11B14057   1.748   2.351   6.096 -1.0589  1.6692  0.0528
  131OSM      P14058   1.495   2.106   6.161 -0.5303  0.1097  0.2463
  131OSM    O1314059   1.372   2.106   6.080  0.1147 -0.1501  0.0061
  131OSM    O1414060   1.550   1.967   6.180 -0.0299  0.2892 -0.3487
  131OSM    O1114061   1.472   2.161   6.304 -0.8604  0.4182 -0.1959
  131OSM    O1214062   1.608   2.195   6.087 -0.0496 -0.6751  0.2263
  131OSM    C1S14063   1.504   2.098   6.430  0.0286 -0.6714  0.0802
  131OSM    H1S14064   1.601   2.145   6.459 -0.1650  0.2765 -0.7638
  131OSM    H1T14065   1.527   1.990   6.417 -0.2597 -0.6082 -0.9857
  131OSM     NF14066   1.466   2.042   6.653 -0.3047 -0.2997  0.0642
  131OSM    HNF14067   1.440   1.948   6.675 -0.8114 -0.2537 -0.3356
  131OSM    C2S14068   1.402   2.108   6.539 -0.2630  0.1906 -0.2163
  131OSM    H2S14069   1.377   2.211   6.575 -2.6635 -0.6971  0.7989
  131OSM    C3S14070   1.269   2.043   6.492 -0.3331 -0.2773 -0.6648
  131OSM    H3S14071   1.283   1.939   6.458  0.3455 -1.0651  1.8782
  131OSM     O314072   1.218   2.104   6.374  0.0540 -0.1395  0.5130
  131OSM    HO314073   1.290   2.153   6.334  0.3848  0.7926  2.1934
  131OSM    C4S14074   1.173   2.059   6.608  0.3828 -0.1219 -0.5622
  131OSM    H4S14075   1.138   2.163   6.619  1.3077  0.1137  0.1861
  131OSM    C5S14076   1.121   1.962   6.692 -0.6428 -0.0862 -0.5092
  131OSM    H5S14077   1.149   1.856   6.688 -0.1359 -0.0320  1.0724
  131OSM    C6S14078   1.018   1.992   6.808 -0.0910  0.1699 -0.4053
  131OSM    H6S14079   0.941   1.911   6.801 -0.3166  0.5337 -2.2090
  131OSM    H6T14080   0.962   2.087   6.795 -3.3667 -1.5219  0.7591
  131OSM    C7S14081   1.082   1.986   6.936  0.0056 -0.3734 -0.3576
  131OSM    H7S14082   0.999   1.960   7.006 -0.4801 -0.4310 -0.9519
  131OSM    H7T14083   1.121   2.088   6.957  0.8251 -0.8301  0.3716
  131OSM    C8S14084   1.194   1.881   6.945 -0.4673 -0.5731  0.3265
  131OSM    H8S14085   1.282   1.924   6.891 -1.6801  0.0713 -1.1872
  131OSM    H8T14086   1.168   1.778   6.912  1.7188 -1.1326  0.2992
  131OSM    C9S14087   1.243   1.876   7.096  0.9172  0.1311  0.1595
  131OSM    H9S14088   1.266   1.981   7.126 -0.7098  0.2138  1.1780
  131OSM    H9T14089   1.335   1.814   7.089  0.0292 -0.9528 -2.7794
  131OSM   C10S14090   1.151   1.810   7.198 -0.3048  0.0475  0.4741
  131OSM   H10S14091   1.132   1.703   7.175  1.4769 -0.7845  2.6273
  131OSM   H10T14092   1.054   1.864   7.199  0.2690  1.0740  1.1676
  131OSM   C11S14093   1.187   1.815   7.354 -0.6017 -0.5514  0.1529
  131OSM   H11S14094   1.278   1.753   7.369  0.0792  0.1603 -0.9642
  131OSM   H11T14095   1.103   1.767   7.408 -2.2540  2.0688  0.0069
  131OSM   C12S14096   1.217   1.957   7.405 -0.0911  0.9563  0.3267
  131OSM   H12S14097   1.143   2.031   7.367  0.0167  0.4654 -0.8723
  131OSM   H12T14098   1.316   1.990   7.366 -0.3680  1.5804  0.1407
  131OSM   C13S14099   1.235   1.962   7.558 -0.0849 -0.5710 -0.6236
  131OSM   H13S14100   1.335   1.913   7.565 -0.3142 -1.5834 -3.8091
  131OSM   H13T14101   1.155   1.908   7.613  0.7823 -0.6408  0.5949
  131OSM   C14S14102   1.232   2.101   7.621  0.2463  0.5371  0.1934
  131OSM   H14S14103   1.131   2.145   7.637  0.9020  2.2183 -0.2076
  131OSM   H14T14104   1.295   2.160   7.552  0.8362  0.6104  0.7958
  131OSM   C15S14105   1.307   2.120   7.754 -0.6421  0.1769 -0.1546
  131OSM   H15S14106   1.340   2.226   7.749  2.8575 -0.9615 -3.3722
  131OSM   H15T14107   1.393   2.051   7.760 -0.9989 -0.3938 -1.3786
  131OSM   C16S14108   1.229   2.089   7.882  0.3499  0.2014 -0.3935
  131OSM   H16S14109   1.201   1.982   7.872  1.1633  0.0664 -1.2439
  131OSM   H16T14110   1.136   2.149   7.895  0.1906  0.0254 -0.7209
  131OSM   C17S14111   1.305   2.101   8.008 -0.2587  0.5603  0.5308
  131OSM   H17S14112   1.360   2.194   7.981 -0.2653  0.9880  1.9495
  131OSM   H17T14113   1.388   2.029   8.024 -1.6610 -1.7065 -2.0853
  131OSM   C18S14114   1.216   2.107   8.132 -0.1303  0.2047  1.0503
  131OSM   H18S14115   1.162   2.205   8.130 -0.2911  0.1018  0.1140
  131OSM   H18T14116   1.283   2.093   8.219  2.1322  2.7832 -0.1668
  131OSM   H18U14117   1.136   2.031   8.141 -1.4958  1.8477  3.4156
  131OSM    C1F14118   1.548   2.108   6.738  0.0693 -0.2205 -0.3489
  131OSM     OF14119   1.590   2.222   6.717 -0.0332 -0.5222  0.6451
  131OSM    C2F14120   1.579   2.024   6.863 -0.3810  0.6094 -0.3973
  131OSM    H2F14121   1.609   1.927   6.818 -2.0229  1.2427 -2.9588
  131OSM    H2G14122   1.486   2.002   6.919  0.4093  1.5513  1.3363
  131OSM    C3F14123   1.691   2.075   6.954  0.4301 -0.7486  0.2798
  131OSM    H3F14124   1.655   2.155   7.022  1.7233  0.0965 -0.0182
  131OSM    H3G14125   1.776   2.109   6.891 -0.4917  0.4771 -0.3317
  131OSM    C4F14126   1.750   1.963   7.046 -1.4147 -0.4152 -0.2373
  131OSM    H4F14127   1.821   2.005   7.121 -0.6574 -0.4542 -0.9262
  131OSM    H4G14128   1.820   1.899   6.988  0.7978  1.5790  0.1633
  131OSM    C5F14129   1.639   1.875   7.108 -0.1534 -0.3233 -0.5247
  131OSM    H5F14130   1.616   1.786   7.046 -1.8365 -0.1638 -0.1764
  131OSM    H5G14131   1.548   1.931   7.141 -1.4028 -1.9597 -1.1399
  131OSM    C6F14132   1.686   1.822   7.239 -0.1837 -0.0370  0.1716
  131OSM    H6F14133   1.700   1.904   7.313 -1.2354  0.7391 -0.4665
  131OSM    H6G14134   1.779   1.763   7.226  1.9439  3.3961 -0.8327
  131OSM    C7F14135   1.574   1.732   7.293  0.4524  0.3136 -0.2564
  131OSM    H7F14136   1.542   1.667   7.209 -0.4617  0.9799 -0.4292
  131OSM    H7G14137   1.481   1.791   7.306  0.5753  0.2689  0.9237
  131OSM    C8F14138   1.597   1.664   7.426  0.5420 -0.8848 -0.8267
  131OSM    H8F14139   1.611   1.748   7.497  1.4433 -0.0587 -1.9683
  131OSM    H8G14140   1.694   1.608   7.425  0.4541 -1.0311 -1.2557
  131OSM    C9F14141   1.482   1.573   7.467  0.4618  0.1499 -0.3501
  131OSM    H9F14142   1.452   1.503   7.388  1.4651 -0.7478  0.0554
  131OSM   C10F14143   1.418   1.573   7.588  0.2627  0.2441  0.1791
  131OSM   H10F14144   1.338   1.500   7.606 -0.4749  0.9498 -0.2104
  131OSM   C11F14145   1.448   1.666   7.707  0.2854  1.0724  0.5791
  131OSM   H11F14146   1.365   1.721   7.755 -0.5284  1.4454 -1.1999
  131OSM   H11G14147   1.519   1.745   7.674  1.4472 -0.0041  0.4460
  131OSM   C12F14148   1.526   1.598   7.822  0.1812  0.1698  0.2842
  131OSM   H12F14149   1.620   1.562   7.774  1.5297 -0.6595  3.4374
  131OSM   H12G14150   1.460   1.514   7.853 -3.2248  0.6994 -4.8745
  131OSM   C13F14151   1.563   1.695   7.941  0.7353  0.7380 -0.1282
  131OSM   H13F14152   1.625   1.777   7.899  1.0875  0.6313  0.1817
  131OSM   H13G14153   1.629   1.626   7.998 -0.1343 -0.3742 -0.4444
  131OSM   C14F14154   1.438   1.747   8.010  0.0572  0.2337 -0.3900
  131OSM   H14F14155   1.361   1.667   8.008  0.3016 -0.0551  0.9414
  131OSM   H14G14156   1.397   1.827   7.944 -0.8927 -0.7955 -1.0543
  131OSM   C15F14157   1.456   1.797   8.149 -0.4385  0.1284  0.5410
  131OSM   H15F14158   1.359   1.843   8.180 -0.1453  1.1677 -0.0657
  131OSM   H15G14159   1.532   1.878   8.149  2.1870 -2.2498 -0.1525
  131OSM   C16F14160   1.492   1.685   8.239  0.2200 -0.1699 -0.2803
  131OSM   H16F14161   1.598   1.656   8.224  0.9780  1.1885  2.1597
  131OSM   H16G14162   1.424   1.598   8.223  1.6859 -1.2099 -0.9341
  131OSM   C17F14163   1.470   1.728   8.384  0.8908 -0.3928 -0.1943
  131OSM   H17F14164   1.369   1.774   8.384  0.2187 -1.8602  0.7909
  131OSM   H17G14165   1.546   1.808   8.401  0.9964 -0.4556 -0.3692
  131OSM   C18F14166   1.479   1.614   8.485 -0.2780  0.2567 -0.1285
  131OSM   H18F14167   1.576   1.562   8.468 -0.2211  0.1644  0.4470
  131OSM   H18G14168   1.389   1.550   8.474  0.4684 -0.8488  0.1182
  131OSM   H18H14169   1.473   1.659   8.587  4.5024 -0.6631  0.7233
  132OSM      N14170   4.029   6.498   6.209 -0.5220  0.2361 -0.2594
  132OSM    C1514171   4.153   6.490   6.130 -0.4313 -0.7787  0.3761
  132OSM   H15A14172   4.152   6.574   6.062 -1.9862 -2.3230 -1.5683
  132OSM   H15B14173   4.173   6.405   6.067  1.3654 -0.5309  0.5783
  132OSM   H15C14174   4.244   6.496   6.189  0.1017 -1.0864 -0.3953
  132OSM    C1414175   4.041   6.626   6.291 -0.2836  0.3507  0.6990
  132OSM   H14A14176   4.070   6.706   6.224 -1.4331 -0.1939 -0.4714
  132OSM   H14B14177   4.127   6.607   6.354  1.3444 -1.4687 -1.9358
  132OSM   H14C14178   3.947   6.640   6.341 -1.2648 -3.2584  0.0308
  132OSM    C1314179   3.919   6.495   6.101 -0.4676 -1.4610 -0.7517
  132OSM   H13A14180   3.947   6.415   6.034  1.0594 -1.5492 -0.0351
  132OSM   H13B14181   3.926   6.588   6.046  1.4049 -1.4198 -0.4745
  132OSM   H13C14182   3.821   6.471   6.140 -0.6731  1.8229  0.8830
  132OSM    C1214183   4.010   6.381   6.297 -0.3768 -0.4715  0.1842
  132OSM   H12A14184   4.105   6.349   6.337 -0.6285  0.6616  1.7256
  132OSM   H12B14185   3.981   6.290   6.246  2.6996 -1.4415  0.0689
  132OSM    C1114186   3.903   6.399   6.401  0.1957  0.2705 -0.2246
  132OSM   H11A14187   3.926   6.476   6.478  0.0947  2.5813 -2.4068
  132OSM   H11B14188   3.906   6.302   6.454 -0.2155 -0.4628 -1.5089
  132OSM      P14189   3.686   6.306   6.307 -0.0349 -0.1541 -0.2156
  132OSM    O1314190   3.573   6.344   6.217  0.5821 -0.0639 -0.0199
  132OSM    O1414191   3.777   6.200   6.258 -0.2630  0.2338  0.3189
  132OSM    O1114192   3.638   6.266   6.453  0.1528  0.1717  0.4759
  132OSM    O1214193   3.772   6.436   6.346 -0.5818 -0.1432  0.1784
  132OSM    C1S14194   3.623   6.130   6.508  0.0560 -1.0100  0.4009
  132OSM    H1S14195   3.719   6.075   6.502  1.0200  0.5225  1.5570
  132OSM    H1T14196   3.540   6.076   6.458  0.3417 -0.1767 -1.0005
  132OSM     NF14197   3.575   6.017   6.720 -0.3371  0.2631  0.3894
  132OSM    HNF14198   3.494   5.960   6.726 -0.7947  0.7750 -0.7533
  132OSM    C2S14199   3.558   6.139   6.647 -0.4163  0.3266 -0.0149
  132OSM    H2S14200   3.608   6.221   6.703 -2.1383  2.1181 -1.0372
  132OSM    C3S14201   3.410   6.190   6.639 -0.2848  0.0910  0.5446
  132OSM    H3S14202   3.351   6.132   6.564  1.9689  0.3254 -1.4884
  132OSM     O314203   3.393   6.322   6.584 -0.3536  0.1208  0.0845
  132OSM    HO314204   3.469   6.327   6.525 -0.6371  1.3467 -0.1978
  132OSM    C4S14205   3.341   6.186   6.779  0.4516 -0.3090 -0.2267
  132OSM    H4S14206   3.265   6.107   6.787  1.6124 -1.4711 -0.5598
  132OSM    C5S14207   3.356   6.269   6.886 -1.0554  0.5170  0.5155
  132OSM    H5S14208   3.416   6.360   6.870  0.6839 -0.3553  1.8880
  132OSM    C6S14209   3.300   6.263   7.023  0.3921  0.4333 -0.0154
  132OSM    H6S14210   3.190   6.260   7.014  0.2331  0.9026  1.6771
  132OSM    H6T14211   3.321   6.361   7.070  0.3447 -0.1165  1.1680
  132OSM    C7S14212   3.350   6.152   7.116  0.3954  0.1100  0.4213
  132OSM    H7S14213   3.461   6.161   7.110  0.1664  2.8764 -0.1940
  132OSM    H7T14214   3.316   6.049   7.090 -0.7437  0.9430 -1.5309
  132OSM    C8S14215   3.304   6.182   7.261  0.3781 -0.5595 -0.0919
  132OSM    H8S14216   3.193   6.187   7.262  0.3520 -0.5834 -1.5360
  132OSM    H8T14217   3.357   6.275   7.291  2.3994 -1.9622  0.7879
  132OSM    C9S14218   3.348   6.073   7.356  0.0629  0.6260  0.3333
  132OSM    H9S14219   3.459   6.071   7.352  0.1078  1.7674  0.6602
  132OSM    H9T14220   3.316   5.973   7.322 -0.6470  0.6875  0.8027
  132OSM   C10S14221   3.309   6.106   7.498  0.3900 -0.3138 -0.7400
  132OSM   H10S14222   3.203   6.138   7.506  0.3795 -0.1021 -1.6650
  132OSM   H10T14223   3.374   6.195   7.516 -1.9012  1.5245 -1.3295
  132OSM   C11S14224   3.328   5.998   7.600 -0.3334  0.1487 -0.5719
  132OSM   H11S14225   3.436   5.978   7.615  0.0055 -0.0274 -3.0081
  132OSM   H11T14226   3.274   5.912   7.556 -2.5012  2.5143 -2.6811
  132OSM   C12S14227   3.270   6.036   7.735  0.3033  0.2695 -0.3962
  132OSM   H12S14228   3.162   6.057   7.724  0.2044 -0.7178 -1.3977
  132OSM   H12T14229   3.321   6.126   7.778  2.2857 -0.9492 -0.1469
  132OSM   C13S14230   3.293   5.922   7.838 -0.6377 -0.2315  0.4775
  132OSM   H13S14231   3.400   5.916   7.867 -0.5137  2.7302  0.7479
  132OSM   H13T14232   3.273   5.821   7.795  1.0206 -0.3327 -0.0864
  132OSM   C14S14233   3.206   5.935   7.959  0.2562  0.3843 -0.3191
  132OSM   H14S14234   3.105   5.899   7.929  0.5652  0.1090 -1.0402
  132OSM   H14T14235   3.211   6.034   8.008 -1.0471  0.7663 -0.9272
  132OSM   C15S14236   3.258   5.823   8.063 -0.1184  0.5206 -0.3446
  132OSM   H15S14237   3.353   5.854   8.112 -0.8131  0.7848  0.8585
  132OSM   H15T14238   3.270   5.723   8.016 -1.4809 -0.8115  2.0033
  132OSM   C16S14239   3.140   5.778   8.164 -0.4654 -0.0447 -0.0087
  132OSM   H16S14240   3.041   5.751   8.121 -1.6943  1.4028  1.8361
  132OSM   H16T14241   3.111   5.867   8.224  0.9685  0.1463  0.4112
  132OSM   C17S14242   3.182   5.674   8.267  0.0689  0.0469  0.4095
  132OSM   H17S14243   3.270   5.705   8.327  1.3951 -0.5258 -1.1917
  132OSM   H17T14244   3.209   5.576   8.222  1.2298  0.1338  0.8871
  132OSM   C18S14245   3.067   5.642   8.357 -0.0101  0.0952  0.5858
  132OSM   H18S14246   2.983   5.596   8.300  0.5435  1.0701 -1.0390
  132OSM   H18T14247   3.021   5.731   8.405 -1.8809 -0.0710 -0.8052
  132OSM   H18U14248   3.106   5.567   8.429  0.5795 -0.4388 -0.2785
  132OSM    C1F14249   3.695   5.977   6.761  0.6974  0.9155 -0.0604
  132OSM     OF14250   3.800   6.029   6.730  0.6171  0.5243  0.6438
  132OSM    C2F14251   3.686   5.853   6.842  0.2880  0.7097  0.2259
  132OSM    H2F14252   3.605   5.789   6.802 -0.9777  1.9777  0.7074
  132OSM    H2G14253   3.663   5.872   6.949 -0.2307 -0.6783  0.3681
  132OSM    C3F14254   3.813   5.779   6.848  0.1530 -0.1134 -0.5716
  132OSM    H3F14255   3.894   5.838   6.896  0.1097  0.2084 -0.8891
  132OSM    H3G14256   3.848   5.753   6.746  0.3537 -1.0781 -0.2674
  132OSM    C4F14257   3.801   5.642   6.915 -0.2452 -0.6159 -0.1466
  132OSM    H4F14258   3.844   5.569   6.844  1.2208 -0.1498  0.2424
  132OSM    H4G14259   3.694   5.614   6.926  0.3267 -2.2762  1.1969
  132OSM    C5F14260   3.877   5.637   7.050  0.3343 -0.3673  0.4067
  132OSM    H5F14261   3.843   5.718   7.118  0.7577 -0.2745  0.5071
  132OSM    H5G14262   3.984   5.655   7.029  0.5274 -0.2907  1.4466
  132OSM    C6F14263   3.848   5.504   7.115 -0.6462 -0.5174 -0.5477
  132OSM    H6F14264   3.870   5.422   7.044 -3.3707 -1.1407 -0.7120
  132OSM    H6G14265   3.741   5.504   7.146  0.1538 -0.8971  2.3662
  132OSM    C7F14266   3.945   5.470   7.238  0.6481 -0.3796 -0.2882
  132OSM    H7F14267   3.925   5.540   7.322 -2.8507 -2.6675  0.8855
  132OSM    H7G14268   4.045   5.489   7.193  0.6010 -0.5708 -0.4693
  132OSM    C8F14269   3.915   5.325   7.285  0.1335 -0.0579  0.6996
  132OSM    H8F14270   3.926   5.253   7.201  0.2588  1.1380 -0.3239
  132OSM    H8G14271   3.814   5.342   7.327  0.2657 -1.2580  1.5197
  132OSM    C9F14272   4.013   5.302   7.401 -0.2920  0.5596 -0.0177
  132OSM    H9F14273   4.117   5.317   7.369 -0.4243 -0.5956 -1.0228
  132OSM   C10F14274   3.986   5.295   7.533 -0.0744 -0.4257  0.1857
  132OSM   H10F14275   4.074   5.274   7.595 -0.3894 -0.0797  0.7535
  132OSM   C11F14276   3.850   5.284   7.590 -0.0853  0.0659 -0.0874
  132OSM   H11F14277   3.785   5.241   7.510 -0.1616  0.1554 -0.0725
  132OSM   H11G14278   3.803   5.382   7.610  1.6397  1.0057 -0.5203
  132OSM   C12F14279   3.830   5.185   7.702  0.5681  0.0782  0.1410
  132OSM   H12F14280   3.850   5.081   7.669  0.5971  0.2255 -0.3051
  132OSM   H12G14281   3.722   5.183   7.730  0.5848  0.2384  0.2156
  132OSM   C13F14282   3.905   5.233   7.829  0.2143 -0.2302 -0.2825
  132OSM   H13F14283   3.850   5.326   7.855 -0.8970 -1.1393  0.6814
  132OSM   H13G14284   4.013   5.251   7.807  0.3874 -2.0502 -1.0307
  132OSM   C14F14285   3.892   5.154   7.961 -0.1901 -0.5472 -0.0269
  132OSM   H14F14286   3.955   5.207   8.035  3.0728 -0.8289 -2.5137
  132OSM   H14G14287   3.929   5.050   7.949 -0.1994 -0.4965 -0.4845
  132OSM   C15F14288   3.751   5.152   8.016  0.1850 -0.1548  0.2095
  132OSM   H15F14289   3.685   5.132   7.928  1.3179 -0.1372 -0.6647
  132OSM   H15G14290   3.726   5.248   8.065  1.1985 -1.2129  2.8818
  132OSM   C16F14291   3.731   5.042   8.117  0.2053 -0.4486  0.6771
  132OSM   H16F14292   3.763   4.943   8.076 -2.4307 -0.9079 -0.3588
  132OSM   H16G14293   3.624   5.035   8.147  1.1888 -0.2255  4.3445
  132OSM   C17F14294   3.804   5.061   8.246  0.4306  0.0490 -0.4959
  132OSM   H17F14295   3.791   5.160   8.293  1.2895 -0.5442  1.0383
  132OSM   H17G14296   3.911   5.060   8.218  0.3834  0.6022 -0.6959
  132OSM   C18F14297   3.785   4.954   8.347 -0.3919  0.3202 -0.2325
  132OSM   H18F14298   3.804   4.853   8.304 -0.3776 -0.5029  1.6572
  132OSM   H18G14299   3.682   4.956   8.388 -0.3319 -1.6232  0.0555
  132OSM   H18H14300   3.861   4.958   8.428  0.7788  0.0289 -1.2949
  133SAPE     N14301   5.106   4.487  10.842 -0.0839 -0.1514  0.1957
  133SAPE   HN114302   5.128   4.416  10.769 -0.5626 -0.0173 -0.0786
  133SAPE   HN214303   5.047   4.442  10.915 -0.9548  0.3724 -0.1806
  133SAPE   HN314304   5.058   4.562  10.788 -1.2160  0.3428  1.8565
  133SAPE   C1214305   5.233   4.526  10.892 -0.1919 -0.0159  0.1899
  133SAPE  H12A14306   5.276   4.442  10.951  0.1331  1.3189  1.9038
  133SAPE  H12B14307   5.206   4.606  10.965  0.0017  0.6201 -0.4354
  133SAPE   C1114308   5.337   4.574  10.790  0.0739 -0.4913 -0.0028
  133SAPE  H11A14309   5.414   4.628  10.848 -0.3964  1.3632 -1.0592
  133SAPE  H11B14310   5.293   4.649  10.721 -0.5591 -1.5244 -0.7451
  133SAPE     P14311   5.351   4.391  10.594  0.4104  0.2697 -0.2219
  133SAPE   O1314312   5.391   4.470  10.474  0.1021 -0.2101  0.1125
  133SAPE   O1414313   5.416   4.259  10.604  0.2456 -0.0374  0.3321
  133SAPE   O1214314   5.406   4.467  10.725  0.4463  0.1736  0.0588
  133SAPE   O1114315   5.194   4.390  10.610 -0.0996  0.5482  0.0894
  133SAPE    C114316   5.112   4.281  10.583  0.6027  0.2495  0.0338
  133SAPE    HA14317   5.161   4.184  10.611  0.2778  0.0432 -0.1155
  133SAPE    HB14318   5.017   4.302  10.636  0.3975  2.8517 -1.3430
  133SAPE    C214319   5.072   4.273  10.432 -0.3415 -0.0438  0.2404
  133SAPE    HS14320   5.006   4.184  10.420  2.3243 -1.7667 -2.4701
  133SAPE   O2114321   5.176   4.258  10.338  0.2295  0.2925 -0.4203
  133SAPE   C2114322   5.234   4.142  10.349  0.7662 -0.1323 -0.0961
  133SAPE   O2214323   5.188   4.049  10.421 -0.0888  0.5933  0.1623
  133SAPE   C2214324   5.343   4.116  10.247 -0.5375  0.3075  0.3027
  133SAPE   H2R14325   5.415   4.039  10.282 -1.9009 -1.8757 -1.5780
  133SAPE   H2S14326   5.291   4.082  10.155 -2.7365  1.9163  0.9155
  133SAPE    C314327   4.981   4.399  10.387 -0.1790  0.3522 -0.0714
  133SAPE    HX14328   5.054   4.483  10.399  1.1935 -1.1902  3.0521
  133SAPE    HY14329   4.890   4.411  10.449 -0.2466  0.8751 -0.2674
  133SAPE   O3114330   4.953   4.377  10.252  0.1877  0.0284  0.3760
  133SAPE   C3114331   4.864   4.298  10.207 -0.6924  0.0380  0.3161
  133SAPE   O3214332   4.784   4.234  10.274 -1.0498 -0.2708 -0.1553
  133SAPE   C3214333   4.881   4.276  10.056 -0.0403  0.7433 -0.2333
  133SAPE   H2X14334   4.978   4.323  10.030  0.0541  0.9080  0.4090
  133SAPE   H2Y14335   4.790   4.316  10.007  0.1785  0.0041 -1.2421
  133SAPE   C2314336   5.433   4.238  10.210  0.2794  0.6447  0.4337
  133SAPE   H3R14337   5.483   4.271  10.303  0.5280  0.2169  0.4480
  133SAPE   H3S14338   5.370   4.327  10.184  0.4381  0.4069 -0.8088
  133SAPE   C2414339   5.532   4.203  10.094  0.2107 -0.1520  0.3210
  133SAPE   H4R14340   5.590   4.120  10.138 -0.0409  0.1402  1.2266
  133SAPE   H4S14341   5.598   4.291  10.079 -0.2780  0.3404  1.0067
  133SAPE   C2514342   5.467   4.158   9.964  0.7430 -0.4829  0.1908
  133SAPE   H5R14343   5.438   4.053   9.951  0.9404 -0.4075 -0.9065
  133SAPE   C2614344   5.425   4.252   9.870  0.4110  0.8864  0.7494
  133SAPE   H6R14345   5.391   4.204   9.777  2.0097 -0.4459  0.8283
  133SAPE   C2714346   5.432   4.401   9.866 -0.3453 -0.0193  0.4571
  133SAPE   H7R14347   5.525   4.438   9.915 -0.1505  0.9601 -0.6205
  133SAPE   H7S14348   5.356   4.433   9.940 -1.5644 -0.8230 -0.4350
  133SAPE   C2814349   5.413   4.462   9.730 -0.2474  0.1050  0.3730
  133SAPE   H8R14350   5.330   4.534   9.732  0.5983  1.1847 -1.4940
  133SAPE   C2914351   5.491   4.452   9.620  0.9667  0.2294  0.4717
  133SAPE   H9R14352   5.467   4.510   9.530  1.8711  1.8508  1.2559
  133SAPE  C21014353   5.610   4.369   9.599  0.3570 -0.2339 -0.0209
  133SAPE  H10R14354   5.577   4.291   9.527  1.6949 -1.4474  0.6461
  133SAPE  H10S14355   5.643   4.319   9.693 -1.1302 -0.6492  0.2886
  133SAPE  C21114356   5.729   4.446   9.551 -0.2968 -0.3827  0.8959
  133SAPE  H11R14357   5.772   4.494   9.640  0.4808  1.2059 -0.3040
  133SAPE  C21214358   5.792   4.466   9.435 -0.2993  0.4101  0.2772
  133SAPE  H12R14359   5.877   4.536   9.429  0.4926 -0.6142 -0.5748
  133SAPE  C21314360   5.755   4.403   9.304  0.0766 -0.2824 -0.6733
  133SAPE  H13R14361   5.731   4.295   9.317 -0.2371 -0.1092  0.2241
  133SAPE  H13S14362   5.844   4.405   9.237  0.2180  0.5211 -0.4633
  133SAPE  C21414363   5.642   4.474   9.237 -0.2223 -0.3490  0.3940
  133SAPE  H14R14364   5.607   4.567   9.282  0.1863 -0.0464  0.0897
  133SAPE  C21514365   5.573   4.419   9.135  0.0063  0.3007 -0.1365
  133SAPE  H15R14366   5.499   4.482   9.083 -0.8071 -0.2938  0.2904
  133SAPE  C21614367   5.604   4.288   9.064 -0.2927 -0.1263 -0.2090
  133SAPE  H16R14368   5.554   4.204   9.116  0.5257 -0.7264 -0.3922
  133SAPE  H16S14369   5.713   4.265   9.069  0.2725  2.4323  0.1522
  133SAPE  C21714370   5.549   4.289   8.920 -0.3596 -0.1274 -0.4554
  133SAPE  H17R14371   5.506   4.389   8.897 -0.5195 -0.2197 -0.5581
  133SAPE  H17S14372   5.469   4.212   8.914 -0.8994  0.4735 -1.2920
  133SAPE  C21814373   5.641   4.256   8.806  0.0015  0.7907  0.9039
  133SAPE  H18R14374   5.679   4.153   8.821 -1.1763  0.2243  0.0658
  133SAPE  H18S14375   5.721   4.325   8.840  1.0564 -0.1218  0.2859
  133SAPE  C21914376   5.583   4.285   8.665  0.1962 -0.2007  0.6945
  133SAPE  H19R14377   5.641   4.363   8.611  0.1492 -0.7652 -0.1885
  133SAPE  H19S14378   5.483   4.333   8.678  0.0023 -0.2111 -0.6315
  133SAPE  C22014379   5.569   4.155   8.587 -0.6219  0.1343 -0.5272
  133SAPE  H20R14380   5.667   4.104   8.574 -0.3270 -0.7784  4.1256
  133SAPE  H20S14381   5.534   4.177   8.484  0.4975  0.3601 -0.8619
  133SAPE  H20T14382   5.507   4.085   8.648  0.6838 -1.1944 -0.6921
  133SAPE   C3314383   4.898   4.125  10.015  0.3083  0.4344 -0.2478
  133SAPE   H3X14384   4.818   4.060  10.058  2.1986 -1.7330  0.0520
  133SAPE   H3Y14385   4.991   4.089  10.063 -0.1777  0.4243  0.6904
  133SAPE   C3414386   4.880   4.117   9.864  0.2673 -0.0442 -0.1821
  133SAPE   H4X14387   4.806   4.195   9.838 -0.4888  0.3502  2.9126
  133SAPE   H4Y14388   4.842   4.014   9.845  1.2415 -0.7320  1.5009
  133SAPE   C3514389   5.015   4.121   9.780 -0.0372 -0.1817 -0.1491
  133SAPE   H5X14390   5.085   4.048   9.827  0.2796  1.0186  1.2801
  133SAPE   H5Y14391   5.060   4.221   9.794 -0.7134  0.1301 -0.2120
  133SAPE   C3614392   4.997   4.089   9.635  0.5039  0.0958  0.0641
  133SAPE   H6X14393   4.900   4.134   9.606  0.5945  0.0107 -0.3774
  133SAPE   H6Y14394   5.005   3.980   9.618  1.0052  0.2248 -0.5402
  133SAPE   C3714395   5.092   4.152   9.532 -0.3559 -0.1828  1.1221
  133SAPE   H7X14396   5.127   4.252   9.566 -0.0161  0.7949 -1.9231
  133SAPE   H7Y14397   5.038   4.164   9.436 -0.6921  0.5282  1.3950
  133SAPE   C3814398   5.232   4.090   9.506 -0.0286  0.3046  0.5335
  133SAPE   H8X14399   5.216   3.987   9.466  2.7946  0.1946 -0.4629
  133SAPE   H8Y14400   5.284   4.069   9.602  0.3270 -1.8931 -0.1019
  133SAPE   C3914401   5.321   4.175   9.411 -0.9229 -1.2710  0.0455
  133SAPE   H9X14402   5.416   4.119   9.424 -0.0117  0.3899  0.6896
  133SAPE   H9Y14403   5.348   4.270   9.461  2.6466 -2.7621  1.1254
  133SAPE  C31014404   5.278   4.200   9.262 -1.0087  0.0600 -0.5165
  133SAPE  H10X14405   5.360   4.266   9.225 -1.7730  3.0747  2.8614
  133SAPE  H10Y14406   5.190   4.268   9.269 -1.4191 -0.3988 -1.1968
  133SAPE  C31114407   5.259   4.072   9.180  0.6322 -0.0097 -0.2117
  133SAPE  H11X14408   5.194   3.999   9.232 -0.8136  1.9373  0.7936
  133SAPE  H11Y14409   5.354   4.016   9.191  1.0757  0.6850 -0.4045
  133SAPE  C31214410   5.230   4.095   9.035 -0.6229  0.1141 -0.3926
  133SAPE  H12X14411   5.278   4.192   9.012  1.1378 -0.0939  2.2743
  133SAPE  H12Y14412   5.120   4.110   9.025 -0.7974  1.1338  2.6259
  133SAPE  C31314413   5.270   3.983   8.933  0.3038  0.8127 -0.1755
  133SAPE  H13X14414   5.212   3.889   8.948  0.3367  0.6490 -1.0053
  133SAPE  H13Y14415   5.375   3.951   8.949  0.2483  0.2514 -0.8516
  133SAPE  C31414416   5.235   4.017   8.790 -0.1088 -0.0147  0.0012
  133SAPE  H14X14417   5.292   4.103   8.749 -0.2566 -0.5077 -1.2773
  133SAPE  H14Y14418   5.127   4.042   8.782  0.0933  0.8709 -0.0184
  133SAPE  C31514419   5.276   3.907   8.682  0.1473  0.2147 -0.1465
  133SAPE  H15X14420   5.374   3.866   8.715 -0.6418  0.6000  2.8189
  133SAPE  H15Y14421   5.286   3.947   8.579  0.7389 -0.1249 -0.2243
  133SAPE  C31614422   5.181   3.793   8.679 -0.3488  0.1946 -0.0139
  133SAPE  H16X14423   5.083   3.824   8.637 -0.0623 -0.5001 -1.2121
  133SAPE  H16Y14424   5.149   3.769   8.782  0.0347 -1.8151 -0.3507
  133SAPE  C31714425   5.240   3.668   8.613 -0.0365  0.1105 -0.2177
  133SAPE  H17X14426   5.336   3.643   8.662 -0.2432  0.9199  0.6305
  133SAPE  H17Y14427   5.254   3.693   8.506 -3.3612  1.6526 -0.3677
  133SAPE  C31814428   5.154   3.543   8.630 -0.0661  0.0441  0.5404
  133SAPE  H18X14429   5.217   3.452   8.644 -0.4453 -0.5189 -1.2506
  133SAPE  H18Y14430   5.078   3.526   8.551  1.4921 -0.2891 -0.9338
  133SAPE  H18Z14431   5.088   3.564   8.716 -0.6084  0.1927  0.0915
  134SAPE     N14432   1.556   3.924  10.958 -0.2798  0.6736 -0.1903
  134SAPE   HN114433   1.505   3.883  11.039 -1.2327 -2.6704 -2.3841
  134SAPE   HN214434   1.540   3.846  10.892 -0.6331  0.4178  0.1963
  134SAPE   HN314435   1.658   3.925  10.973 -0.4809 -0.1753  1.3008
  134SAPE   C1214436   1.506   4.053  10.897  0.8943 -0.7496 -0.2086
  134SAPE  H12A14437   1.399   4.056  10.928  1.5211  1.7769  1.9350
  134SAPE  H12B14438   1.510   4.046  10.787  1.4329 -1.4524 -0.1415
  134SAPE   C1114439   1.582   4.178  10.942 -0.2052  0.3727  0.3342
  134SAPE  H11A14440   1.585   4.182  11.053  1.9249  1.5056  0.2598
  134SAPE  H11B14441   1.524   4.263  10.900 -0.3582  0.1337  0.0596
  134SAPE     P14442   1.767   4.260  10.760  0.4824 -0.4833  0.1131
  134SAPE   O1314443   1.729   4.402  10.771 -0.1577 -0.1577 -0.2974
  134SAPE   O1414444   1.910   4.236  10.736 -0.2190 -0.4349 -0.2741
  134SAPE   O1214445   1.720   4.189  10.894 -0.7911 -0.0343 -0.1724
  134SAPE   O1114446   1.676   4.197  10.655 -0.3092  0.1436  0.0871
  134SAPE    C114447   1.688   4.063  10.598  1.1742  0.1974 -0.5122
  134SAPE    HA14448   1.743   3.996  10.668 -0.6441  1.1379  1.8907
  134SAPE    HB14449   1.588   4.019  10.581  0.5661  0.4431  2.1728
  134SAPE    C214450   1.735   4.064  10.451 -0.3224  0.2480 -0.6539
  134SAPE    HS14451   1.845   4.080  10.446 -0.2420 -0.5383 -1.5710
  134SAPE   O2114452   1.670   4.177  10.385 -0.1810  0.1095 -0.2349
  134SAPE   C2114453   1.741   4.272  10.328 -0.1987 -0.1553  0.3151
  134SAPE   O2214454   1.862   4.276  10.316  0.1190  0.7781  0.1477
  134SAPE   C2214455   1.654   4.379  10.254 -0.2591 -0.3578  0.1104
  134SAPE   H2R14456   1.561   4.395  10.311 -0.6579 -0.7934 -0.4048
  134SAPE   H2S14457   1.710   4.474  10.268 -0.5753 -0.1148 -0.2503
  134SAPE    C314458   1.701   3.935  10.373  0.3225  0.1189 -0.5762
  134SAPE    HX14459   1.590   3.934  10.369  0.2891  2.3615 -0.6851
  134SAPE    HY14460   1.750   3.855  10.432  1.5214  1.7209  0.6588
  134SAPE   O3114461   1.773   3.943  10.249 -0.0739 -1.0735 -0.3915
  134SAPE   C3114462   1.704   3.977  10.141  0.0817 -0.4474 -0.4646
  134SAPE   O3214463   1.588   4.010  10.138  0.7300 -0.2539  0.3667
  134SAPE   C3214464   1.789   3.971  10.021  0.3141 -0.0441 -0.4872
  134SAPE   H2X14465   1.827   3.867  10.024 -0.2429 -0.2877 -1.7805
  134SAPE   H2Y14466   1.881   4.030  10.044 -0.6572  0.3341  2.7358
  134SAPE   C2314467   1.624   4.339  10.108  0.3267 -0.2636  0.0793
  134SAPE   H3R14468   1.620   4.228  10.109  1.9791 -0.3408  2.0796
  134SAPE   H3S14469   1.710   4.360  10.040 -0.0636  0.8399 -0.0860
  134SAPE   C2414470   1.492   4.391  10.052 -0.1659 -0.1088 -1.0101
  134SAPE   H4R14471   1.399   4.384  10.112  0.8113  0.7768  0.6548
  134SAPE   H4S14472   1.479   4.319   9.969  0.7425  1.5700 -2.6528
  134SAPE   C2514473   1.502   4.526   9.985  0.1037  0.2649  0.4094
  134SAPE   H5R14474   1.529   4.608  10.053  1.8752  0.7520 -0.8311
  134SAPE   C2614475   1.521   4.552   9.852 -0.0371  0.0201 -1.1766
  134SAPE   H6R14476   1.531   4.657   9.821  0.3591  0.6598  1.0414
  134SAPE   C2714477   1.535   4.458   9.730 -0.2932 -0.0059 -0.5055
  134SAPE   H7R14478   1.505   4.518   9.642 -0.6540 -1.6069 -1.5105
  134SAPE   H7S14479   1.467   4.370   9.744  0.1992 -0.4362 -0.8010
  134SAPE   C2814480   1.680   4.413   9.715  0.3264  0.2041  0.2745
  134SAPE   H8R14481   1.712   4.330   9.780  0.4438 -0.4120 -0.5693
  134SAPE   C2914482   1.770   4.454   9.624 -0.7407  0.6764  0.8186
  134SAPE   H9R14483   1.863   4.396   9.629 -0.5882  0.3384 -3.8238
  134SAPE  C21014484   1.747   4.556   9.519 -0.6260 -0.7865  0.1506
  134SAPE  H10R14485   1.809   4.648   9.512 -1.8725  0.0329 -0.1117
  134SAPE  H10S14486   1.647   4.603   9.510  0.1914  0.9320 -0.1677
  134SAPE  C21114487   1.770   4.480   9.392  0.4906  0.0068  0.2202
  134SAPE  H11R14488   1.703   4.393   9.384  0.1016  0.4456 -1.3884
  134SAPE  C21214489   1.851   4.515   9.288  0.1002  0.1616 -0.3064
  134SAPE  H12R14490   1.867   4.441   9.209  1.7797 -0.2529  0.4108
  134SAPE  C21314491   1.931   4.639   9.285  0.0914  0.4878  0.0292
  134SAPE  H13R14492   1.992   4.645   9.378  1.6979  0.9991 -1.0399
  134SAPE  H13S14493   1.868   4.730   9.293 -1.3709 -0.3474 -1.7476
  134SAPE  C21414494   2.018   4.662   9.165  0.3848 -0.4132  0.2330
  134SAPE  H14R14495   2.123   4.635   9.184  0.6745  1.4483  1.3405
  134SAPE  C21514496   1.981   4.710   9.040 -0.4145 -0.1075  0.6804
  134SAPE  H15R14497   2.058   4.725   8.962  0.5291 -1.4321  1.3438
  134SAPE  C21614498   1.852   4.756   8.982  1.3393 -0.4476  0.0395
  134SAPE  H16R14499   1.862   4.863   8.955  0.8068 -0.0164  1.4722
  134SAPE  H16S14500   1.773   4.740   9.058  0.2660 -0.9384 -1.1553
  134SAPE  C21714501   1.806   4.673   8.859 -0.5261  0.5348  0.0265
  134SAPE  H17R14502   1.705   4.707   8.827 -0.7579  0.0980  0.2879
  134SAPE  H17S14503   1.784   4.568   8.888  3.7656  0.5274  3.8943
  134SAPE  C21814504   1.897   4.678   8.729  0.3234  0.4387 -0.0029
  134SAPE  H18R14505   2.005   4.685   8.755  0.4135  1.5926 -0.6715
  134SAPE  H18S14506   1.864   4.763   8.666  0.7271  1.2265  0.8443
  134SAPE  C21914507   1.874   4.550   8.647 -0.2259 -0.2140  0.2910
  134SAPE  H19R14508   1.774   4.568   8.601 -0.4019  0.8582  1.0790
  134SAPE  H19S14509   1.861   4.463   8.715 -0.6770 -1.1995 -1.0306
  134SAPE  C22014510   1.973   4.523   8.538 -0.3494 -0.1775 -0.0636
  134SAPE  H20R14511   1.945   4.433   8.479  0.4938 -0.1428 -0.5315
  134SAPE  H20S14512   2.076   4.514   8.580  0.6007 -1.4560 -2.5819
  134SAPE  H20T14513   1.975   4.603   8.460 -0.1728 -1.5128 -1.4365
  134SAPE   C3314514   1.732   4.015   9.883  0.0911  0.4129  0.0488
  134SAPE   H3X14515   1.692   4.119   9.881 -2.7475 -0.6480 -1.1231
  134SAPE   H3Y14516   1.649   3.948   9.851  0.7075  0.0365 -0.7754
  134SAPE   C3414517   1.845   4.000   9.778  0.0204  0.3838 -1.0933
  134SAPE   H4X14518   1.867   3.891   9.771 -1.7717 -0.0100 -0.8943
  134SAPE   H4Y14519   1.932   4.059   9.813 -0.6093  0.2864  0.6961
  134SAPE   C3514520   1.801   4.047   9.641  0.1764  0.2217 -0.3418
  134SAPE   H5X14521   1.760   4.150   9.653 -4.2134 -1.3641 -0.6675
  134SAPE   H5Y14522   1.716   3.987   9.602 -0.1316 -0.6505  1.6206
  134SAPE   C3614523   1.914   4.043   9.543 -0.5281 -0.4367 -0.0545
  134SAPE   H6X14524   1.930   3.941   9.502  0.1927 -0.3087 -0.1124
  134SAPE   H6Y14525   2.009   4.084   9.585 -1.1706  0.9107  0.0957
  134SAPE   C3714526   1.876   4.119   9.415  0.1142  0.5975  0.5808
  134SAPE   H7X14527   1.899   4.221   9.453  1.1125  0.4661  0.3458
  134SAPE   H7Y14528   1.770   4.109   9.385  0.7465 -1.7355 -0.9806
  134SAPE   C3814529   1.976   4.080   9.311  0.4575 -0.1641 -0.2308
  134SAPE   H8X14530   1.938   3.992   9.255 -0.6041  0.0219  0.1790
  134SAPE   H8Y14531   2.074   4.072   9.361  0.0518  0.5540  0.6869
  134SAPE   C3914532   1.988   4.183   9.195  0.0856  0.4330  0.1959
  134SAPE   H9X14533   2.044   4.271   9.234  3.5869 -0.6432 -2.1743
  134SAPE   H9Y14534   1.889   4.220   9.161  0.5906  1.7535  0.0962
  134SAPE  C31014535   2.058   4.124   9.074 -0.5934  0.8442  0.0484
  134SAPE  H10X14536   1.997   4.041   9.033  2.1770 -0.0878 -2.3773
  134SAPE  H10Y14537   2.153   4.077   9.107 -0.1344  2.7656  1.5779
  134SAPE  C31114538   2.086   4.229   8.965 -0.3066  0.5181  0.4963
  134SAPE  H11X14539   2.126   4.319   9.015 -1.1386  0.5380  1.1498
  134SAPE  H11Y14540   1.990   4.273   8.929  0.9205  2.2952 -0.6732
  134SAPE  C31214541   2.172   4.177   8.847 -0.5439 -0.7022  0.4340
  134SAPE  H12X14542   2.130   4.088   8.795  0.0323 -1.7537  1.7488
  134SAPE  H12Y14543   2.271   4.161   8.894 -0.3326  1.2099  0.6828
  134SAPE  C31314544   2.171   4.285   8.733 -0.0145  0.2424  0.4233
  134SAPE  H13X14545   2.202   4.386   8.765 -0.0951  0.3739  0.0838
  134SAPE  H13Y14546   2.065   4.291   8.700  0.8938  0.7672 -2.5372
  134SAPE  C31414547   2.256   4.248   8.610  0.6376  0.0760 -0.4724
  134SAPE  H14X14548   2.352   4.201   8.639 -0.1280  0.0080  2.0874
  134SAPE  H14Y14549   2.279   4.342   8.555  0.3981 -0.2325 -1.1050
  134SAPE  C31514550   2.187   4.151   8.511  0.4037  0.4484  0.1818
  134SAPE  H15X14551   2.088   4.202   8.501  0.1671  0.2687  1.4472
  134SAPE  H15Y14552   2.164   4.056   8.563  0.3399 -0.4678 -1.5082
  134SAPE  C31614553   2.265   4.136   8.384 -0.9364  0.5224  0.0946
  134SAPE  H16X14554   2.366   4.102   8.414 -0.9203  1.2247  0.8448
  134SAPE  H16Y14555   2.267   4.238   8.340 -2.4723  0.9333  0.9368
  134SAPE  C31714556   2.204   4.039   8.285 -0.5792 -0.0640 -0.1835
  134SAPE  H17X14557   2.098   4.062   8.259 -1.1877 -1.5442  0.9145
  134SAPE  H17Y14558   2.207   3.936   8.328 -0.4439  0.7293  1.7549
  134SAPE  C31814559   2.287   4.049   8.165 -0.3254 -0.7671 -0.5441
  134SAPE  H18X14560   2.303   4.157   8.141 -2.8594 -0.2913 -0.2160
  134SAPE  H18Y14561   2.252   3.988   8.079  2.2037 -0.9857 -1.4536
  134SAPE  H18Z14562   2.390   4.012   8.185  0.1959  1.8892  2.0084
  135SAPE     N14563   1.310   2.613  10.942  0.5131 -0.6193 -0.8705
  135SAPE   HN114564   1.211   2.590  10.918  0.0226  2.1662 -1.6546
  135SAPE   HN214565   1.373   2.533  10.922  0.0129 -1.0083 -0.8982
  135SAPE   HN314566   1.321   2.614  11.045  0.6876 -0.3018 -0.8940
  135SAPE   C1214567   1.364   2.737  10.867  0.7692 -0.2283  0.0919
  135SAPE  H12A14568   1.473   2.731  10.848  0.7564  1.3863 -0.5780
  135SAPE  H12B14569   1.359   2.818  10.944  2.1726 -1.2319  1.2820
  135SAPE   C1114570   1.288   2.767  10.738  0.0734  0.0630  0.6433
  135SAPE  H11A14571   1.324   2.705  10.653 -0.9648  1.4712 -0.8475
  135SAPE  H11B14572   1.313   2.870  10.706  0.9978 -0.3051  0.1555
  135SAPE     P14573   1.051   2.653  10.716  0.1218 -0.0119 -0.1356
  135SAPE   O1314574   1.107   2.527  10.771  0.1366 -0.0726 -0.4863
  135SAPE   O1414575   0.913   2.687  10.754 -0.3659  0.2562 -0.2079
  135SAPE   O1214576   1.145   2.769  10.764 -0.2238 -0.1462  0.0126
  135SAPE   O1114577   1.070   2.655  10.560  0.2188 -0.4656  0.2269
  135SAPE    C114578   1.012   2.761  10.485  0.1232  0.2256 -0.1405
  135SAPE    HA14579   1.003   2.860  10.535 -1.4171  0.2247 -0.3904
  135SAPE    HB14580   1.073   2.772  10.392 -0.0239 -0.1310 -0.2818
  135SAPE    C214581   0.874   2.718  10.432 -0.1041  0.1344 -0.3063
  135SAPE    HS14582   0.822   2.683  10.523 -0.9162 -0.1665 -0.8710
  135SAPE   O2114583   0.894   2.610  10.343 -0.2813  0.1508  0.3086
  135SAPE   C2114584   0.780   2.534  10.333  0.6397 -0.1817  0.0583
  135SAPE   O2214585   0.677   2.539  10.402  0.5521 -0.3802  0.1119
  135SAPE   C2214586   0.800   2.420  10.227  0.5669  0.3356 -1.0430
  135SAPE   H2R14587   0.895   2.368  10.250 -1.0576 -1.5448  1.6843
  135SAPE   H2S14588   0.720   2.348  10.254  1.9053 -0.8612 -0.2336
  135SAPE    C314589   0.777   2.825  10.369 -0.3387 -0.5469  0.9242
  135SAPE    HX14590   0.754   2.893  10.453 -0.1687 -0.0854  0.5981
  135SAPE    HY14591   0.681   2.782  10.332 -0.1086  0.5898 -1.0784
  135SAPE   O3114592   0.843   2.888  10.257 -0.3702  0.5768 -0.4241
  135SAPE   C3114593   0.841   3.020  10.252 -0.2033  0.5578  0.1454
  135SAPE   O3214594   0.781   3.102  10.320  0.2135  0.3215  0.1602
  135SAPE   C3214595   0.926   3.065  10.132  0.0182  0.8338 -0.4286
  135SAPE   H2X14596   1.010   3.001  10.098  0.6316  1.0255  0.7065
  135SAPE   H2Y14597   0.971   3.164  10.156  2.1955 -0.6527  1.7420
  135SAPE   C2314598   0.774   2.459  10.083 -0.9417  0.6734  0.0420
  135SAPE   H3R14599   0.680   2.518  10.083 -0.9713  0.6851  2.4067
  135SAPE   H3S14600   0.753   2.375  10.014 -0.5426  0.5899  0.0205
  135SAPE   C2414601   0.877   2.551  10.018 -0.3424 -0.2271 -0.4162
  135SAPE   H4R14602   0.977   2.503  10.028 -0.3053 -0.1136 -0.2229
  135SAPE   H4S14603   0.886   2.639  10.086 -0.4174  0.2944 -1.0837
  135SAPE   C2514604   0.831   2.595   9.879  0.4726  0.0322  0.7816
  135SAPE   H5R14605   0.788   2.696   9.865  1.7229  0.3941 -0.5670
  135SAPE   C2614606   0.833   2.519   9.776  0.0469 -0.3071  0.1764
  135SAPE   H6R14607   0.821   2.565   9.677  3.4775 -4.1605 -2.1689
  135SAPE   C2714608   0.885   2.375   9.776 -0.2921 -0.2062  0.0415
  135SAPE   H7R14609   0.843   2.311   9.857 -3.3419 -0.1729 -1.4695
  135SAPE   H7S14610   0.996   2.371   9.786 -0.2476  1.3234  0.1805
  135SAPE   C2814611   0.838   2.309   9.653 -0.2853  0.6882 -0.1090
  135SAPE   H8R14612   0.734   2.274   9.657 -0.4092  1.1386  0.7211
  135SAPE   C2914613   0.916   2.273   9.551 -0.0978 -0.0481  0.4918
  135SAPE   H9R14614   0.875   2.234   9.456  3.6971 -2.6135 -0.2712
  135SAPE  C21014615   1.061   2.288   9.538 -0.8209 -0.1709  0.0508
  135SAPE  H10R14616   1.100   2.184   9.547 -3.4023 -1.1325  0.7573
  135SAPE  H10S14617   1.101   2.348   9.623 -0.2866 -1.1890  0.5297
  135SAPE  C21114618   1.107   2.358   9.414  0.0754  0.5029 -0.1619
  135SAPE  H11R14619   1.052   2.450   9.388  1.3767  1.0669 -0.9552
  135SAPE  C21214620   1.220   2.331   9.344  0.0119 -0.0040 -0.3792
  135SAPE  H12R14621   1.244   2.374   9.246  0.1421 -0.1123 -0.3943
  135SAPE  C21314622   1.316   2.215   9.374 -0.4291  0.2587 -0.3392
  135SAPE  H13R14623   1.319   2.142   9.291  0.6242 -0.6375  0.4685
  135SAPE  H13S14624   1.290   2.155   9.464  0.8147 -0.2402 -0.2996
  135SAPE  C21414625   1.450   2.269   9.410  0.1039  0.1745 -0.2644
  135SAPE  H14R14626   1.469   2.305   9.512  1.9784  3.2055 -1.6196
  135SAPE  C21514627   1.550   2.281   9.325 -0.4596  0.8509  0.2880
  135SAPE  H15R14628   1.644   2.330   9.354 -0.6669  2.3702 -1.5108
  135SAPE  C21614629   1.550   2.235   9.186 -0.7493  0.4467 -0.0202
  135SAPE  H16R14630   1.455   2.193   9.147 -1.3101  2.4674 -0.9329
  135SAPE  H16S14631   1.619   2.148   9.173 -1.1017  0.4045 -1.7728
  135SAPE  C21714632   1.590   2.345   9.077  0.3988 -0.0284  0.3709
  135SAPE  H17R14633   1.697   2.367   9.095  0.1065  1.5434  0.2798
  135SAPE  H17S14634   1.530   2.435   9.104 -0.2603  0.2168 -1.7986
  135SAPE  C21814635   1.566   2.305   8.925  0.6430  0.2828  0.1905
  135SAPE  H18R14636   1.577   2.197   8.905 -0.3458  0.2156  0.0132
  135SAPE  H18S14637   1.648   2.359   8.872  0.5872 -0.7655 -0.9777
  135SAPE  C21914638   1.425   2.349   8.872 -0.6609 -0.6313 -0.1338
  135SAPE  H19R14639   1.362   2.386   8.956 -1.1854 -1.4091 -0.1842
  135SAPE  H19S14640   1.373   2.263   8.826 -0.2465 -0.5611 -0.7385
  135SAPE  C22014641   1.429   2.456   8.757  0.3382  0.4285 -0.2384
  135SAPE  H20R14642   1.332   2.465   8.703 -1.1137  1.3760  2.4361
  135SAPE  H20S14643   1.511   2.429   8.687  1.3627  1.5449  0.4937
  135SAPE  H20T14644   1.451   2.556   8.801  0.0561  0.4450 -0.1359
  135SAPE   C3314645   0.826   3.073  10.010  0.1047 -0.3981  0.4651
  135SAPE   H3X14646   0.754   3.156  10.023  0.2871 -0.5390  2.4703
  135SAPE   H3Y14647   0.764   2.981  10.016 -0.5587 -0.0600 -0.9172
  135SAPE   C3414648   0.891   3.087   9.872  0.4152 -0.2051  0.1734
  135SAPE   H4X14649   0.957   3.176   9.870  0.7272 -0.4257  0.7188
  135SAPE   H4Y14650   0.804   3.097   9.803 -0.8803  1.3400  1.9692
  135SAPE   C3514651   0.977   2.975   9.812  0.5859  0.4613  0.4396
  135SAPE   H5X14652   0.949   2.873   9.845  1.8363  0.1756  0.6501
  135SAPE   H5Y14653   1.079   2.985   9.856 -0.1137 -2.0259  2.7406
  135SAPE   C3614654   0.978   2.971   9.656 -0.2088 -0.6502 -0.6575
  135SAPE   H6X14655   0.882   2.918   9.636  0.8630 -2.6413 -0.6395
  135SAPE   H6Y14656   1.057   2.904   9.618 -0.1696 -0.8331 -0.2455
  135SAPE   C3714657   0.986   3.106   9.595 -0.1059  0.0007  0.2732
  135SAPE   H7X14658   1.092   3.139   9.588  0.2398 -1.1903 -0.1662
  135SAPE   H7Y14659   0.935   3.193   9.641  0.0958 -0.8082  2.0487
  135SAPE   C3814660   0.948   3.094   9.440  0.6239 -0.2392 -0.5093
  135SAPE   H8X14661   0.846   3.052   9.426  0.6060  0.2499 -1.9372
  135SAPE   H8Y14662   1.020   3.042   9.372  0.5986  1.4651 -1.8592
  135SAPE   C3914663   0.953   3.228   9.361  0.2926  0.6503  0.2291
  135SAPE   H9X14664   1.050   3.280   9.374  0.1894  0.6873  0.8410
  135SAPE   H9Y14665   0.878   3.302   9.397 -0.4771  0.4540 -0.9207
  135SAPE  C31014666   0.935   3.205   9.207  0.0453 -0.1849  0.1328
  135SAPE  H10X14667   0.890   3.297   9.165 -0.8226  0.3219  2.1286
  135SAPE  H10Y14668   0.860   3.125   9.192 -2.8349  2.4629 -0.0362
  135SAPE  C31114669   1.071   3.174   9.135  0.3079  0.3897 -0.5060
  135SAPE  H11X14670   1.118   3.082   9.175 -0.4220  1.0587  1.9942
  135SAPE  H11Y14671   1.144   3.255   9.155  1.7119 -0.1738 -3.2024
  135SAPE  C31214672   1.049   3.178   8.982  0.2613  0.4414  0.0312
  135SAPE  H12X14673   0.999   3.270   8.947  1.0270  0.4906 -0.9487
  135SAPE  H12Y14674   0.985   3.090   8.958  0.4123  0.6433 -1.1252
  135SAPE  C31314675   1.178   3.154   8.896  0.9419 -0.9113 -0.5121
  135SAPE  H13X14676   1.248   3.076   8.934  2.3575  0.8637  0.6223
  135SAPE  H13Y14677   1.237   3.249   8.897 -0.7448  0.1699 -1.3844
  135SAPE  C31414678   1.148   3.098   8.748  0.0872  0.4694  0.1541
  135SAPE  H14X14679   1.247   3.122   8.703  0.1622  2.2303  1.1926
  135SAPE  H14Y14680   1.066   3.149   8.693  2.3759  2.8096 -1.1879
  135SAPE  C31514681   1.140   2.947   8.751 -0.3506 -0.1388 -0.1313
  135SAPE  H15X14682   1.038   2.915   8.783 -0.8951  0.6522 -1.0307
  135SAPE  H15Y14683   1.210   2.903   8.825 -0.0081  0.8538  0.1370
  135SAPE  C31614684   1.179   2.884   8.620  0.0781  0.0918  0.3981
  135SAPE  H16X14685   1.194   2.776   8.643 -0.8617 -0.0130  0.5132
  135SAPE  H16Y14686   1.276   2.924   8.582 -1.2309  2.4326 -0.5745
  135SAPE  C31714687   1.071   2.907   8.506 -0.6430 -0.0577 -0.1445
  135SAPE  H17X14688   1.080   3.008   8.461  0.1541 -0.6744 -1.3892
  135SAPE  H17Y14689   0.968   2.908   8.549 -0.8379 -0.4626 -0.5960
  135SAPE  C31814690   1.075   2.813   8.383 -0.0709 -0.6085 -0.4751
  135SAPE  H18X14691   1.067   2.704   8.404 -0.5346 -0.7525 -1.3580
  135SAPE  H18Y14692   1.162   2.841   8.320  1.2744  0.5372  1.8690
  135SAPE  H18Z14693   0.989   2.826   8.313  0.9867 -0.0643 -1.6777
  136SAPE     N14694   3.114   2.869  10.527 -0.0798  0.3388 -0.0264
  136SAPE   HN114695   3.032   2.932  10.525 -1.6466 -1.5003  3.1647
  136SAPE   HN214696   3.198   2.930  10.529 -0.1701  0.3984  2.5033
  136SAPE   HN314697   3.098   2.820  10.436  0.9670 -0.2644  0.1057
  136SAPE   C1214698   3.125   2.788  10.655 -0.0638  0.6852 -0.1637
  136SAPE  H12A14699   3.210   2.718  10.644 -0.2378  0.5796 -0.8571
  136SAPE  H12B14700   3.036   2.720  10.653  0.1763  0.3919 -0.8756
  136SAPE   C1114701   3.148   2.886  10.769  0.3069 -0.1517  0.3323
  136SAPE  H11A14702   3.167   2.835  10.866  1.3963  0.8012  0.6247
  136SAPE  H11B14703   3.054   2.943  10.789 -1.6771 -1.5499 -4.3360
  136SAPE     P14704   3.339   3.060  10.819 -0.0345 -0.0706  0.3063
  136SAPE   O1314705   3.291   3.203  10.794  0.1693  0.3951  0.4413
  136SAPE   O1414706   3.338   3.015  10.958  0.4604 -0.2107  0.0157
  136SAPE   O1214707   3.257   2.963  10.731  0.8731 -0.2170  0.1504
  136SAPE   O1114708   3.482   3.048  10.763  0.3183  0.4072 -0.2188
  136SAPE    C114709   3.565   2.935  10.789  0.0736  0.1511  0.0996
  136SAPE    HA14710   3.660   2.975  10.830  2.1206 -0.4825 -3.7759
  136SAPE    HB14711   3.520   2.859  10.857 -0.7802 -1.5231 -2.2743
  136SAPE    C214712   3.617   2.864  10.660 -1.0394 -0.3375 -0.6111
  136SAPE    HS14713   3.704   2.801  10.689 -2.7665 -2.8861 -0.8014
  136SAPE   O2114714   3.662   2.952  10.555  0.4058  0.0272 -0.4287
  136SAPE   C2114715   3.779   3.011  10.585  0.4340 -0.8326  0.4618
  136SAPE   O2214716   3.844   2.991  10.682 -0.3746  0.3394 -0.2457
  136SAPE   C2214717   3.798   3.123  10.475 -0.7020 -0.5598 -0.4554
  136SAPE   H2R14718   3.794   3.068  10.379  1.5457 -1.8269  0.1503
  136SAPE   H2S14719   3.704   3.181  10.470 -0.6565 -0.6552 -2.7912
  136SAPE    C314720   3.499   2.786  10.589  0.4740 -0.1650 -0.3229
  136SAPE    HX14721   3.444   2.854  10.521 -0.5136 -1.6772 -1.0397
  136SAPE    HY14722   3.428   2.740  10.661 -1.4000  0.8182 -1.4990
  136SAPE   O3114723   3.561   2.686  10.500 -0.1663 -0.1587 -0.6535
  136SAPE   C3114724   3.458   2.619  10.438  0.1684  0.2308 -0.7144
  136SAPE   O3214725   3.337   2.643  10.451  0.0027 -0.2238 -0.0072
  136SAPE   C3214726   3.517   2.498  10.375 -0.5954  0.0417  0.6950
  136SAPE   H2X14727   3.521   2.419  10.453  1.7021 -0.9637 -0.3650
  136SAPE   H2Y14728   3.624   2.525  10.362 -0.5889 -0.7805 -1.0063
  136SAPE   C2314729   3.918   3.221  10.509 -0.5604 -0.6360  0.1144
  136SAPE   H3R14730   3.991   3.162  10.568  2.8783  1.2104 -2.1118
  136SAPE   H3S14731   3.888   3.297  10.585  3.0975  1.3672 -0.3046
  136SAPE   C2414732   3.988   3.294  10.395  0.4087 -0.0389  0.1335
  136SAPE   H4R14733   4.039   3.224  10.325  0.9796 -1.7363  2.1902
  136SAPE   H4S14734   4.080   3.340  10.436  2.7114 -3.5539 -0.7978
  136SAPE   C2514735   3.903   3.397  10.328  0.4108  0.1016  0.4344
  136SAPE   H5R14736   3.871   3.486  10.384 -2.1178 -0.1635 -0.5445
  136SAPE   C2614737   3.845   3.388  10.208  0.5588  0.6200 -0.1459
  136SAPE   H6R14738   3.776   3.462  10.163 -0.9623 -1.3467 -1.1720
  136SAPE   C2714739   3.860   3.263  10.119 -0.3311  0.1118  0.0458
  136SAPE   H7R14740   3.913   3.179  10.169 -1.0305 -0.1754  0.3102
  136SAPE   H7S14741   3.911   3.286  10.022  0.3932  0.4322  0.4904
  136SAPE   C2814742   3.715   3.227  10.087  0.1147 -0.5052  0.2926
  136SAPE   H8R14743   3.639   3.230  10.166  0.8601 -0.3529  1.0109
  136SAPE   C2914744   3.667   3.201   9.962 -0.6848  0.5029  0.4845
  136SAPE   H9R14745   3.560   3.180   9.951 -0.8811  2.4286 -1.7661
  136SAPE  C21014746   3.757   3.205   9.839 -0.4272  0.2481 -0.5810
  136SAPE  H10R14747   3.863   3.193   9.870 -0.8288  1.3469  1.3270
  136SAPE  H10S14748   3.741   3.306   9.796 -1.6759  0.3931  0.1804
  136SAPE  C21114749   3.718   3.087   9.743  0.1238 -0.5059 -0.0117
  136SAPE  H11R14750   3.637   3.018   9.770  0.9347 -2.0889 -1.5071
  136SAPE  C21214751   3.775   3.055   9.628  0.0638 -0.2290  0.1252
  136SAPE  H12R14752   3.742   2.965   9.574  0.5476 -0.4634  0.2147
  136SAPE  C21314753   3.891   3.124   9.560  0.5043  0.1574 -0.4958
  136SAPE  H13R14754   3.903   3.227   9.600  0.3308 -0.0360  0.0557
  136SAPE  H13S14755   3.859   3.146   9.456  0.6764 -0.8632 -0.7645
  136SAPE  C21414756   4.022   3.055   9.575  0.5891  0.4181  0.4413
  136SAPE  H14R14757   4.029   2.987   9.661  1.4143  2.1726  1.8122
  136SAPE  C21514758   4.126   3.061   9.494 -0.7547  0.0286  0.2943
  136SAPE  H15R14759   4.213   2.999   9.517 -0.3760  0.5523  0.2858
  136SAPE  C21614760   4.132   3.150   9.365 -0.3690  0.0918  0.0446
  136SAPE  H16R14761   4.196   3.241   9.360 -1.6584  0.9370 -1.6244
  136SAPE  H16S14762   4.029   3.188   9.349 -1.1258 -2.4585 -1.3961
  136SAPE  C21714763   4.180   3.055   9.251  0.1184 -0.8173  0.8129
  136SAPE  H17R14764   4.124   2.959   9.255 -0.0998 -0.9122 -2.9591
  136SAPE  H17S14765   4.289   3.039   9.268  0.4631 -0.8276 -1.2914
  136SAPE  C21814766   4.156   3.127   9.115 -0.0208  0.0787 -0.4893
  136SAPE  H18R14767   4.228   3.211   9.126  2.3228 -2.2796  3.5814
  136SAPE  H18S14768   4.055   3.172   9.119 -0.1497 -0.3233  1.0587
  136SAPE  C21914769   4.177   3.042   8.988 -0.9974 -0.7984 -0.3894
  136SAPE  H19R14770   4.129   3.094   8.902 -2.9917 -2.5019 -0.3477
  136SAPE  H19S14771   4.115   2.951   9.002 -1.4627 -0.4321 -0.0504
  136SAPE  C22014772   4.318   3.004   8.952 -0.2089  0.0348  0.2921
  136SAPE  H20R14773   4.321   2.949   8.856 -0.5244  0.7890 -0.1530
  136SAPE  H20S14774   4.375   2.953   9.033 -0.5841 -0.2934  0.3484
  136SAPE  H20T14775   4.374   3.097   8.928  3.2470 -1.8088  0.8028
  136SAPE   C3314776   3.453   2.447  10.241 -0.1816 -0.8292  0.0244
  136SAPE   H3X14777   3.461   2.525  10.163  0.5784 -0.2850  0.6367
  136SAPE   H3Y14778   3.350   2.411  10.260  0.9831 -3.7456  1.2407
  136SAPE   C3414779   3.529   2.331  10.181 -0.2646  0.4291  0.3244
  136SAPE   H4X14780   3.447   2.277  10.129 -1.8665  2.3600  0.7869
  136SAPE   H4Y14781   3.572   2.261  10.256 -3.9730 -0.8002  1.4109
  136SAPE   C3514782   3.637   2.362  10.078 -0.2890  0.0193 -0.2350
  136SAPE   H5X14783   3.727   2.388  10.139 -0.0755 -0.0156 -0.5369
  136SAPE   H5Y14784   3.611   2.460  10.033 -1.9147 -0.8925 -1.3316
  136SAPE   C3614785   3.664   2.255   9.979 -0.1643 -0.1378 -0.5804
  136SAPE   H6X14786   3.569   2.210   9.943 -0.0754 -2.7575  2.2447
  136SAPE   H6Y14787   3.728   2.176  10.025  1.7100  1.7148  0.0707
  136SAPE   C3714788   3.739   2.311   9.860 -0.3011 -0.3043 -1.1357
  136SAPE   H7X14789   3.845   2.298   9.890 -0.4490  1.0043  0.0243
  136SAPE   H7Y14790   3.708   2.416   9.840  1.4327  0.3955 -0.2625
  136SAPE   C3814791   3.710   2.236   9.729  0.3577 -0.1334 -0.4333
  136SAPE   H8X14792   3.614   2.270   9.685 -0.2563  1.3756  1.9573
  136SAPE   H8Y14793   3.697   2.128   9.750 -2.3338  0.0429 -1.0454
  136SAPE   C3914794   3.812   2.273   9.618 -0.3506  0.4906  0.1973
  136SAPE   H9X14795   3.903   2.215   9.645 -1.1848 -0.4419  1.0978
  136SAPE   H9Y14796   3.827   2.383   9.615  1.3803  0.2448 -0.7138
  136SAPE  C31014797   3.775   2.211   9.487  0.0988 -0.8581  0.1592
  136SAPE  H10X14798   3.681   2.265   9.461  1.9936  1.7980 -1.4104
  136SAPE  H10Y14799   3.756   2.103   9.504  2.1270 -1.0888  1.0351
  136SAPE  C31114800   3.880   2.222   9.379  0.1818 -0.7698  0.1419
  136SAPE  H11X14801   3.851   2.145   9.304 -1.2370 -0.1858  0.0791
  136SAPE  H11Y14802   3.979   2.194   9.421  0.7222  2.0973  0.8869
  136SAPE  C31214803   3.895   2.357   9.310  0.1113 -0.1182  0.4149
  136SAPE  H12X14804   3.996   2.354   9.264  0.7353 -3.0273  1.7861
  136SAPE  H12Y14805   3.883   2.438   9.386 -0.6860  0.1899 -0.0350
  136SAPE  C31314806   3.791   2.372   9.196  0.3798  0.2696  0.3562
  136SAPE  H13X14807   3.682   2.360   9.213  0.5516 -0.2858  1.0778
  136SAPE  H13Y14808   3.809   2.284   9.130  1.8147  0.4815  0.4581
  136SAPE  C31414809   3.821   2.491   9.102  0.0781  0.7381 -0.2779
  136SAPE  H14X14810   3.767   2.481   9.005  1.1968 -1.1487 -0.7332
  136SAPE  H14Y14811   3.930   2.477   9.081  0.1965  1.3665 -0.0942
  136SAPE  C31514812   3.788   2.622   9.172 -0.1289  0.5075  0.1353
  136SAPE  H15X14813   3.859   2.632   9.257  0.8281  2.0524 -0.8222
  136SAPE  H15Y14814   3.678   2.620   9.189 -0.4706 -0.2394 -2.1406
  136SAPE  C31614815   3.823   2.741   9.090 -1.4650 -0.5527  0.1572
  136SAPE  H16X14816   3.786   2.717   8.988 -2.0393  1.8069 -0.2287
  136SAPE  H16Y14817   3.933   2.751   9.079 -1.3064 -2.5023 -0.0961
  136SAPE  C31714818   3.760   2.874   9.128  0.0362  0.4255 -0.8452
  136SAPE  H17X14819   3.651   2.873   9.107 -0.7082 -0.4004  2.6601
  136SAPE  H17Y14820   3.806   2.954   9.066  0.1700  1.1291  0.1662
  136SAPE  C31814821   3.782   2.898   9.276 -0.2646 -0.3365 -0.5182
  136SAPE  H18X14822   3.732   2.812   9.328 -1.0781  0.0952 -0.5817
  136SAPE  H18Y14823   3.745   2.998   9.307  1.5416 -0.0588  0.8408
  136SAPE  H18Z14824   3.890   2.892   9.298 -0.4113  0.3455  0.4032
  137SAPE     N14825   1.660   4.667  10.730  0.5544  0.0876  0.2777
  137SAPE   HN114826   1.682   4.584  10.788  2.6194  0.3824 -0.0470
  137SAPE   HN214827   1.557   4.678  10.735  0.7350  1.0214  2.2855
  137SAPE   HN314828   1.696   4.642  10.636  1.8934  0.4366  0.6850
  137SAPE   C1214829   1.735   4.781  10.782 -0.7047 -0.0642  0.7249
  137SAPE  H12A14830   1.819   4.744  10.845  0.1851 -0.6083 -0.7627
  137SAPE  H12B14831   1.673   4.838  10.855 -0.7907  0.7054  0.0592
  137SAPE   C1114832   1.798   4.879  10.681  0.2417  0.3744 -0.3568
  137SAPE  H11A14833   1.717   4.900  10.608 -2.3341  1.4668  2.6921
  137SAPE  H11B14834   1.887   4.828  10.640  1.6557  0.0884  2.9077
  137SAPE     P14835   1.753   5.121  10.766 -0.0881 -0.2204 -0.2696
  137SAPE   O1314836   1.611   5.083  10.791 -0.5379  0.2374 -0.3793
  137SAPE   O1414837   1.810   5.209  10.873  0.1620 -0.2489  0.0633
  137SAPE   O1214838   1.839   4.992  10.744 -0.7510  0.1845  0.2332
  137SAPE   O1114839   1.755   5.208  10.638 -0.1832  0.5016  0.0769
  137SAPE    C114840   1.827   5.165  10.518  0.1211 -0.6751  0.4552
  137SAPE    HA14841   1.927   5.123  10.542  1.2032  1.4694 -0.1922
  137SAPE    HB14842   1.776   5.084  10.462  3.2799 -3.0335  0.8156
  137SAPE    C214843   1.855   5.289  10.430 -0.9604  0.3331  0.4378
  137SAPE    HS14844   1.893   5.365  10.502  1.0958  0.4603 -0.7434
  137SAPE   O2114845   1.727   5.330  10.379 -0.3843 -0.2817 -0.3518
  137SAPE   C2114846   1.725   5.460  10.355 -0.4325  0.1913  0.6089
  137SAPE   O2214847   1.813   5.543  10.376 -0.1257 -0.0265  0.2631
  137SAPE   C2214848   1.590   5.493  10.294 -0.5175 -0.1764  0.2569
  137SAPE   H2R14849   1.519   5.521  10.376  1.7816  5.6480  0.5280
  137SAPE   H2S14850   1.612   5.581  10.230  0.5169  0.2188  1.1498
  137SAPE    C314851   1.958   5.264  10.318  0.1237 -0.2524 -0.1283
  137SAPE    HX14852   1.931   5.159  10.291 -2.3913  0.8845 -2.3190
  137SAPE    HY14853   2.058   5.264  10.366  0.2549  0.4080 -0.3909
  137SAPE   O3114854   1.942   5.345  10.207  0.7838 -0.3334  0.4422
  137SAPE   C3114855   2.057   5.395  10.151 -0.2420 -0.1357 -1.0825
  137SAPE   O3214856   2.168   5.362  10.175 -0.1019 -0.1791 -0.0393
  137SAPE   C3214857   2.022   5.501  10.052 -0.1993 -0.2315 -0.6982
  137SAPE   H2X14858   2.064   5.590  10.104 -0.6837 -0.3663 -0.0754
  137SAPE   H2Y14859   1.914   5.524  10.043 -0.1527 -0.6776 -2.7287
  137SAPE   C2314860   1.532   5.388  10.198  0.8508 -0.4387  0.8641
  137SAPE   H3R14861   1.542   5.288  10.247 -0.6346 -0.6448  0.7862
  137SAPE   H3S14862   1.591   5.384  10.104  1.6768  1.5579  1.2752
  137SAPE   C2414863   1.385   5.409  10.180 -0.0353  0.0806 -0.4430
  137SAPE   H4R14864   1.368   5.512  10.140  1.2432  1.1104  1.5773
  137SAPE   H4S14865   1.328   5.404  10.274  0.4544  1.6177 -0.0349
  137SAPE   C2514866   1.331   5.301  10.091 -0.3252 -0.0319 -0.0150
  137SAPE   H5R14867   1.297   5.210  10.142 -3.6183  0.5740 -1.0380
  137SAPE   C2614868   1.344   5.315   9.955  0.1726 -0.0792 -0.3042
  137SAPE   H6R14869   1.304   5.241   9.884  0.5944 -1.7477  1.1452
  137SAPE   C2714870   1.401   5.436   9.894  0.2046  0.1258  0.5697
  137SAPE   H7R14871   1.460   5.404   9.806 -4.8741 -2.9368 -1.9443
  137SAPE   H7S14872   1.470   5.493   9.960  2.1669  0.0973 -1.4042
  137SAPE   C2814873   1.289   5.527   9.853 -0.2148 -0.4298  0.3182
  137SAPE   H8R14874   1.253   5.589   9.936  0.1243  0.3331 -0.1021
  137SAPE   C2914875   1.250   5.558   9.727  0.0243 -0.3996 -0.6968
  137SAPE   H9R14876   1.172   5.635   9.719  0.3750  0.1452  0.9255
  137SAPE  C21014877   1.297   5.505   9.595  0.2075 -0.0550  0.1744
  137SAPE  H10R14878   1.243   5.410   9.577 -0.2737  0.6490 -2.3331
  137SAPE  H10S14879   1.407   5.488   9.601  0.3080  0.3428 -0.5159
  137SAPE  C21114880   1.273   5.604   9.487  0.7002 -0.3876  0.8814
  137SAPE  H11R14881   1.306   5.709   9.499  0.9036 -0.5485  1.7688
  137SAPE  C21214882   1.221   5.578   9.367  0.8025 -0.5701 -0.2081
  137SAPE  H12R14883   1.216   5.654   9.288 -0.7035 -0.8151 -0.3673
  137SAPE  C21314884   1.193   5.438   9.323 -0.1088 -0.6229  0.1438
  137SAPE  H13R14885   1.251   5.356   9.368 -1.0312 -1.0444  0.5792
  137SAPE  H13S14886   1.232   5.431   9.219  1.4180 -0.1186  0.6762
  137SAPE  C21414887   1.045   5.415   9.330 -0.0581 -0.1885  0.3347
  137SAPE  H14R14888   0.984   5.479   9.264  0.8665 -0.0484 -0.3961
  137SAPE  C21514889   0.994   5.313   9.407 -0.3406 -0.8010 -0.3115
  137SAPE  H15R14890   0.885   5.295   9.402 -0.5229  0.3434 -0.5419
  137SAPE  C21614891   1.060   5.213   9.504  0.2392 -0.0661  0.2331
  137SAPE  H16R14892   1.168   5.236   9.516  0.4892 -0.8940 -0.3826
  137SAPE  H16S14893   1.061   5.121   9.442 -2.5926 -0.5909  0.9174
  137SAPE  C21714894   0.999   5.173   9.631  0.3180 -0.5913 -0.3255
  137SAPE  H17R14895   1.050   5.083   9.672  0.0527  0.4192  2.3568
  137SAPE  H17S14896   0.895   5.139   9.614  0.3008 -0.3621 -0.6745
  137SAPE  C21814897   1.011   5.279   9.732 -1.0344 -0.6834  0.6565
  137SAPE  H18R14898   0.941   5.355   9.688 -1.4849 -0.1786  2.2164
  137SAPE  H18S14899   1.113   5.322   9.731 -0.0516 -2.9201 -2.1946
  137SAPE  C21914900   0.969   5.238   9.870 -0.2076 -0.2786  0.1910
  137SAPE  H19R14901   1.012   5.304   9.949  1.4802 -1.3418  0.2071
  137SAPE  H19S14902   1.010   5.135   9.879 -1.5357 -0.8826 -0.6166
  137SAPE  C22014903   0.820   5.241   9.881  0.4506  0.4218 -0.4836
  137SAPE  H20R14904   0.768   5.169   9.815  0.7573  1.4454 -1.8848
  137SAPE  H20S14905   0.780   5.340   9.849 -0.6644  0.2207  0.2773
  137SAPE  H20T14906   0.797   5.224   9.988 -1.8306 -0.1584 -1.0488
  137SAPE   C3314907   2.078   5.478   9.911  0.0627 -1.0076  0.3406
  137SAPE   H3X14908   2.042   5.387   9.859  1.9043 -0.5910 -1.7702
  137SAPE   H3Y14909   2.188   5.467   9.926  0.3126  1.8496  0.8997
  137SAPE   C3414910   2.063   5.601   9.824 -0.9196  1.0157  0.0352
  137SAPE   H4X14911   2.124   5.594   9.731 -1.0187 -0.0074  0.0335
  137SAPE   H4Y14912   2.093   5.691   9.881 -1.5890  1.2756 -0.0172
  137SAPE   C3514913   1.921   5.621   9.775  0.5852 -0.4531  0.3315
  137SAPE   H5X14914   1.872   5.671   9.862 -1.0023  1.9802 -1.9137
  137SAPE   H5Y14915   1.861   5.530   9.754 -0.2515  0.4669 -1.3655
  137SAPE   C3614916   1.912   5.688   9.639  0.1314  1.1173 -0.0040
  137SAPE   H6X14917   1.812   5.663   9.597  1.1978 -0.9242 -1.4097
  137SAPE   H6Y14918   1.992   5.653   9.570 -0.9037  0.6116 -0.9518
  137SAPE   C3714919   1.918   5.839   9.652  0.3142  0.1660  0.4007
  137SAPE   H7X14920   2.024   5.865   9.674 -0.1406  1.5711  0.9856
  137SAPE   H7Y14921   1.855   5.861   9.741 -0.7314  0.8976 -0.4972
  137SAPE   C3814922   1.878   5.917   9.522  0.1729 -0.5735 -0.9719
  137SAPE   H8X14923   1.850   6.022   9.545  0.3897 -0.6230 -0.4761
  137SAPE   H8Y14924   1.787   5.871   9.478 -0.7785 -0.0354  0.4234
  137SAPE   C3914925   1.984   5.928   9.418  0.7230 -0.6845 -0.1943
  137SAPE   H9X14926   1.995   5.828   9.372 -0.6317 -0.8773 -0.1200
  137SAPE   H9Y14927   2.074   5.966   9.471 -1.4890  2.4097  1.5313
  137SAPE  C31014928   1.933   6.034   9.316 -0.3746 -0.1909 -0.3818
  137SAPE  H10X14929   1.913   6.137   9.351  3.2477  0.9366 -1.4419
  137SAPE  H10Y14930   1.845   5.987   9.265 -0.8906 -0.2081  0.5108
  137SAPE  C31114931   2.043   6.055   9.202 -0.3093 -0.0372  0.3903
  137SAPE  H11X14932   2.096   5.959   9.184 -0.6552 -0.6689  2.5704
  137SAPE  H11Y14933   2.123   6.129   9.221 -2.8765  2.7701  0.7042
  137SAPE  C31214934   1.970   6.082   9.071 -0.3948  0.0556 -0.8463
  137SAPE  H12X14935   1.913   6.176   9.085 -0.7762 -0.1475 -1.0390
  137SAPE  H12Y14936   1.905   5.999   9.036 -0.4682 -1.2219  2.1273
  137SAPE  C31314937   2.074   6.093   8.958  0.0537 -0.2936  0.1284
  137SAPE  H13X14938   2.012   6.101   8.866  1.8297  3.2577 -0.8314
  137SAPE  H13Y14939   2.138   6.003   8.946 -0.6114 -0.9548  1.3778
  137SAPE  C31414940   2.174   6.218   8.969 -0.2572  0.8058 -0.2729
  137SAPE  H14X14941   2.254   6.191   9.041 -2.0680 -0.4281  1.3013
  137SAPE  H14Y14942   2.109   6.302   9.002 -0.0591  0.8792 -0.0725
  137SAPE  C31514943   2.240   6.256   8.834 -0.2558 -0.2005  0.1568
  137SAPE  H15X14944   2.286   6.357   8.841 -2.1507  0.6375  0.9762
  137SAPE  H15Y14945   2.166   6.269   8.752 -1.2970 -2.9889  0.5721
  137SAPE  C31614946   2.358   6.161   8.797  0.2192 -0.3625  0.3540
  137SAPE  H16X14947   2.313   6.075   8.744  0.3964 -1.1281  1.4494
  137SAPE  H16Y14948   2.407   6.120   8.887  0.8452 -2.9202 -1.1026
  137SAPE  C31714949   2.478   6.211   8.708 -0.1699 -0.0730 -0.8558
  137SAPE  H17X14950   2.551   6.128   8.702  0.6710  0.5568  0.4416
  137SAPE  H17Y14951   2.522   6.294   8.769 -3.6696 -0.1227  1.9223
  137SAPE  C31814952   2.442   6.260   8.565 -1.0528  0.6883  0.1499
  137SAPE  H18X14953   2.363   6.338   8.568 -0.5299  1.1772  1.8897
  137SAPE  H18Y14954   2.420   6.175   8.497  1.2696 -1.2920  1.7475
  137SAPE  H18Z14955   2.529   6.314   8.521 -1.2865 -0.4091 -1.7112
  138SAPE     N14956   4.493   6.656  10.695  0.2000  0.3916  0.0710
  138SAPE   HN114957   4.467   6.566  10.741  2.0179 -0.4690 -0.5157
  138SAPE   HN214958   4.501   6.735  10.762  0.5196 -1.6881  2.5992
  138SAPE   HN314959   4.410   6.683  10.639 -0.6412 -1.7157  0.2169
  138SAPE   C1214960   4.622   6.659  10.601  0.0503 -0.1574 -0.1256
  138SAPE  H12A14961   4.612   6.588  10.516  1.7278  0.3658 -0.7802
  138SAPE  H12B14962   4.710   6.629  10.661  1.4448  0.7596 -1.6604
  138SAPE   C1114963   4.637   6.805  10.549  0.6841  0.4231 -0.3995
  138SAPE  H11A14964   4.543   6.839  10.500 -0.8257 -1.8193  0.8785
  138SAPE  H11B14965   4.722   6.796  10.478 -0.7462 -0.1775 -2.0525
  138SAPE     P14966   4.807   6.933  10.701  0.4745  0.1893 -0.1123
  138SAPE   O1314967   4.821   7.056  10.787  0.2836 -0.0370  0.2977
  138SAPE   O1414968   4.877   6.808  10.750  0.4855  0.0545 -0.4502
  138SAPE   O1214969   4.662   6.890  10.664 -0.4906  1.0506  0.0827
  138SAPE   O1114970   4.857   6.965  10.554 -0.1450 -0.0477 -0.2531
  138SAPE    C114971   4.831   7.086  10.484  0.0162  0.1293  0.3683
  138SAPE    HA14972   4.735   7.138  10.503  0.0415 -0.3881  1.9302
  138SAPE    HB14973   4.917   7.154  10.501 -0.3487  0.7161 -0.1202
  138SAPE    C214974   4.843   7.051  10.327  0.3059 -0.1848 -0.2269
  138SAPE    HS14975   4.871   7.147  10.279  1.8165 -0.2868  0.4330
  138SAPE   O2114976   4.718   7.010  10.281 -0.0426  0.1817  0.2125
  138SAPE   C2114977   4.629   7.092  10.248  0.3502 -0.6115 -0.5812
  138SAPE   O2214978   4.634   7.214  10.278  0.4112  0.5104  0.0524
  138SAPE   C2214979   4.515   7.035  10.157 -0.3905  0.3665  0.2767
  138SAPE   H2R14980   4.533   6.926  10.142 -0.4989  0.4114 -0.1786
  138SAPE   H2S14981   4.416   7.044  10.206 -1.3609  1.0506 -1.7792
  138SAPE    C314982   4.949   6.944  10.302  0.4949 -0.5354  0.3825
  138SAPE    HX14983   4.921   6.847  10.349  0.9032 -0.8704 -0.0576
  138SAPE    HY14984   5.033   6.994  10.355  2.1793 -1.4803 -1.3227
  138SAPE   O3114985   4.981   6.926  10.166  0.4421 -0.1762  0.2274
  138SAPE   C3114986   5.061   6.819  10.129 -0.0788  0.2875 -1.6685
  138SAPE   O3214987   5.107   6.742  10.209 -0.0499  0.5610 -0.5851
  138SAPE   C3214988   5.088   6.822   9.982 -0.3764 -0.2593  0.3128
  138SAPE   H2X14989   5.164   6.901   9.961  0.3579 -0.7107  1.2823
  138SAPE   H2Y14990   4.992   6.841   9.928 -0.7658  0.0391  1.0927
  138SAPE   C2314991   4.499   7.117  10.026  0.3737  0.2591  0.4910
  138SAPE   H3R14992   4.594   7.108   9.969 -0.1643  0.5261 -0.4500
  138SAPE   H3S14993   4.490   7.225  10.049 -1.5587  0.6332 -1.7604
  138SAPE   C2414994   4.386   7.074   9.930 -0.3035 -0.7217  0.3778
  138SAPE   H4R14995   4.371   7.145   9.845 -0.8332 -1.1476  0.1092
  138SAPE   H4S14996   4.296   7.089   9.994  0.5254  2.2697  0.9101
  138SAPE   C2514997   4.390   6.934   9.873 -0.1328 -0.1806  0.0911
  138SAPE   H5R14998   4.393   6.866   9.960  2.2882  0.5373  0.6073
  138SAPE   C2614999   4.389   6.892   9.748  0.2621 -1.1254  0.1703
  138SAPE   H6R15000   4.382   6.787   9.717 -1.0352 -1.0835  0.2883
  138SAPE   C2715001   4.375   6.979   9.628  0.4379 -0.2446 -0.2275
  138SAPE   H7R15002   4.321   7.075   9.645 -0.6109 -0.5714 -1.6363
  138SAPE   H7S15003   4.317   6.919   9.555  0.4591  1.1060 -1.3713
  138SAPE   C2815004   4.499   7.025   9.556  0.3945 -0.0304  0.0242
  138SAPE   H8R15005   4.573   7.076   9.618  1.7131 -1.4547 -0.3214
  138SAPE   C2915006   4.527   7.009   9.426  0.1098 -0.3771  1.0992
  138SAPE   H9R15007   4.628   7.029   9.388 -0.3613  1.0865  0.5865
  138SAPE  C21015008   4.438   6.937   9.329 -0.1557  0.7130  0.0317
  138SAPE  H10R15009   4.359   7.005   9.290  1.8956  2.9232 -0.4235
  138SAPE  H10S15010   4.381   6.853   9.374 -0.1031  0.6279 -0.0619
  138SAPE  C21115011   4.511   6.895   9.203 -0.1443 -0.4714  0.6997
  138SAPE  H11R15012   4.542   6.790   9.201 -1.4130 -0.8570  0.3972
  138SAPE  C21215013   4.545   6.970   9.091 -1.0134 -0.2319  0.1082
  138SAPE  H12R15014   4.596   6.925   9.005 -0.6657  1.6855 -0.7257
  138SAPE  C21315015   4.508   7.114   9.061  0.3851  0.1426 -0.0390
  138SAPE  H13R15016   4.468   7.172   9.147  0.0137 -1.0253  0.5916
  138SAPE  H13S15017   4.418   7.102   8.997 -0.8795 -0.7268  1.8419
  138SAPE  C21415018   4.618   7.187   9.000 -0.2317 -0.0778 -0.0766
  138SAPE  H14R15019   4.661   7.130   8.917 -0.5552  1.1470 -1.1045
  138SAPE  C21515020   4.668   7.308   9.037 -0.5657 -0.4868  0.0987
  138SAPE  H15R15021   4.751   7.342   8.974 -0.6101 -0.4824  0.0436
  138SAPE  C21615022   4.621   7.405   9.140  0.1222  1.5278  0.9041
  138SAPE  H16R15023   4.709   7.457   9.185  1.5640  0.9212 -1.1655
  138SAPE  H16S15024   4.576   7.354   9.228  1.8839  1.7826  1.9752
  138SAPE  C21715025   4.512   7.508   9.090  0.3528  0.3309  0.8537
  138SAPE  H17R15026   4.414   7.463   9.065  1.7849 -1.8063 -1.0898
  138SAPE  H17S15027   4.555   7.553   8.997 -1.8750  2.5227  0.8278
  138SAPE  C21815028   4.493   7.624   9.194 -0.0888  0.2033  0.4299
  138SAPE  H18R15029   4.577   7.697   9.187 -0.6013  0.7553  0.0611
  138SAPE  H18S15030   4.495   7.594   9.301  2.0969  0.4518  0.4830
  138SAPE  C21915031   4.369   7.709   9.156  0.3741 -0.0627  0.5106
  138SAPE  H19R15032   4.281   7.671   9.213 -1.0050  1.1938 -0.7606
  138SAPE  H19S15033   4.343   7.722   9.049 -1.8039  0.8361  1.1116
  138SAPE  C22015034   4.392   7.843   9.226 -0.1421  0.3065  0.3629
  138SAPE  H20R15035   4.486   7.887   9.188  0.9170 -0.6762  1.7845
  138SAPE  H20S15036   4.410   7.830   9.335  1.1994 -1.4787 -0.0555
  138SAPE  H20T15037   4.299   7.903   9.218 -0.6238 -0.1690  2.1164
  138SAPE   C3315038   5.160   6.695   9.930 -0.0117 -0.0177  0.0317
  138SAPE   H3X15039   5.239   6.668  10.003 -1.4472  0.4346  1.8030
  138SAPE   H3Y15040   5.217   6.727   9.840 -0.1462  0.1205 -0.0037
  138SAPE   C3415041   5.073   6.572   9.905 -0.4266 -0.0783 -0.0557
  138SAPE   H4X15042   4.976   6.591   9.853 -1.0181 -2.2628  0.1707
  138SAPE   H4Y15043   5.041   6.539  10.006  0.1958 -2.8573 -0.7271
  138SAPE   C3515044   5.151   6.475   9.826 -0.4177 -0.0527  0.0248
  138SAPE   H5X15045   5.250   6.453   9.871  0.2604  0.1484 -1.3163
  138SAPE   H5Y15046   5.171   6.504   9.720  1.4150 -0.5566  0.2135
  138SAPE   C3615047   5.090   6.330   9.827 -0.4882  0.4634  0.9340
  138SAPE   H6X15048   5.095   6.297   9.933 -2.3738 -0.9488  0.6041
  138SAPE   H6Y15049   5.160   6.269   9.766  2.3830  3.3632  1.1586
  138SAPE   C3715050   4.941   6.328   9.782  0.5852 -0.2478 -0.4295
  138SAPE   H7X15051   4.880   6.412   9.821  0.2332 -0.0917 -1.3041
  138SAPE   H7Y15052   4.908   6.231   9.826 -1.0126  0.1900 -0.6361
  138SAPE   C3815053   4.939   6.338   9.624 -0.3285 -0.0665  0.2800
  138SAPE   H8X15054   5.025   6.278   9.587  0.2790  1.8666 -1.5595
  138SAPE   H8Y15055   4.954   6.445   9.595  1.3584 -0.5118 -0.5643
  138SAPE   C3915056   4.818   6.272   9.563  0.1998  0.5099 -0.2425
  138SAPE   H9X15057   4.725   6.330   9.579 -0.0830  0.3874 -1.4323
  138SAPE   H9Y15058   4.798   6.176   9.616  0.0569  1.1748  0.9420
  138SAPE  C31015059   4.850   6.233   9.411 -0.0459 -0.7128  0.8136
  138SAPE  H10X15060   4.891   6.329   9.371  0.1204 -0.0801  2.4736
  138SAPE  H10Y15061   4.756   6.212   9.354  0.1867  0.4197 -0.0042
  138SAPE  C31115062   4.936   6.108   9.397 -0.1881  0.3184  0.7381
  138SAPE  H11X15063   4.914   6.041   9.482  1.9824  1.0149  1.8889
  138SAPE  H11Y15064   5.043   6.138   9.404 -0.6340  1.4283  3.3520
  138SAPE  C31215065   4.927   6.031   9.266  0.6610 -0.3149 -0.4090
  138SAPE  H12X15066   4.944   6.104   9.184 -1.2358  0.7017  0.0720
  138SAPE  H12Y15067   4.826   5.986   9.266  0.1492  0.5216  3.9821
  138SAPE  C31315068   5.042   5.927   9.248  0.1534  0.8152 -0.2373
  138SAPE  H13X15069   5.046   5.864   9.340 -1.9998 -0.4119 -0.9251
  138SAPE  H13Y15070   5.138   5.974   9.218  1.4836  0.3394  3.0723
  138SAPE  C31415071   5.024   5.816   9.140  0.4646 -0.3623  0.1390
  138SAPE  H14X15072   4.917   5.787   9.133  0.8045 -1.7013  0.4307
  138SAPE  H14Y15073   5.078   5.725   9.173  1.4198  0.3037  0.4335
  138SAPE  C31515074   5.075   5.862   9.007  0.5306  0.5740  0.2153
  138SAPE  H15X15075   5.178   5.902   9.002  0.3870  0.8257 -1.2228
  138SAPE  H15Y15076   5.021   5.952   8.969 -0.2283  0.1240  0.2151
  138SAPE  C31615077   5.053   5.756   8.891  0.2730 -0.6306 -0.4337
  138SAPE  H16X15078   4.945   5.728   8.885 -0.0623  0.9635 -2.2056
  138SAPE  H16Y15079   5.114   5.666   8.915 -0.3096 -0.7005  0.8860
  138SAPE  C31715080   5.076   5.818   8.759  0.0043  0.4570 -0.1758
  138SAPE  H17X15081   5.186   5.827   8.749  0.1457 -0.9209  0.0382
  138SAPE  H17Y15082   5.032   5.920   8.770  1.3745  1.2784 -2.0400
  138SAPE  C31815083   5.005   5.751   8.646 -0.3430  0.3326  0.7151
  138SAPE  H18X15084   4.895   5.766   8.656 -0.0174  5.3168 -1.6108
  138SAPE  H18Y15085   5.011   5.641   8.648 -0.4355  0.3289  0.8689
  138SAPE  H18Z15086   5.039   5.795   8.550 -0.6891 -0.7388  0.0923
  139SAPE     N15087   5.369   6.103  10.631  0.0486 -0.4997 -0.4254
  139SAPE   HN115088   5.404   6.120  10.534  2.8632  1.9658  0.9125
  139SAPE   HN215089   5.266   6.111  10.632  0.1000  0.0723  1.3882
  139SAPE   HN315090   5.416   6.171  10.695 -0.5720  0.3784 -0.8836
  139SAPE   C1215091   5.396   5.952  10.667 -0.2381 -0.3238 -0.3765
  139SAPE  H12A15092   5.331   5.935  10.756  1.6962 -1.3605  0.8772
  139SAPE  H12B15093   5.504   5.948  10.691 -0.0445  2.4474 -0.6209
  139SAPE   C1115094   5.356   5.858  10.550  0.7241 -0.8268 -0.0232
  139SAPE  H11A15095   5.363   5.751  10.580  0.6306 -0.5644  0.9536
  139SAPE  H11B15096   5.443   5.869  10.481  1.8562 -1.0427  1.3501
  139SAPE     P15097   5.096   5.838  10.508 -0.2734 -0.3397  0.0917
  139SAPE   O1315098   5.103   5.734  10.616  0.8521 -0.6951  0.0605
  139SAPE   O1415099   5.009   5.953  10.539 -0.7676 -0.0023 -0.0900
  139SAPE   O1215100   5.237   5.896  10.482 -0.2746  0.3673  0.4471
  139SAPE   O1115101   5.054   5.774  10.374  0.1585  0.0402 -0.0894
  139SAPE    C115102   5.155   5.719  10.289 -0.5861  0.5500  1.1728
  139SAPE    HA15103   5.227   5.797  10.258  0.5652 -0.8186  0.2979
  139SAPE    HB15104   5.216   5.640  10.338  0.7585  0.4069 -0.6773
  139SAPE    C215105   5.095   5.661  10.157  0.7571 -0.4938 -0.3136
  139SAPE    HS15106   5.177   5.626  10.091  0.9928 -0.4117 -0.0654
  139SAPE   O2115107   5.000   5.749  10.092  0.0726  0.2139 -0.3570
  139SAPE   C2115108   5.064   5.840  10.021  0.7419 -0.0325  0.0602
  139SAPE   O2215109   5.182   5.846   9.986  0.7809 -0.2193 -0.0146
  139SAPE   C2215110   4.960   5.949   9.995  0.6941 -0.1219 -0.0285
  139SAPE   H2R15111   4.903   5.960  10.089 -0.2260 -1.2238 -0.4391
  139SAPE   H2S15112   5.007   6.048   9.978 -0.9106  0.7810  0.6919
  139SAPE    C315113   5.011   5.535  10.178  0.2227  0.0008  0.2841
  139SAPE    HX15114   4.958   5.504  10.085 -2.0565  0.2128  1.4663
  139SAPE    HY15115   4.933   5.546  10.257 -0.9477  0.6698 -0.9456
  139SAPE   O3115116   5.102   5.425  10.221  0.1042 -0.2387  0.5866
  139SAPE   C3115117   5.166   5.361  10.119  0.8410 -0.7650 -0.0184
  139SAPE   O3215118   5.164   5.392  10.001 -0.6192 -0.4754 -0.4221
  139SAPE   C3215119   5.235   5.235  10.176  0.7818  0.2111 -0.2150
  139SAPE   H2X15120   5.267   5.254  10.281 -0.6026  2.0850 -0.1075
  139SAPE   H2Y15121   5.330   5.210  10.123  1.1176 -0.8051  0.8522
  139SAPE   C2315122   4.865   5.912   9.878  0.2812 -0.0334 -0.9168
  139SAPE   H3R15123   4.772   5.968   9.902  0.5924 -0.4286  1.3243
  139SAPE   H3S15124   4.851   5.803   9.896 -0.7418  0.4650  1.4278
  139SAPE   C2415125   4.919   5.949   9.735  0.1319 -0.6033  0.3546
  139SAPE   H4R15126   4.953   6.055   9.737 -2.4362  0.3561 -2.9282
  139SAPE   H4S15127   4.833   5.946   9.664 -0.4710 -0.2729  1.0698
  139SAPE   C2515128   5.032   5.853   9.685 -0.2985  0.4505 -0.1228
  139SAPE   H5R15129   5.137   5.873   9.712  0.5957 -2.4562 -1.2324
  139SAPE   C2615130   5.013   5.740   9.614 -0.6325 -0.2231  0.2809
  139SAPE   H6R15131   5.106   5.683   9.600 -0.2331  0.5251 -0.1534
  139SAPE   C2715132   4.881   5.680   9.573  0.2378  0.0231  0.2202
  139SAPE   H7R15133   4.796   5.748   9.597  0.6369 -0.1746  2.2641
  139SAPE   H7S15134   4.864   5.584   9.626 -1.7762  0.5923  0.6807
  139SAPE   C2815135   4.877   5.652   9.421  0.6008  1.0887  0.3656
  139SAPE   H8R15136   4.977   5.643   9.376  0.8067  0.1214  1.0039
  139SAPE   C2915137   4.774   5.652   9.337 -0.7274  0.3577  0.6204
  139SAPE   H9R15138   4.788   5.620   9.232  0.4868  1.6429  0.3862
  139SAPE  C21015139   4.625   5.678   9.362  0.4792 -0.4442  0.6490
  139SAPE  H10R15140   4.581   5.740   9.281  1.3547 -1.7006 -0.8191
  139SAPE  H10S15141   4.613   5.731   9.458  2.4182  1.2378 -0.0083
  139SAPE  C21115142   4.545   5.551   9.376  0.1102 -0.0207  0.1141
  139SAPE  H11R15143   4.559   5.494   9.469  2.5961 -0.0954 -0.2619
  139SAPE  C21215144   4.464   5.490   9.288  0.3715 -0.1011  0.1964
  139SAPE  H12R15145   4.415   5.395   9.312  1.4263 -0.5130  0.7481
  139SAPE  C21315146   4.422   5.542   9.154 -0.1125 -0.7330 -0.5298
  139SAPE  H13R15147   4.501   5.533   9.077  0.6511 -1.1802  0.3019
  139SAPE  H13S15148   4.389   5.648   9.157 -0.0955 -0.7845  1.8067
  139SAPE  C21415149   4.301   5.467   9.095  0.0847 -0.3969 -0.1471
  139SAPE  H14R15150   4.207   5.520   9.116  0.3965  0.5720 -1.1771
  139SAPE  C21515151   4.304   5.366   9.004 -0.2971 -0.8878 -0.0935
  139SAPE  H15R15152   4.216   5.328   8.950 -1.2235  1.5452 -0.3603
  139SAPE  C21615153   4.424   5.293   8.954 -0.5456  0.2496  0.0103
  139SAPE  H16R15154   4.468   5.236   9.039 -1.8110 -0.4985  0.1794
  139SAPE  H16S15155   4.505   5.366   8.939  0.3781 -0.4306  1.5793
  139SAPE  C21715156   4.414   5.218   8.818 -0.9975  0.1336  0.3983
  139SAPE  H17R15157   4.418   5.282   8.727  1.7140 -1.2287 -0.4758
  139SAPE  H17S15158   4.320   5.159   8.807  0.0572 -2.0795  2.8388
  139SAPE  C21815159   4.533   5.120   8.794  0.7936  0.1236  0.8613
  139SAPE  H18R15160   4.517   5.044   8.873  0.4248 -0.6603  0.0387
  139SAPE  H18S15161   4.632   5.168   8.811  1.2645  0.2463 -1.9618
  139SAPE  C21915162   4.546   5.046   8.661 -0.4451  0.1358 -0.0965
  139SAPE  H19R15163   4.645   4.996   8.665 -0.9170 -0.9111 -1.1753
  139SAPE  H19S15164   4.550   5.117   8.575  1.1518 -1.6660 -1.5621
  139SAPE  C22015165   4.438   4.939   8.641 -0.0471  0.2523  0.0189
  139SAPE  H20R15166   4.339   4.983   8.668  0.5501  2.6120 -1.4727
  139SAPE  H20S15167   4.468   4.849   8.699  0.9531 -0.3995 -1.5035
  139SAPE  H20T15168   4.431   4.919   8.532  0.1784 -0.7514  0.1895
  139SAPE   C3315169   5.142   5.119  10.182  0.2643  0.3616  0.1306
  139SAPE   H3X15170   5.070   5.098  10.101  2.0140 -1.4726 -0.9997
  139SAPE   H3Y15171   5.073   5.133  10.269  0.8660  1.2604  0.4723
  139SAPE   C3415172   5.225   4.985  10.209 -0.1158 -0.4693 -0.0632
  139SAPE   H4X15173   5.158   4.905  10.247  1.1064 -1.2660  0.4708
  139SAPE   H4Y15174   5.294   5.002  10.294  0.8361  2.6022 -1.3949
  139SAPE   C3515175   5.300   4.918  10.082 -0.5627 -0.5959 -0.2390
  139SAPE   H5X15176   5.384   4.854  10.118 -0.2587 -0.2559 -0.3434
  139SAPE   H5Y15177   5.338   5.011  10.036  0.1649  0.3074  2.1213
  139SAPE   C3615178   5.204   4.839   9.990  0.0329  0.7565  0.8085
  139SAPE   H6X15179   5.109   4.896   9.988  1.2756  2.9528  2.1386
  139SAPE   H6Y15180   5.192   4.742  10.044 -1.1140  0.8233  0.6886
  139SAPE   C3715181   5.257   4.829   9.850  0.5039  0.2961  0.1595
  139SAPE   H7X15182   5.353   4.774   9.847  0.9614  0.9815  1.9145
  139SAPE   H7Y15183   5.284   4.927   9.806  2.7657 -0.3258  0.0898
  139SAPE   C3815184   5.169   4.755   9.743 -0.0243 -0.4682 -0.3792
  139SAPE   H8X15185   5.075   4.813   9.735  0.6902  0.7317 -0.1264
  139SAPE   H8Y15186   5.147   4.655   9.786  0.0049 -1.2087 -2.0133
  139SAPE   C3915187   5.238   4.750   9.603  0.7700  0.0430  0.7639
  139SAPE   H9X15188   5.341   4.707   9.602  0.8247  0.0181 -3.6977
  139SAPE   H9Y15189   5.248   4.857   9.572  1.1883 -0.3101 -0.3759
  139SAPE  C31015190   5.166   4.666   9.495 -0.3646  0.7038  0.2616
  139SAPE  H10X15191   5.060   4.697   9.502 -0.3231  1.3904 -1.8390
  139SAPE  H10Y15192   5.182   4.558   9.517  1.4408  0.7867 -0.5637
  139SAPE  C31115193   5.220   4.701   9.354  0.0726 -0.3747 -0.8759
  139SAPE  H11X15194   5.328   4.674   9.354 -0.0345 -0.8475  1.1173
  139SAPE  H11Y15195   5.208   4.811   9.340 -0.1647 -0.6139 -2.6325
  139SAPE  C31215196   5.140   4.638   9.241  1.1762 -0.0987  0.2099
  139SAPE  H12X15197   5.039   4.682   9.226  1.3389  0.0219 -0.5341
  139SAPE  H12Y15198   5.123   4.535   9.280  0.9474 -0.8328 -1.7620
  139SAPE  C31315199   5.215   4.617   9.111 -0.1779  1.3387 -0.2791
  139SAPE  H13X15200   5.321   4.589   9.128 -0.4681  1.6432  2.2557
  139SAPE  H13Y15201   5.223   4.710   9.050 -0.1978 -0.0999 -2.5413
  139SAPE  C31415202   5.140   4.513   9.022  0.1544 -0.3394 -0.1351
  139SAPE  H14X15203   5.030   4.528   9.014  0.1860 -0.8491 -1.6069
  139SAPE  H14Y15204   5.158   4.409   9.058 -1.3960 -0.5263  0.1427
  139SAPE  C31515205   5.191   4.511   8.879 -0.5916 -0.1015  0.1125
  139SAPE  H15X15206   5.300   4.489   8.887 -0.7990 -1.2165 -0.0308
  139SAPE  H15Y15207   5.173   4.614   8.841 -1.5680 -0.0829  0.6225
  139SAPE  C31615208   5.141   4.399   8.792  0.1578 -0.2275 -0.1236
  139SAPE  H16X15209   5.166   4.299   8.834 -3.0219 -0.4418  1.4123
  139SAPE  H16Y15210   5.030   4.407   8.791 -0.0193 -2.4239  0.3187
  139SAPE  C31715211   5.192   4.425   8.650  0.1355 -0.5696  0.6191
  139SAPE  H17X15212   5.302   4.414   8.654  0.3135  0.1341 -1.6321
  139SAPE  H17Y15213   5.173   4.525   8.606 -1.9309 -1.2566 -0.1065
  139SAPE  C31815214   5.130   4.320   8.552  0.7604  0.4408 -0.4678
  139SAPE  H18X15215   5.133   4.221   8.602  0.8913  1.1039  0.8662
  139SAPE  H18Y15216   5.198   4.320   8.464 -2.9547 -1.1225 -3.4643
  139SAPE  H18Z15217   5.025   4.334   8.517  0.6873  3.8655  0.9343
  140SAPE     N15218   0.653   2.747  10.801 -0.0311 -0.1569  0.8931
  140SAPE   HN115219   0.747   2.710  10.775 -0.9745 -1.3691 -0.9804
  140SAPE   HN215220   0.584   2.707  10.733 -1.1373  1.1777  1.2120
  140SAPE   HN315221   0.649   2.850  10.790  0.3197 -0.1973  0.3886
  140SAPE   C1215222   0.623   2.706  10.944  0.0181  0.6382 -0.5768
  140SAPE  H12A15223   0.522   2.741  10.976 -0.1441 -0.1824 -0.1847
  140SAPE  H12B15224   0.692   2.761  11.011  0.3132 -1.1631  0.6379
  140SAPE   C1115225   0.654   2.552  10.962  0.3336  0.1477 -0.0012
  140SAPE  H11A15226   0.644   2.534  11.071 -2.2301 -0.8427 -0.3641
  140SAPE  H11B15227   0.760   2.532  10.936  0.5702 -1.0492  1.7372
  140SAPE     P15228   0.535   2.327  10.905  0.1879  0.4318  0.1888
  140SAPE   O1315229   0.606   2.280  11.027  0.2007  0.0511 -0.1148
  140SAPE   O1415230   0.384   2.299  10.890 -0.5414 -0.1607  0.4362
  140SAPE   O1215231   0.568   2.473  10.876  0.2463  0.3838  0.4488
  140SAPE   O1115232   0.610   2.250  10.786  0.1318  0.3229 -0.5183
  140SAPE    C115233   0.709   2.320  10.708  0.5716 -0.5210 -0.3997
  140SAPE    HA15234   0.672   2.412  10.657  1.6076 -1.0602 -2.1459
  140SAPE    HB15235   0.800   2.343  10.768 -0.3560 -0.0702  0.8515
  140SAPE    C215236   0.766   2.231  10.590 -0.4705  0.0838  0.2859
  140SAPE    HS15237   0.796   2.138  10.642 -1.1032  0.2766  1.0040
  140SAPE   O2115238   0.881   2.298  10.533 -0.2824 -0.0291  0.8457
  140SAPE   C2115239   0.992   2.260  10.597  0.2830  1.2456 -0.2111
  140SAPE   O2215240   1.005   2.176  10.686 -0.1802 -0.5303  0.3698
  140SAPE   C2215241   1.110   2.323  10.538  0.3350 -0.3414 -0.0130
  140SAPE   H2R15242   1.075   2.395  10.461 -0.3247 -0.4645  0.1630
  140SAPE   H2S15243   1.174   2.375  10.613  0.8712 -0.3822 -0.4388
  140SAPE    C315244   0.659   2.206  10.479  0.0248 -0.2634 -0.1614
  140SAPE    HX15245   0.618   2.303  10.445 -1.4185 -1.3319 -1.5711
  140SAPE    HY15246   0.574   2.153  10.530  0.0329  0.1030  0.2369
  140SAPE   O3115247   0.697   2.128  10.370 -0.2698 -0.1086 -0.8326
  140SAPE   C3115248   0.613   2.115  10.283 -0.6516  0.0560  0.2892
  140SAPE   O3215249   0.499   2.163  10.282 -0.5904 -0.1617  0.0758
  140SAPE   C3215250   0.670   2.041  10.162 -0.3723  0.5677 -0.0308
  140SAPE   H2X15251   0.707   1.944  10.203 -0.5498  0.5176  0.0150
  140SAPE   H2Y15252   0.753   2.100  10.118  0.5819 -0.7446 -0.0189
  140SAPE   C2315253   1.184   2.213  10.465 -0.1126 -0.1385 -0.9543
  140SAPE   H3R15254   1.192   2.120  10.525 -3.3474 -1.0786 -1.8331
  140SAPE   H3S15255   1.283   2.257  10.440 -0.2191  0.2994 -0.6263
  140SAPE   C2415256   1.122   2.190  10.329  0.9256 -0.3861  0.7644
  140SAPE   H4R15257   1.109   2.290  10.282  2.0351 -0.0847  1.0738
  140SAPE   H4S15258   1.025   2.136  10.338 -0.8852  2.5685 -0.3800
  140SAPE   C2515259   1.221   2.099  10.262  0.3482 -0.2345  0.1777
  140SAPE   H5R15260   1.220   1.999  10.309 -1.7384 -0.8586 -1.1098
  140SAPE   C2615261   1.305   2.119  10.152  0.2182  0.0134 -0.0113
  140SAPE   H6R15262   1.364   2.031  10.123  0.7296  0.7217 -1.1440
  140SAPE   C2715263   1.304   2.238  10.054  0.7545  0.3002  0.1694
  140SAPE   H7R15264   1.379   2.312  10.088  0.6348  0.8326 -0.7039
  140SAPE   H7S15265   1.205   2.283  10.076  0.3926 -1.3651  2.1808
  140SAPE   C2815266   1.324   2.183   9.914  0.5298 -0.2360 -0.4755
  140SAPE   H8R15267   1.232   2.153   9.863  0.4685  0.7288 -0.9479
  140SAPE   C2915268   1.440   2.182   9.844  0.4405 -0.0246  0.2973
  140SAPE   H9R15269   1.434   2.164   9.735 -0.7009 -0.5486  0.4423
  140SAPE  C21015270   1.578   2.231   9.889 -0.2764  0.1928 -0.0558
  140SAPE  H10R15271   1.564   2.294   9.979  2.0545  0.1274  0.3742
  140SAPE  H10S15272   1.618   2.302   9.815 -0.0804 -1.1615 -1.2619
  140SAPE  C21115273   1.675   2.121   9.926 -0.7841 -0.2059 -0.9595
  140SAPE  H11R15274   1.660   2.074  10.024 -3.0604 -1.3936 -1.8080
  140SAPE  C21215275   1.755   2.056   9.841  0.4275 -0.0269  0.0747
  140SAPE  H12R15276   1.817   1.970   9.872 -2.3374 -2.9158 -2.1440
  140SAPE  C21315277   1.776   2.084   9.689 -0.7512  0.4822 -0.1636
  140SAPE  H13R15278   1.708   2.161   9.648 -0.6068  1.4612  1.4158
  140SAPE  H13S15279   1.756   1.987   9.637  1.1150 -0.8722  1.5558
  140SAPE  C21415280   1.918   2.141   9.665 -0.0988 -0.8397  0.5301
  140SAPE  H14R15281   1.966   2.170   9.760  1.1441 -1.1184  0.0093
  140SAPE  C21515282   1.994   2.156   9.551 -0.1362  0.5203 -0.2954
  140SAPE  H15R15283   2.100   2.185   9.559 -0.5878  2.3908 -0.9576
  140SAPE  C21615284   1.944   2.113   9.416 -1.0303  0.9377 -0.3907
  140SAPE  H16R15285   1.958   2.206   9.356 -1.1069  2.0736  1.3182
  140SAPE  H16S15286   1.842   2.070   9.414  0.2128 -2.1471 -1.0064
  140SAPE  C21715287   2.020   1.991   9.360 -0.2592  0.8410 -0.1263
  140SAPE  H17R15288   1.982   1.895   9.403  0.4340  0.1363 -1.0781
  140SAPE  H17S15289   2.127   1.999   9.388 -0.6805 -1.9076  2.5300
  140SAPE  C21815290   2.008   1.981   9.211 -0.3429  0.0233  0.5043
  140SAPE  H18R15291   2.038   2.081   9.171  0.4645 -0.4076  0.0196
  140SAPE  H18S15292   1.906   1.951   9.179 -1.5890  1.2342  3.1791
  140SAPE  C21915293   2.097   1.869   9.157 -0.0371 -0.2996  0.0506
  140SAPE  H19R15294   2.083   1.783   9.227  0.6371  0.2346  0.8608
  140SAPE  H19S15295   2.200   1.905   9.175  0.7945 -2.6533  0.1597
  140SAPE  C22015296   2.078   1.840   9.012 -0.7082  1.2664 -0.2431
  140SAPE  H20R15297   2.134   1.912   8.948  1.1154  0.6074  0.5532
  140SAPE  H20S15298   1.968   1.845   9.000 -0.8349 -1.6732 -0.5769
  140SAPE  H20T15299   2.101   1.734   8.992 -0.1584  1.3390 -0.0135
  140SAPE   C3315300   0.559   2.027  10.056 -0.2855 -0.4676 -0.6767
  140SAPE   H3X15301   0.533   2.128  10.017 -0.1604  0.0700  0.5971
  140SAPE   H3Y15302   0.469   1.982  10.102  0.2429 -0.1141  0.7429
  140SAPE   C3415303   0.606   1.945   9.941 -0.7431 -0.4292  0.3086
  140SAPE   H4X15304   0.657   1.852   9.976 -1.5773 -1.3581 -0.9053
  140SAPE   H4Y15305   0.694   2.000   9.902  0.3157 -1.8611  0.6300
  140SAPE   C3515306   0.498   1.922   9.833 -0.3778  0.2110 -0.1619
  140SAPE   H5X15307   0.425   2.006   9.828 -0.2433  0.3843  0.7423
  140SAPE   H5Y15308   0.435   1.835   9.858 -2.2741  1.2995 -1.0534
  140SAPE   C3615309   0.559   1.913   9.698 -0.2277  0.4394 -0.4061
  140SAPE   H6X15310   0.604   1.813   9.687  1.8442  1.4677 -1.4426
  140SAPE   H6Y15311   0.646   1.982   9.693  0.7008 -0.5733  1.3433
  140SAPE   C3715312   0.461   1.945   9.582  0.5652 -0.3891  0.8226
  140SAPE   H7X15313   0.464   2.056   9.578  0.2396 -0.4157 -0.5007
  140SAPE   H7Y15314   0.363   1.911   9.621  0.3019 -0.3431  0.2223
  140SAPE   C3815315   0.486   1.883   9.448 -0.3696  0.6648 -0.0524
  140SAPE   H8X15316   0.484   1.773   9.464 -0.4397  0.7057  0.2244
  140SAPE   H8Y15317   0.577   1.922   9.399  0.5428  1.4540  2.2173
  140SAPE   C3915318   0.374   1.916   9.348  0.2939 -0.7725  0.5814
  140SAPE   H9X15319   0.341   2.022   9.344 -0.2930 -0.8993  1.7300
  140SAPE   H9Y15320   0.289   1.866   9.400 -1.5701  3.6991  2.0518
  140SAPE  C31015321   0.378   1.851   9.211 -0.3724 -0.1979  0.2896
  140SAPE  H10X15322   0.274   1.835   9.176 -0.8232 -0.6146  1.7683
  140SAPE  H10Y15323   0.425   1.751   9.227 -1.2354 -0.7850 -0.7496
  140SAPE  C31115324   0.461   1.926   9.111  0.1252  0.6648  0.2447
  140SAPE  H11X15325   0.555   1.947   9.167  0.0693  0.1902  0.5222
  140SAPE  H11Y15326   0.413   2.022   9.084  0.0698  0.0504 -1.9432
  140SAPE  C31215327   0.489   1.857   8.982 -0.5926 -0.7997 -0.7446
  140SAPE  H12X15328   0.562   1.775   8.999 -0.9792 -0.6568  1.7563
  140SAPE  H12Y15329   0.544   1.929   8.918 -0.6485 -0.2591 -0.1893
  140SAPE  C31315330   0.372   1.796   8.900 -0.3110 -0.4037  0.0868
  140SAPE  H13X15331   0.310   1.881   8.865  0.8829  0.3466 -0.2098
  140SAPE  H13Y15332   0.312   1.729   8.966 -0.0247 -0.1244  0.6338
  140SAPE  C31415333   0.409   1.702   8.775  0.1017  0.4467  0.6207
  140SAPE  H14X15334   0.466   1.622   8.826  0.5731  1.7301  2.1674
  140SAPE  H14Y15335   0.483   1.742   8.703  1.1047  2.3114  2.6001
  140SAPE  C31515336   0.278   1.637   8.716 -0.7300  0.9780  0.6531
  140SAPE  H15X15337   0.216   1.720   8.676 -1.5715 -0.5675 -1.3799
  140SAPE  H15Y15338   0.211   1.584   8.787 -1.9718 -1.4639 -2.1900
  140SAPE  C31615339   0.295   1.532   8.595  0.3317 -0.6640 -0.2050
  140SAPE  H16X15340   0.346   1.439   8.628  0.3155  0.4841  3.3591
  140SAPE  H16Y15341   0.347   1.584   8.512  1.0008  0.0377  0.6423
  140SAPE  C31715342   0.156   1.485   8.542  0.3506 -0.5590  0.1192
  140SAPE  H17X15343   0.095   1.574   8.516  1.6987  0.4176  0.2817
  140SAPE  H17Y15344   0.098   1.446   8.628 -0.4913 -1.0417 -0.6474
  140SAPE  C31815345   0.144   1.378   8.434  0.1476 -0.3145  0.2131
  140SAPE  H18X15346   0.230   1.308   8.447 -0.8983 -1.2376  2.4963
  140SAPE  H18Y15347   0.135   1.436   8.340 -3.0567  1.3742  1.4891
  140SAPE  H18Z15348   0.042   1.333   8.442 -0.9077  2.2856  1.9742
  141SAPE     N15349   1.153   1.945  10.765  0.4626 -0.3093  0.1536
  141SAPE   HN115350   1.179   1.915  10.669  1.6862 -1.3228  0.7867
  141SAPE   HN215351   1.108   1.861  10.808 -0.0833  0.0611  0.3159
  141SAPE   HN315352   1.084   2.023  10.759  0.9180  0.0894  0.1112
  141SAPE   C1215353   1.269   1.997  10.852 -0.2997 -0.2451 -0.6086
  141SAPE  H12A15354   1.247   2.013  10.960  1.7487  0.3573 -0.2710
  141SAPE  H12B15355   1.291   2.097  10.811 -1.6287 -0.0061 -0.7769
  141SAPE   C1115356   1.396   1.907  10.833 -0.3146 -0.2373  0.0654
  141SAPE  H11A15357   1.399   1.885  10.724  0.1489  1.4290 -0.2704
  141SAPE  H11B15358   1.384   1.808  10.882  0.9184 -0.1476  0.5514
  141SAPE     P15359   1.588   2.093  10.827 -0.4005 -0.3485 -0.6143
  141SAPE   O1315360   1.566   2.196  10.933 -0.3927  0.1990 -0.0074
  141SAPE   O1415361   1.726   2.058  10.800  0.5402  0.1353  0.2556
  141SAPE   O1215362   1.517   1.963  10.876 -0.2231 -0.2243 -0.3731
  141SAPE   O1115363   1.507   2.146  10.705 -0.0700 -0.7897  0.0628
  141SAPE    C115364   1.538   2.099  10.571 -0.2439  0.6019 -0.1977
  141SAPE    HA15365   1.572   1.993  10.565  0.6226  0.8700  0.0338
  141SAPE    HB15366   1.443   2.099  10.513  1.4542  0.7615 -3.0643
  141SAPE    C215367   1.634   2.201  10.503  0.8694 -0.4299 -0.0466
  141SAPE    HS15368   1.731   2.195  10.556  1.4078  1.2416 -0.8072
  141SAPE   O2115369   1.579   2.334  10.526  0.2565  0.6436 -0.3497
  141SAPE   C2115370   1.649   2.438  10.487 -0.4562  0.9397 -0.2441
  141SAPE   O2215371   1.762   2.443  10.446 -0.3833  1.0136 -0.0626
  141SAPE   C2215372   1.554   2.567  10.494 -0.6246  0.5497  0.1901
  141SAPE   H2R15373   1.453   2.524  10.514 -1.2573  2.1269  0.4352
  141SAPE   H2S15374   1.585   2.631  10.580  1.0324  0.4442 -0.3094
  141SAPE    C315375   1.649   2.180  10.354  0.7443  0.2850 -0.4435
  141SAPE    HX15376   1.742   2.232  10.323  0.7685  0.3245 -0.3025
  141SAPE    HY15377   1.564   2.225  10.299  1.3272  2.2588  0.2425
  141SAPE   O3115378   1.652   2.045  10.321 -0.4987 -0.5776  0.7323
  141SAPE   C3115379   1.760   1.972  10.295 -0.3847 -0.2067  0.8537
  141SAPE   O3215380   1.867   2.025  10.271 -0.7799  0.8254  0.6193
  141SAPE   C3215381   1.732   1.819  10.297  0.3468  0.1774  0.3324
  141SAPE   H2X15382   1.638   1.793  10.349  0.6401 -1.2826  0.1579
  141SAPE   H2Y15383   1.822   1.769  10.339 -0.7696 -1.8713  0.3343
  141SAPE   C2315384   1.548   2.661  10.366  0.0117 -0.5034 -0.2857
  141SAPE   H3R15385   1.653   2.687  10.340 -0.5150  0.0590 -1.9540
  141SAPE   H3S15386   1.494   2.750  10.404  1.1228  1.3426 -2.8892
  141SAPE   C2415387   1.490   2.586  10.246  0.5578  0.5269  0.3503
  141SAPE   H4R15388   1.557   2.502  10.216  2.8361  2.1835  0.6118
  141SAPE   H4S15389   1.491   2.656  10.160  0.7960  0.6518  0.4510
  141SAPE   C2515390   1.345   2.549  10.264 -0.0690  0.0802 -0.2428
  141SAPE   H5R15391   1.330   2.457  10.323  2.1451 -0.4522 -0.4891
  141SAPE   C2615392   1.251   2.621  10.207  0.1850  0.3572  0.6507
  141SAPE   H6R15393   1.149   2.585  10.227  0.1242  0.6229  0.8229
  141SAPE   C2715394   1.255   2.752  10.127  0.0996  0.2757 -0.4451
  141SAPE   H7R15395   1.355   2.790  10.097 -0.3598  0.6837 -1.4951
  141SAPE   H7S15396   1.204   2.831  10.186 -1.6238 -1.0120 -0.1750
  141SAPE   C2815397   1.177   2.746   9.997 -0.0871 -0.6952 -0.0168
  141SAPE   H8R15398   1.078   2.796  10.002  0.4797  0.4923 -0.3512
  141SAPE   C2915399   1.204   2.669   9.888  0.0755 -0.3985  0.0755
  141SAPE   H9R15400   1.126   2.662   9.810  1.9278  0.7691 -1.9326
  141SAPE  C21015401   1.328   2.582   9.864  0.2221 -0.5699  0.3082
  141SAPE  H10R15402   1.325   2.492   9.930  1.4406 -1.4045 -0.7495
  141SAPE  H10S15403   1.413   2.645   9.899 -0.5320  0.0309  1.0695
  141SAPE  C21115404   1.361   2.557   9.720 -1.0489  0.8549  0.0212
  141SAPE  H11R15405   1.342   2.451   9.701 -1.1560  0.3518  2.7368
  141SAPE  C21215406   1.419   2.639   9.631  0.0130 -0.4852 -0.0718
  141SAPE  H12R15407   1.428   2.598   9.529  2.8005  1.5666 -0.7061
  141SAPE  C21315408   1.455   2.778   9.662 -0.0827 -0.4354  0.4504
  141SAPE  H13R15409   1.549   2.797   9.605 -0.4119  0.4942  0.2057
  141SAPE  H13S15410   1.486   2.798   9.767 -2.7104  1.0522  0.9783
  141SAPE  C21415411   1.353   2.884   9.632  0.3351  0.1968  0.6067
  141SAPE  H14R15412   1.294   2.918   9.719 -2.3156 -1.8190 -0.3162
  141SAPE  C21515413   1.332   2.952   9.521 -0.5947 -0.1898  0.5949
  141SAPE  H15R15414   1.274   3.045   9.523 -0.9852 -0.4411  1.0736
  141SAPE  C21615415   1.401   2.932   9.394 -0.3728 -0.4492 -0.0992
  141SAPE  H16R15416   1.507   2.902   9.402  0.3782  1.8801 -0.9363
  141SAPE  H16S15417   1.397   3.022   9.329 -1.8631 -0.5587 -0.1876
  141SAPE  C21715418   1.325   2.827   9.309 -0.9945 -0.5566 -0.0826
  141SAPE  H17R15419   1.216   2.842   9.300 -1.1506  0.1237  2.4003
  141SAPE  H17S15420   1.322   2.730   9.365  0.2372  0.5409  1.9601
  141SAPE  C21815421   1.389   2.820   9.163  0.2410  0.2633  0.1543
  141SAPE  H18R15422   1.497   2.845   9.174  0.3186 -0.0827  0.2166
  141SAPE  H18S15423   1.348   2.911   9.115 -1.0675 -0.0955  0.5734
  141SAPE  C21915424   1.360   2.690   9.080  0.4103  0.3594 -0.9779
  141SAPE  H19R15425   1.402   2.596   9.121 -0.5186  0.4160  0.1273
  141SAPE  H19S15426   1.402   2.720   8.981  0.2603 -0.6543 -1.3599
  141SAPE  C22015427   1.206   2.670   9.050  0.6937  0.2606  0.1780
  141SAPE  H20R15428   1.166   2.601   9.127 -1.7990  1.9789  0.4873
  141SAPE  H20S15429   1.169   2.623   8.957 -1.3838  0.0984  1.0589
  141SAPE  H20T15430   1.145   2.763   9.060 -0.1532 -0.1068 -1.4007
  141SAPE   C3315431   1.724   1.769  10.143  0.4320 -0.4379  0.0067
  141SAPE   H3X15432   1.733   1.658  10.141  2.9449 -0.2495 -1.8609
  141SAPE   H3Y15433   1.802   1.824  10.086 -2.4560  1.9049 -1.7915
  141SAPE   C3415434   1.583   1.797  10.078  0.5445 -0.1298 -0.2466
  141SAPE   H4X15435   1.579   1.908  10.080  4.4034  0.0674  1.2290
  141SAPE   H4Y15436   1.500   1.750  10.135  0.4067 -1.0497 -1.2129
  141SAPE   C3515437   1.552   1.759   9.931  0.9914  0.0291  0.3726
  141SAPE   H5X15438   1.560   1.648   9.926  0.4458  0.0293 -0.8790
  141SAPE   H5Y15439   1.633   1.798   9.866  0.5291 -0.0265 -0.2388
  141SAPE   C3615440   1.421   1.816   9.881 -0.8473  0.8031 -0.8058
  141SAPE   H6X15441   1.421   1.927   9.887 -0.2551  0.7940 -0.5992
  141SAPE   H6Y15442   1.335   1.774   9.937  2.0159 -2.0856  1.6791
  141SAPE   C3715443   1.408   1.772   9.729 -0.9560  0.2537 -0.7305
  141SAPE   H7X15444   1.305   1.781   9.690 -1.5929  0.1934  0.8746
  141SAPE   H7Y15445   1.437   1.664   9.727 -0.9056  0.2683 -0.7585
  141SAPE   C3815446   1.505   1.851   9.635 -0.6377 -0.6211 -0.2815
  141SAPE   H8X15447   1.603   1.828   9.681 -0.6123 -1.9152 -0.9710
  141SAPE   H8Y15448   1.481   1.960   9.643  0.6753 -0.2256 -1.4587
  141SAPE   C3915449   1.495   1.809   9.489  0.2916 -0.4066 -0.1361
  141SAPE   H9X15450   1.393   1.840   9.456 -0.0990  0.3560  1.7317
  141SAPE   H9Y15451   1.508   1.699   9.484 -2.0106 -0.6827 -0.6316
  141SAPE  C31015452   1.596   1.884   9.391  0.0752  0.3019 -0.2281
  141SAPE  H10X15453   1.692   1.890   9.447  0.7870 -3.2814 -0.9457
  141SAPE  H10Y15454   1.568   1.988   9.367  1.2279  1.3679  2.8351
  141SAPE  C31115455   1.595   1.799   9.262 -0.2138  0.4914 -0.4495
  141SAPE  H11X15456   1.631   1.695   9.279  1.3133  0.8449 -1.4243
  141SAPE  H11Y15457   1.657   1.853   9.187  0.1741 -0.1757 -0.6201
  141SAPE  C31215458   1.461   1.803   9.192 -0.5205 -0.2845 -0.5666
  141SAPE  H12X15459   1.440   1.912   9.191 -1.0499 -0.3658  1.0725
  141SAPE  H12Y15460   1.386   1.735   9.238 -0.7092 -0.4873 -1.1667
  141SAPE  C31315461   1.467   1.769   9.045 -1.0019 -0.1240  0.1084
  141SAPE  H13X15462   1.475   1.661   9.020  2.3386 -0.4200  2.1271
  141SAPE  H13Y15463   1.553   1.827   9.005 -0.1477 -1.0332  0.5746
  141SAPE  C31415464   1.338   1.812   8.979 -0.0192 -0.0212  0.7301
  141SAPE  H14X15465   1.303   1.914   9.005 -2.3462 -0.5353 -0.2740
  141SAPE  H14Y15466   1.255   1.747   9.013 -0.5344 -0.0614 -0.5629
  141SAPE  C31515467   1.352   1.823   8.822  0.3286  0.0955 -0.2684
  141SAPE  H15X15468   1.388   1.729   8.776 -0.0017  0.3587 -1.0789
  141SAPE  H15Y15469   1.416   1.913   8.811  0.1117  0.2093 -0.6160
  141SAPE  C31615470   1.215   1.850   8.746  0.8307  0.0601 -0.0757
  141SAPE  H16X15471   1.175   1.947   8.783  2.4300  0.8929 -0.4457
  141SAPE  H16Y15472   1.139   1.769   8.752 -0.7851  1.5616  0.0731
  141SAPE  C31715473   1.242   1.868   8.590 -0.5330  0.1915 -0.0007
  141SAPE  H17X15474   1.232   1.770   8.539  0.1776  0.6027 -0.9427
  141SAPE  H17Y15475   1.341   1.908   8.562 -1.0064  1.4945  0.1534
  141SAPE  C31815476   1.135   1.966   8.535 -0.0974  0.3992  0.2855
  141SAPE  H18X15477   1.034   1.921   8.544  0.4957 -0.7333  1.4627
  141SAPE  H18Y15478   1.142   1.987   8.426 -1.0532 -2.7789 -0.4478
  141SAPE  H18Z15479   1.151   2.067   8.580 -1.7468 -0.3240  2.5874
  142SAPE     N15480   1.679   1.115  10.894 -0.3913 -0.6002  0.1613
  142SAPE   HN115481   1.764   1.074  10.851  0.3089  1.0692 -0.0905
  142SAPE   HN215482   1.622   1.041  10.939  0.9269 -0.4604  2.0992
  142SAPE   HN315483   1.621   1.161  10.820  0.5196 -0.1160 -0.2620
  142SAPE   C1215484   1.710   1.223  10.995  0.6754  0.9725  0.1074
  142SAPE  H12A15485   1.756   1.173  11.084  0.5201  2.1090  0.8361
  142SAPE  H12B15486   1.609   1.250  11.032  0.3256  1.1135 -0.9346
  142SAPE   C1115487   1.788   1.337  10.940 -0.1763  0.7177  0.1750
  142SAPE  H11A15488   1.738   1.381  10.851 -0.0003  1.0410  0.2337
  142SAPE  H11B15489   1.885   1.294  10.906  0.5321  1.8459  0.7328
  142SAPE     P15490   1.860   1.574  11.037  0.0355  0.2117  0.2830
  142SAPE   O1315491   1.737   1.647  11.017  0.5637 -0.2586 -0.1401
  142SAPE   O1415492   1.961   1.620  11.131 -0.0563  0.1632 -0.2189
  142SAPE   O1215493   1.815   1.422  11.053  0.0312  0.2197  0.2661
  142SAPE   O1115494   1.917   1.583  10.883  0.1064  0.3914  0.4306
  142SAPE    C115495   2.060   1.545  10.858  0.0728 -0.2776 -0.0154
  142SAPE    HA15496   2.121   1.612  10.922 -0.6410 -0.4446  0.8630
  142SAPE    HB15497   2.078   1.439  10.885 -0.1127 -0.5583 -0.9656
  142SAPE    C215498   2.101   1.550  10.703  0.2121 -0.0642  0.2088
  142SAPE    HS15499   2.113   1.654  10.667 -1.6242 -0.2347 -0.9171
  142SAPE   O2115500   2.001   1.474  10.630 -0.2823 -0.3709 -0.6324
  142SAPE   C2115501   1.897   1.536  10.577  0.2357 -0.4644  0.1685
  142SAPE   O2215502   1.862   1.647  10.598 -0.7450 -0.1601 -0.2600
  142SAPE   C2215503   1.835   1.431  10.491 -0.1438  0.5619  0.1157
  142SAPE   H2R15504   1.911   1.358  10.458  0.6792  1.1254  0.7595
  142SAPE   H2S15505   1.765   1.369  10.551 -0.9678  0.5998 -0.7863
  142SAPE    C315506   2.239   1.477  10.684  0.4384 -0.3596  0.0386
  142SAPE    HX15507   2.232   1.369  10.706  2.5367 -1.0275 -2.3277
  142SAPE    HY15508   2.311   1.526  10.753 -2.0775  2.2578  0.9534
  142SAPE   O3115509   2.284   1.489  10.547 -0.3691 -0.1965 -0.5056
  142SAPE   C3115510   2.343   1.597  10.513  1.0677 -0.5150  0.9359
  142SAPE   O3215511   2.369   1.689  10.588  0.2990 -0.2292  0.1102
  142SAPE   C3215512   2.337   1.606  10.356 -0.3943  0.8877  0.5419
  142SAPE   H2X15513   2.440   1.631  10.323 -0.5042  1.9621  0.9853
  142SAPE   H2Y15514   2.283   1.696  10.318  1.2703  1.8135  0.3314
  142SAPE   C2315515   1.747   1.484  10.370 -0.5046  0.4015  0.6056
  142SAPE   H3R15516   1.812   1.559  10.321  1.7588 -0.8218  1.6263
  142SAPE   H3S15517   1.654   1.531  10.408 -0.1979  0.2450  1.5785
  142SAPE   C2415518   1.728   1.354  10.282 -0.2315 -0.1585  0.1917
  142SAPE   H4R15519   1.660   1.282  10.333 -0.1445 -0.3681  0.0097
  142SAPE   H4S15520   1.825   1.300  10.274 -0.5891 -0.9729  1.1898
  142SAPE   C2515521   1.670   1.384  10.155  0.7538  0.3512 -0.0912
  142SAPE   H5R15522   1.562   1.401  10.160  0.5614 -0.9992  0.4638
  142SAPE   C2615523   1.733   1.398  10.038 -0.0249 -0.3784 -0.0128
  142SAPE   H6R15524   1.671   1.423   9.950  1.3226 -0.9757 -1.1393
  142SAPE   C2715525   1.876   1.373  10.016  0.0788 -0.2138 -0.2154
  142SAPE   H7R15526   1.923   1.408  10.110  0.6602 -2.5763  0.4105
  142SAPE   H7S15527   1.915   1.441   9.937 -0.3330 -0.6014 -0.7488
  142SAPE   C2815528   1.922   1.231   9.992 -0.3463 -0.1103 -0.8867
  142SAPE   H8R15529   1.936   1.177  10.086 -1.4007  0.4577 -0.3888
  142SAPE   C2915530   1.953   1.172   9.876 -0.0030  0.0093  0.1438
  142SAPE   H9R15531   1.984   1.067   9.884 -2.1113 -0.8407 -2.0321
  142SAPE  C21015532   1.938   1.236   9.737 -0.2916  0.0747 -0.8678
  142SAPE  H10R15533   2.035   1.287   9.715 -0.2905 -0.5668 -2.3683
  142SAPE  H10S15534   1.863   1.317   9.748 -1.5712 -1.5284  3.2907
  142SAPE  C21115535   1.887   1.134   9.637  0.3121 -0.2745  0.1087
  142SAPE  H11R15536   1.779   1.112   9.645  0.1125  0.8639  0.5907
  142SAPE  C21215537   1.956   1.063   9.540 -0.0429 -0.3245 -0.4519
  142SAPE  H12R15538   1.898   0.982   9.492 -2.1179  1.5242 -1.1528
  142SAPE  C21315539   2.103   1.065   9.513 -0.0797 -0.0190 -0.5172
  142SAPE  H13R15540   2.119   0.967   9.463  0.3181  0.6561 -1.7375
  142SAPE  H13S15541   2.160   1.051   9.607  0.4906 -1.7251 -1.1014
  142SAPE  C21415542   2.141   1.184   9.422  0.1766  0.2318 -0.6204
  142SAPE  H14R15543   2.112   1.283   9.460  0.4104 -0.1048  0.4569
  142SAPE  C21515544   2.207   1.178   9.305  0.2494 -0.5738  0.3063
  142SAPE  H15R15545   2.221   1.268   9.244  3.8610 -1.0403  0.3259
  142SAPE  C21615546   2.269   1.063   9.230 -0.2457  0.1109  0.1354
  142SAPE  H16R15547   2.202   1.030   9.148 -0.4187  1.1693 -0.1571
  142SAPE  H16S15548   2.273   0.973   9.294 -3.3138  0.2479  0.5958
  142SAPE  C21715549   2.407   1.094   9.174  1.0668 -0.4786 -0.4422
  142SAPE  H17R15550   2.468   1.143   9.254 -0.3376  1.1055 -0.3141
  142SAPE  H17S15551   2.404   1.165   9.089 -1.1142 -0.0989 -0.0830
  142SAPE  C21815552   2.479   0.961   9.129  0.0928  0.5579  0.3112
  142SAPE  H18R15553   2.408   0.875   9.128  0.8345 -0.0522 -1.7482
  142SAPE  H18S15554   2.557   0.952   9.208 -0.7363  2.3070  1.3598
  142SAPE  C21915555   2.553   0.973   8.997  0.6013 -0.1127  1.1345
  142SAPE  H19R15556   2.634   1.048   8.992  0.0961  0.2439 -3.3108
  142SAPE  H19S15557   2.479   0.991   8.916  1.7136  0.1396  0.1564
  142SAPE  C22015558   2.615   0.839   8.962 -0.7672 -0.4980  0.4804
  142SAPE  H20R15559   2.720   0.830   8.999  0.4440  3.1580 -1.8636
  142SAPE  H20S15560   2.603   0.819   8.854  1.5218  0.6168 -0.0053
  142SAPE  H20T15561   2.564   0.748   9.001 -3.5783  0.1259 -1.6277
  142SAPE   C3315562   2.261   1.486  10.293  0.2113 -0.5086  0.0462
  142SAPE   H3X15563   2.160   1.482  10.339  1.0501  0.9767  2.0887
  142SAPE   H3Y15564   2.312   1.393  10.325 -0.0570 -0.2817  1.1306
  142SAPE   C3415565   2.236   1.485  10.145  0.0577 -0.6501  0.6605
  142SAPE   H4X15566   2.203   1.581  10.101  1.6068 -1.4822 -2.4459
  142SAPE   H4Y15567   2.165   1.405  10.112  2.3583 -2.2076 -0.6755
  142SAPE   C3515568   2.367   1.456  10.076 -0.3337  0.4105 -0.3122
  142SAPE   H5X15569   2.415   1.364  10.114  0.2690  1.5385  1.7283
  142SAPE   H5Y15570   2.436   1.542  10.095 -1.3248  1.0929  0.2714
  142SAPE   C3615571   2.352   1.438   9.925 -0.3070  0.0700 -0.3570
  142SAPE   H6X15572   2.267   1.504   9.896 -2.6783 -2.1299  1.2939
  142SAPE   H6Y15573   2.308   1.337   9.910  1.9609 -1.1135  0.7666
  142SAPE   C3715574   2.486   1.440   9.853  0.5848 -0.3303 -0.0481
  142SAPE   H7X15575   2.552   1.358   9.888  0.5503 -0.6422 -0.6963
  142SAPE   H7Y15576   2.534   1.539   9.866 -1.6809  0.7974 -0.0077
  142SAPE   C3815577   2.461   1.421   9.705  0.2807  0.1827  0.4809
  142SAPE   H8X15578   2.391   1.499   9.668  2.7267  3.1108  1.7948
  142SAPE   H8Y15579   2.413   1.322   9.687 -0.8146  0.7173  0.4294
  142SAPE   C3915580   2.588   1.441   9.619 -0.1003 -0.8759 -0.0653
  142SAPE   H9X15581   2.652   1.356   9.653 -0.3634 -1.5373 -1.1830
  142SAPE   H9Y15582   2.636   1.540   9.632 -1.2956 -0.1487 -1.1040
  142SAPE  C31015583   2.562   1.428   9.467  0.4724 -0.2844  0.5537
  142SAPE  H10X15584   2.510   1.512   9.415  0.0243 -1.9349 -1.7193
  142SAPE  H10Y15585   2.489   1.345   9.461 -0.0226  0.1418  0.6134
  142SAPE  C31115586   2.686   1.396   9.384  0.6625 -0.4078 -0.6204
  142SAPE  H11X15587   2.724   1.292   9.397 -1.5933 -1.3705 -1.4892
  142SAPE  H11Y15588   2.754   1.480   9.411  0.1906  0.0347 -0.7932
  142SAPE  C31215589   2.655   1.403   9.230 -0.2332 -0.5265 -0.6497
  142SAPE  H12X15590   2.596   1.495   9.214 -1.2215 -0.8647  0.9635
  142SAPE  H12Y15591   2.592   1.317   9.198 -0.1818 -0.8717  0.1669
  142SAPE  C31315592   2.774   1.415   9.142 -0.0649 -0.4761 -0.0349
  142SAPE  H13X15593   2.829   1.319   9.131  0.5192 -0.1822  0.2637
  142SAPE  H13Y15594   2.841   1.492   9.185  0.8372 -1.0347 -0.4189
  142SAPE  C31415595   2.728   1.453   9.002  0.5395  0.1986  0.6698
  142SAPE  H14X15596   2.680   1.553   8.999  1.0358  0.4050 -1.1110
  142SAPE  H14Y15597   2.658   1.374   8.966 -0.8414  1.3076  0.8664
  142SAPE  C31515598   2.837   1.462   8.897 -0.7800 -0.4767  0.3316
  142SAPE  H15X15599   2.872   1.358   8.876  1.7564  0.6116 -1.0831
  142SAPE  H15Y15600   2.926   1.519   8.931  1.7875 -2.2545 -3.0327
  142SAPE  C31615601   2.778   1.526   8.771  0.1843 -0.5642  0.0163
  142SAPE  H16X15602   2.716   1.615   8.791  0.1070 -0.0075 -2.5146
  142SAPE  H16Y15603   2.707   1.458   8.719 -1.4435  0.1467  1.2932
  142SAPE  C31715604   2.888   1.576   8.674  0.7879 -0.2684 -0.4145
  142SAPE  H17X15605   2.953   1.489   8.649  1.2942 -0.3580  1.1046
  142SAPE  H17Y15606   2.955   1.634   8.742  0.2546  1.2540 -1.1726
  142SAPE  C31815607   2.852   1.653   8.548 -0.3616 -0.0506  0.5541
  142SAPE  H18X15608   2.940   1.701   8.499 -2.1672  2.2902 -0.5336
  142SAPE  H18Y15609   2.778   1.732   8.576  0.8610  0.8228  1.3806
  142SAPE  H18Z15610   2.801   1.592   8.471  0.3919 -0.1144  0.1010
  143SAPE     N15611   3.494   1.814  11.050 -0.2248 -0.1055  0.1824
  143SAPE   HN115612   3.446   1.880  10.984 -0.3148  0.7926  1.1232
  143SAPE   HN215613   3.489   1.716  11.015  0.9688 -0.8704  2.1174
  143SAPE   HN315614   3.433   1.820  11.133  0.1459  3.2501  0.3012
  143SAPE   C1215615   3.632   1.865  11.087  0.1365  0.0489 -0.3555
  143SAPE  H12A15616   3.621   1.974  11.102  0.5385 -0.0554  0.7329
  143SAPE  H12B15617   3.704   1.845  11.004 -0.6648 -1.6634 -0.6739
  143SAPE   C1115618   3.687   1.778  11.203 -0.0037 -0.6258  0.2257
  143SAPE  H11A15619   3.611   1.785  11.284 -0.0343  1.7350  0.0267
  143SAPE  H11B15620   3.782   1.815  11.247  0.2394 -1.8740  0.7834
  143SAPE     P15621   3.851   1.579  11.147 -0.1515  0.0758 -0.3171
  143SAPE   O1315622   3.937   1.609  11.267  0.0061 -0.8721 -0.5315
  143SAPE   O1415623   3.847   1.445  11.086 -0.4234  0.1064  0.5990
  143SAPE   O1215624   3.702   1.639  11.169 -0.5641 -0.4510 -0.1048
  143SAPE   O1115625   3.915   1.681  11.039  0.4918 -0.2303 -0.1085
  143SAPE    C115626   3.867   1.662  10.904 -0.4839  0.8834 -0.7260
  143SAPE    HA15627   3.907   1.568  10.862  1.3600  1.1957  0.2968
  143SAPE    HB15628   3.757   1.645  10.900 -0.9608  3.9338 -2.1310
  143SAPE    C215629   3.907   1.775  10.804  0.7959 -0.0730  0.5504
  143SAPE    HS15630   4.018   1.776  10.813  0.8939 -2.5127 -0.0799
  143SAPE   O2115631   3.853   1.900  10.845  0.3641  0.1455 -0.0377
  143SAPE   C2115632   3.893   2.014  10.785 -0.0999  0.3332  0.6150
  143SAPE   O2215633   3.980   2.010  10.698  0.6005  0.3711 -0.0244
  143SAPE   C2215634   3.818   2.134  10.848  0.1966  0.0834 -0.9031
  143SAPE   H2R15635   3.716   2.105  10.880 -0.6332  1.0130 -2.6611
  143SAPE   H2S15636   3.871   2.172  10.938 -3.4359 -1.7499  2.1531
  143SAPE    C315637   3.866   1.740  10.654  0.8536  0.3447  0.0834
  143SAPE    HX15638   3.891   1.832  10.598  0.8056 -0.9908 -2.2047
  143SAPE    HY15639   3.756   1.729  10.640  0.5916  1.4756  1.2478
  143SAPE   O3115640   3.936   1.633  10.604  0.5954 -0.3150 -0.6409
  143SAPE   C3115641   3.881   1.563  10.505 -0.8728 -0.0953 -0.0246
  143SAPE   O3215642   3.780   1.594  10.448 -0.0331 -0.0852 -0.2515
  143SAPE   C3215643   3.948   1.434  10.472  0.2905  0.4210  0.5228
  143SAPE   H2X15644   3.868   1.377  10.420  0.5343 -0.1260  0.7495
  143SAPE   H2Y15645   3.968   1.394  10.574  1.6573 -0.9286 -0.2502
  143SAPE   C2315646   3.789   2.250  10.749 -0.2357 -0.8116 -0.5052
  143SAPE   H3R15647   3.880   2.269  10.688 -0.3635 -0.8802 -0.7201
  143SAPE   H3S15648   3.764   2.343  10.805 -1.7320 -1.7321  0.3836
  143SAPE   C2415649   3.661   2.221  10.668 -0.5856  0.6706 -0.2508
  143SAPE   H4R15650   3.634   2.306  10.601 -1.1295 -0.3294 -1.3289
  143SAPE   H4S15651   3.583   2.222  10.747  0.6513 -1.1779  1.0030
  143SAPE   C2515652   3.657   2.091  10.589 -0.2966  0.2903  0.5016
  143SAPE   H5R15653   3.615   2.003  10.640  1.3001 -0.2591  0.9151
  143SAPE   C2615654   3.708   2.062  10.464  0.1412  0.1717 -0.1200
  143SAPE   H6R15655   3.705   1.959  10.427 -0.1494 -0.7123  2.2600
  143SAPE   C2715656   3.778   2.156  10.374  0.1169 -1.0327  0.0997
  143SAPE   H7R15657   3.741   2.260  10.388  2.4713  0.0792 -1.5989
  143SAPE   H7S15658   3.752   2.129  10.269 -1.5332  0.7373  0.0048
  143SAPE   C2815659   3.928   2.157  10.396  0.1758 -0.2148 -0.5688
  143SAPE   H8R15660   3.960   2.209  10.488  0.7668 -1.6657  0.0629
  143SAPE   C2915661   4.030   2.094  10.327  0.4038 -0.7556  0.1860
  143SAPE   H9R15662   4.127   2.098  10.379 -0.3768  3.8847  1.4942
  143SAPE  C21015663   4.005   2.007  10.198  0.6776 -0.7086 -0.0407
  143SAPE  H10R15664   4.105   1.974  10.163  0.9891 -0.0531  0.2134
  143SAPE  H10S15665   3.956   2.070  10.121  1.1099  1.8919  1.7388
  143SAPE  C21115666   3.924   1.885  10.212 -0.0980 -0.1568 -0.2822
  143SAPE  H11R15667   3.909   1.863  10.319  0.3686 -0.4988 -0.2857
  143SAPE  C21215668   3.880   1.808  10.113  1.2733 -0.2173 -0.1098
  143SAPE  H12R15669   3.825   1.716  10.137  1.6763 -0.9720 -2.0210
  143SAPE  C21315670   3.896   1.841   9.966 -0.3375 -0.3090 -0.1175
  143SAPE  H13R15671   3.992   1.790   9.940  0.1316 -1.3570  3.3781
  143SAPE  H13S15672   3.911   1.950   9.948  1.8549 -0.3657  1.0815
  143SAPE  C21415673   3.783   1.791   9.882 -0.4891 -0.4073  0.2411
  143SAPE  H14R15674   3.685   1.819   9.925  0.1987  1.3957  0.6815
  143SAPE  C21515675   3.782   1.689   9.801 -0.1123 -0.7388  0.0301
  143SAPE  H15R15676   3.690   1.659   9.749 -1.3250  3.4528 -0.4592
  143SAPE  C21615677   3.905   1.607   9.757 -0.0205 -0.4184 -0.1211
  143SAPE  H16R15678   3.892   1.501   9.790  0.0556 -0.0722  1.0390
  143SAPE  H16S15679   3.997   1.649   9.802 -0.8789  2.3685 -0.8643
  143SAPE  C21715680   3.920   1.591   9.601 -0.2329 -0.4032 -0.1374
  143SAPE  H17R15681   3.838   1.524   9.568  0.8837 -1.4082 -0.8992
  143SAPE  H17S15682   4.013   1.539   9.572 -0.3355 -1.0114  0.6115
  143SAPE  C21815683   3.920   1.721   9.520 -0.2503  0.6805  0.1591
  143SAPE  H18R15684   3.982   1.794   9.575 -1.4950  0.5261  1.8272
  143SAPE  H18S15685   3.814   1.752   9.513 -0.0468  1.0139 -1.4481
  143SAPE  C21915686   3.966   1.698   9.377  0.5473 -0.2310 -0.0099
  143SAPE  H19R15687   3.920   1.605   9.337  2.1322 -1.1647  0.2775
  143SAPE  H19S15688   4.076   1.681   9.371  0.3488 -3.0512  2.5412
  143SAPE  C22015689   3.930   1.811   9.277  0.6586  0.2363 -0.7533
  143SAPE  H20R15690   3.975   1.796   9.177 -1.4281 -1.3206 -1.4958
  143SAPE  H20S15691   3.958   1.909   9.320 -0.6559  0.6810 -0.9015
  143SAPE  H20T15692   3.819   1.808   9.281  0.6467  2.2547  1.3615
  143SAPE   C3315693   4.081   1.451  10.388 -0.2528 -1.0014  0.2593
  143SAPE   H3X15694   4.129   1.353  10.409  1.6926 -0.3840 -1.2375
  143SAPE   H3Y15695   4.149   1.517  10.444 -0.4427 -1.0620  0.5652
  143SAPE   C3415696   4.067   1.477  10.236 -0.4160  0.8470 -0.6450
  143SAPE   H4X15697   4.008   1.571  10.225 -0.0768  1.4376  2.3204
  143SAPE   H4Y15698   4.009   1.393  10.193  0.4232 -0.5776  0.9679
  143SAPE   C3515699   4.189   1.478  10.152  0.1222 -0.1748  0.0687
  143SAPE   H5X15700   4.226   1.375  10.166  1.4808  0.2046 -0.6477
  143SAPE   H5Y15701   4.270   1.541  10.195  0.1402 -1.1999  1.5266
  143SAPE   C3615702   4.170   1.504  10.006  0.7533  0.2426  0.0095
  143SAPE   H6X15703   4.136   1.607   9.982 -1.9062 -0.2788  1.4088
  143SAPE   H6Y15704   4.096   1.426   9.980  1.1676 -0.3092  0.4868
  143SAPE   C3715705   4.285   1.473   9.917  0.2387  0.5882 -0.5413
  143SAPE   H7X15706   4.323   1.381   9.965 -0.8229  0.4208 -0.0094
  143SAPE   H7Y15707   4.364   1.551   9.925 -1.6196  2.5439 -0.5567
  143SAPE   C3815708   4.245   1.457   9.768  0.5236  0.7814  0.1255
  143SAPE   H8X15709   4.191   1.542   9.724 -0.4350  0.5720  0.8888
  143SAPE   H8Y15710   4.174   1.374   9.751  0.8862  0.6961 -1.0312
  143SAPE   C3915711   4.375   1.445   9.683  0.8000  0.1065 -0.1981
  143SAPE   H9X15712   4.429   1.351   9.707 -0.4578 -0.3922  0.7073
  143SAPE   H9Y15713   4.438   1.527   9.724 -0.4204  0.7699  0.4009
  143SAPE  C31015714   4.341   1.461   9.536  0.4562  0.2491 -0.1328
  143SAPE  H10X15715   4.244   1.416   9.507 -0.5221  1.5079  1.1265
  143SAPE  H10Y15716   4.420   1.403   9.482 -0.5618 -0.7162 -0.6207
  143SAPE  C31115717   4.360   1.601   9.485 -0.3150 -0.0749 -0.6414
  143SAPE  H11X15718   4.456   1.638   9.526 -0.0632 -1.4484  0.0085
  143SAPE  H11Y15719   4.288   1.666   9.540 -0.7223 -0.4082 -0.7805
  143SAPE  C31215720   4.351   1.623   9.329  0.2256  0.3550  0.1692
  143SAPE  H12X15721   4.252   1.578   9.304 -0.6392  1.7361  0.9920
  143SAPE  H12Y15722   4.441   1.589   9.274  0.2314  1.3416 -0.4576
  143SAPE  C31315723   4.344   1.770   9.288 -0.1451  0.1251 -0.5193
  143SAPE  H13X15724   4.440   1.819   9.314 -1.4181  2.3953  0.0454
  143SAPE  H13Y15725   4.263   1.814   9.350  0.8938  0.7805  0.3949
  143SAPE  C31415726   4.301   1.792   9.150  0.2036  0.6811  0.4197
  143SAPE  H14X15727   4.195   1.763   9.133  1.0516 -1.5467 -1.2456
  143SAPE  H14Y15728   4.358   1.717   9.093 -0.6129  0.4740 -0.1375
  143SAPE  C31515729   4.325   1.935   9.101 -0.1480 -0.1243  0.4784
  143SAPE  H15X15730   4.272   1.955   9.005  3.2914  0.1775 -1.4448
  143SAPE  H15Y15731   4.433   1.934   9.075 -0.3350 -0.1036 -0.3406
  143SAPE  C31615732   4.297   2.045   9.209 -0.5068  0.7848  0.3365
  143SAPE  H16X15733   4.357   2.023   9.300  1.7052 -0.7278 -1.4572
  143SAPE  H16Y15734   4.194   2.026   9.245 -0.3401  0.7829  0.8142
  143SAPE  C31715735   4.309   2.193   9.159  0.0103  0.1378 -0.1769
  143SAPE  H17X15736   4.334   2.263   9.242 -2.3476  1.1503 -0.2661
  143SAPE  H17Y15737   4.211   2.230   9.122 -0.8253 -0.0459  1.7769
  143SAPE  C31815738   4.417   2.219   9.058 -0.6404  0.0832  0.0217
  143SAPE  H18X15739   4.523   2.200   9.081 -0.1212  1.5769 -1.0267
  143SAPE  H18Y15740   4.422   2.330   9.051  1.0009  0.0655  0.7850
  143SAPE  H18Z15741   4.395   2.179   8.956 -0.7868 -2.1693  0.9141
  144SAPE     N15742   0.259   6.347  10.805 -0.6229  0.1870 -0.0162
  144SAPE   HN115743   0.218   6.256  10.835 -1.7197  0.6457 -0.1039
  144SAPE   HN215744   0.360   6.339  10.782 -0.8715 -0.0280 -1.0608
  144SAPE   HN315745   0.239   6.407  10.888 -2.4747  0.5601 -0.7045
  144SAPE   C1215746   0.182   6.391  10.683  0.2642  0.0408  0.5119
  144SAPE  H12A15747   0.205   6.311  10.610  0.1538 -0.3543  0.9084
  144SAPE  H12B15748   0.243   6.481  10.658  0.8519  0.0924  2.0694
  144SAPE   C1115749   0.034   6.406  10.712 -0.8540  0.4671  0.6755
  144SAPE  H11A15750   0.001   6.304  10.744 -1.4545  0.5767  0.4170
  144SAPE  H11B15751  -0.001   6.451  10.617  1.1031  1.0422  0.2201
  144SAPE     P15752  -0.127   6.570  10.855  0.2575 -0.0232  0.5410
  144SAPE   O1315753  -0.237   6.474  10.892  0.0882  0.0993 -0.4380
  144SAPE   O1415754  -0.101   6.683  10.944 -0.3478  0.0787 -1.0111
  144SAPE   O1215755   0.014   6.504  10.821 -0.7804  0.5868  0.6524
  144SAPE   O1115756  -0.166   6.636  10.714  0.2698 -0.1551  0.7477
  144SAPE    C115757  -0.091   6.757  10.680 -0.0369  0.2409  0.4214
  144SAPE    HA15758  -0.092   6.837  10.757 -0.1078  0.8430 -0.2080
  144SAPE    HB15759   0.016   6.731  10.667 -0.1857  0.0910 -0.5057
  144SAPE    C215760  -0.149   6.818  10.553  0.5775  0.5378 -0.3805
  144SAPE    HS15761  -0.252   6.858  10.570  0.6572  1.6779 -2.3555
  144SAPE   O2115762  -0.148   6.721  10.447  0.5778 -0.4716  0.0202
  144SAPE   C2115763  -0.028   6.680  10.401 -0.5052  0.1996  0.2753
  144SAPE   O2215764   0.083   6.716  10.433 -0.0485 -0.0116  0.1546
  144SAPE   C2215765  -0.053   6.569  10.304  0.1570 -0.1611  0.5102
  144SAPE   H2R15766   0.034   6.541  10.241 -0.8203  0.5540 -1.2025
  144SAPE   H2S15767  -0.081   6.474  10.355  1.4614  0.5509  2.6229
  144SAPE    C315768  -0.078   6.954  10.514 -0.0256 -0.7935 -0.4182
  144SAPE    HX15769   0.032   6.941  10.523 -0.3877 -2.7441  1.6728
  144SAPE    HY15770  -0.102   7.027  10.595  0.7835  0.4831 -1.3187
  144SAPE   O3115771  -0.112   6.998  10.381 -0.5071  0.5648 -0.4135
  144SAPE   C3115772  -0.101   7.130  10.366 -0.2259 -0.3163  0.8479
  144SAPE   O3215773  -0.070   7.210  10.446  0.8142  0.4735  0.0488
  144SAPE   C3215774  -0.136   7.165  10.222  0.2052  0.2602 -1.0591
  144SAPE   H2X15775  -0.246   7.167  10.205  0.4600 -0.0449 -2.8069
  144SAPE   H2Y15776  -0.089   7.081  10.166  1.3194 -0.3038  0.6776
  144SAPE   C2315777  -0.161   6.603  10.203 -0.2886  0.5672 -0.1434
  144SAPE   H3R15778  -0.134   6.703  10.161 -0.1856  0.5691 -0.0741
  144SAPE   H3S15779  -0.254   6.604  10.263  0.7524 -2.1184  1.5931
  144SAPE   C2415780  -0.152   6.491  10.101  0.4650 -0.2758 -0.1181
  144SAPE   H4R15781  -0.153   6.388  10.143 -1.4700 -0.2103  0.0790
  144SAPE   H4S15782  -0.055   6.508  10.050 -0.7449  2.4233 -1.6534
  144SAPE   C2515783  -0.270   6.518  10.011  0.2231 -1.0051  0.1936
  144SAPE   H5R15784  -0.369   6.537  10.056  0.3577  1.2089 -0.3986
  144SAPE   C2615785  -0.262   6.514   9.870 -0.2029 -0.5639 -0.3138
  144SAPE   H6R15786  -0.355   6.521   9.812 -2.6673  2.6406  3.7200
  144SAPE   C2715787  -0.143   6.513   9.787  0.1954  0.7919 -0.2797
  144SAPE   H7R15788  -0.157   6.440   9.704  1.1798  1.0510 -0.6729
  144SAPE   H7S15789  -0.052   6.478   9.839 -0.7804 -0.9098  0.3413
  144SAPE   C2815790  -0.097   6.644   9.737 -0.9287 -0.0683 -0.0340
  144SAPE   H8R15791  -0.086   6.725   9.810 -1.7896  0.3631 -0.3762
  144SAPE   C2915792  -0.081   6.685   9.608 -0.1918  1.0402  0.1738
  144SAPE   H9R15793  -0.039   6.786   9.597 -2.9481  2.3278  1.0670
  144SAPE  C21015794  -0.088   6.605   9.481  0.0126  0.3354 -0.0349
  144SAPE  H10R15795  -0.085   6.496   9.505  1.3838  0.9308  2.7044
  144SAPE  H10S15796  -0.001   6.629   9.416 -1.1252 -1.8384 -2.4740
  144SAPE  C21115797  -0.210   6.620   9.403  0.6788 -0.5983  0.0863
  144SAPE  H11R15798  -0.297   6.612   9.470  0.8619  0.1590  0.4194
  144SAPE  C21215799  -0.225   6.632   9.269 -0.2191  1.0761  0.4459
  144SAPE  H12R15800  -0.327   6.639   9.230 -0.4478 -0.0149  0.8165
  144SAPE  C21315801  -0.120   6.639   9.160  0.7328  0.4196  0.3041
  144SAPE  H13R15802  -0.019   6.630   9.207  0.8215  1.5630  0.3458
  144SAPE  H13S15803  -0.114   6.741   9.116  2.3486  0.2576  0.0983
  144SAPE  C21415804  -0.127   6.532   9.055 -0.8068 -0.3240  0.5134
  144SAPE  H14R15805  -0.070   6.439   9.069  2.8035  1.6284 -0.6842
  144SAPE  C21515806  -0.185   6.549   8.938 -1.2304 -0.2012  0.2848
  144SAPE  H15R15807  -0.183   6.462   8.871 -2.1431  0.4863 -0.6441
  144SAPE  C21615808  -0.264   6.663   8.882 -0.0284 -0.1473 -0.1367
  144SAPE  H16R15809  -0.298   6.735   8.960  0.2688  0.9237 -0.9738
  144SAPE  H16S15810  -0.352   6.626   8.826 -0.8177 -0.7480  1.4847
  144SAPE  C21715811  -0.172   6.746   8.784 -0.2615  0.2158 -0.1703
  144SAPE  H17R15812  -0.141   6.697   8.689  1.7998  1.2854 -0.0802
  144SAPE  H17S15813  -0.075   6.757   8.836  0.4462 -2.5067 -0.8084
  144SAPE  C21815814  -0.226   6.891   8.757  0.3694  0.5202 -0.3688
  144SAPE  H18R15815  -0.143   6.947   8.708  1.2323 -1.0031 -0.6753
  144SAPE  H18S15816  -0.259   6.934   8.854 -0.7207 -0.6532 -0.2017
  144SAPE  C21915817  -0.350   6.892   8.657  1.2076 -0.2686  0.0443
  144SAPE  H19R15818  -0.433   6.835   8.702 -0.7962 -0.1367 -3.2949
  144SAPE  H19S15819  -0.316   6.851   8.559  0.4153 -3.2631  0.9942
  144SAPE  C22015820  -0.410   7.036   8.627 -0.3375 -0.3688  0.0506
  144SAPE  H20R15821  -0.435   7.094   8.719 -0.4741  1.4548 -1.1126
  144SAPE  H20S15822  -0.498   7.016   8.563 -0.5337 -0.7615  0.4354
  144SAPE  H20T15823  -0.347   7.106   8.569 -0.2235 -0.9226 -0.4956
  144SAPE   C3315824  -0.075   7.298  10.170 -0.0758 -0.1898 -0.0539
  144SAPE   H3X15825   0.036   7.302  10.160 -0.0976 -1.7229 -1.1962
  144SAPE   H3Y15826  -0.107   7.373  10.245 -2.6204  1.7830 -2.9980
  144SAPE   C3415827  -0.120   7.344  10.028  0.1073 -0.2670  0.7154
  144SAPE   H4X15828  -0.067   7.437   9.998 -0.9117  0.5467  1.4090
  144SAPE   H4Y15829  -0.230   7.353  10.028 -0.1836 -3.1128 -0.5147
  144SAPE   C3515830  -0.091   7.228   9.930  0.0363  0.3834 -0.5010
  144SAPE   H5X15831  -0.157   7.140   9.946  0.8593  0.0053  0.8484
  144SAPE   H5Y15832   0.014   7.195   9.924 -0.3602 -0.6668 -1.9373
  144SAPE   C3615833  -0.124   7.265   9.785  0.7252  0.1371  0.0344
  144SAPE   H6X15834  -0.056   7.341   9.740  0.4092  0.4248  0.0459
  144SAPE   H6Y15835  -0.227   7.307   9.784  1.4546  2.0187  0.7481
  144SAPE   C3715836  -0.115   7.137   9.703  0.5310  0.2669 -0.1398
  144SAPE   H7X15837  -0.146   7.051   9.765  0.1888  0.7459  0.3609
  144SAPE   H7Y15838  -0.013   7.102   9.675 -1.0668 -3.9960 -1.0241
  144SAPE   C3815839  -0.185   7.131   9.563  0.0409  0.4165 -0.3441
  144SAPE   H8X15840  -0.294   7.154   9.569 -0.4446 -0.8905 -3.3268
  144SAPE   H8Y15841  -0.175   7.030   9.517  0.2278  1.0427 -1.6905
  144SAPE   C3915842  -0.122   7.231   9.476 -0.1094 -0.1631 -0.4407
  144SAPE   H9X15843  -0.011   7.227   9.471 -0.0547 -0.1397  0.6500
  144SAPE   H9Y15844  -0.159   7.334   9.494  1.1201  0.0421  1.0882
  144SAPE  C31015845  -0.151   7.197   9.325  0.0540 -0.4254  0.9554
  144SAPE  H10X15846  -0.260   7.174   9.325 -0.6596  2.7240  0.2493
  144SAPE  H10Y15847  -0.092   7.110   9.288 -0.7512 -0.3846 -0.4701
  144SAPE  C31115848  -0.138   7.321   9.239 -0.3647 -0.1845  0.5310
  144SAPE  H11X15849  -0.039   7.369   9.255  1.0759 -1.4720 -3.7803
  144SAPE  H11Y15850  -0.209   7.405   9.251  2.1443  2.4399 -2.1389
  144SAPE  C31215851  -0.172   7.294   9.084 -0.0773 -0.1867  0.5588
  144SAPE  H12X15852  -0.281   7.297   9.064 -0.1318 -3.5783  0.0629
  144SAPE  H12Y15853  -0.125   7.196   9.058  0.4778  0.4234 -0.7720
  144SAPE  C31315854  -0.122   7.393   8.975 -0.2798  0.2357 -0.1364
  144SAPE  H13X15855  -0.020   7.427   9.002 -0.6543 -0.8521  2.8030
  144SAPE  H13Y15856  -0.191   7.480   8.971 -0.0882  0.4638  1.2263
  144SAPE  C31415857  -0.104   7.342   8.827  0.4926  0.9621  0.3389
  144SAPE  H14X15858  -0.199   7.292   8.799  0.9392  0.2985 -0.0230
  144SAPE  H14Y15859  -0.022   7.266   8.828  0.0171  0.3896 -1.7413
  144SAPE  C31515860  -0.065   7.451   8.725  0.5070 -0.3910  0.3156
  144SAPE  H15X15861   0.011   7.519   8.768 -1.0843  1.9158 -0.4023
  144SAPE  H15Y15862  -0.144   7.528   8.709  0.8276 -0.8242 -3.9357
  144SAPE  C31615863  -0.017   7.393   8.593 -0.6617  0.3459  0.0437
  144SAPE  H16X15864  -0.091   7.313   8.571 -0.7763  0.5910 -0.4585
  144SAPE  H16Y15865   0.086   7.359   8.616 -0.8022  0.9635  1.6989
  144SAPE  C31715866  -0.022   7.487   8.480  0.8366  0.5519 -0.1593
  144SAPE  H17X15867   0.033   7.582   8.499  0.7418  0.5296  0.2129
  144SAPE  H17Y15868  -0.129   7.508   8.459  0.6568  0.9095  1.1253
  144SAPE  C31815869   0.044   7.430   8.354  0.5509 -0.2239 -0.2851
  144SAPE  H18X15870  -0.030   7.352   8.325 -0.0022 -0.9399  2.9648
  144SAPE  H18Y15871   0.140   7.383   8.382  0.3649  1.0927  2.6783
  144SAPE  H18Z15872   0.057   7.499   8.268  0.6237 -3.1237 -2.7013
  145SAPE     N15873   3.373   1.179  11.660 -0.1624  0.1480  0.4178
  145SAPE   HN115874   3.328   1.271  11.641  0.8482  0.2714 -1.5080
  145SAPE   HN215875   3.297   1.109  11.673  0.0796 -0.9771 -3.6540
  145SAPE   HN315876   3.430   1.192  11.747 -1.0965 -0.4316  1.1206
  145SAPE   C1215877   3.466   1.143  11.550  0.1739  0.2549  0.3182
  145SAPE  H12A15878   3.497   1.036  11.558 -0.7519 -0.2597 -2.3528
  145SAPE  H12B15879   3.561   1.198  11.566  0.0299  0.4046  0.6629
  145SAPE   C1115880   3.392   1.162  11.423  0.0214 -0.1128  0.0592
  145SAPE  H11A15881   3.466   1.137  11.344 -1.7788 -0.9161 -1.4386
  145SAPE  H11B15882   3.362   1.265  11.393 -3.8454 -0.8362  1.1706
  145SAPE     P15883   3.207   1.049  11.283 -0.3697  0.3116  0.1304
  145SAPE   O1315884   3.126   0.931  11.293  0.0242 -0.2292 -0.1131
  145SAPE   O1415885   3.133   1.171  11.249 -0.0185 -0.3660 -0.4932
  145SAPE   O1215886   3.283   1.069  11.416  0.7057  0.1345 -0.3180
  145SAPE   O1115887   3.321   1.024  11.180 -0.8260  0.2847  0.4643
  145SAPE    C115888   3.333   1.102  11.065  0.2909 -0.6348  0.1406
  145SAPE    HA15889   3.236   1.114  11.012  1.0350  0.7667 -0.9351
  145SAPE    HB15890   3.363   1.204  11.100 -1.8939 -0.5677  1.9830
  145SAPE    C215891   3.444   1.048  10.970 -0.5221  0.5868 -0.8184
  145SAPE    HS15892   3.448   1.134  10.901 -1.7702  0.0063 -1.6352
  145SAPE   O2115893   3.404   0.930  10.902 -0.2636 -0.5590  0.0841
  145SAPE   C2115894   3.406   0.932  10.778 -0.1896  0.8428  0.2829
  145SAPE   O2215895   3.418   1.033  10.706 -0.1489  0.1730 -0.2954
  145SAPE   C2215896   3.382   0.798  10.725 -0.4691  0.7783 -0.1709
  145SAPE   H2R15897   3.451   0.727  10.776 -0.7649 -0.5126 -1.5384
  145SAPE   H2S15898   3.279   0.768  10.754 -0.3521 -0.3718 -0.8999
  145SAPE    C315899   3.584   1.024  11.042 -0.2710 -0.2646  0.1820
  145SAPE    HX15900   3.596   0.924  11.089  0.9877 -1.5337 -2.7491
  145SAPE    HY15901   3.593   1.089  11.132 -0.7028 -3.3803  2.5905
  145SAPE   O3115902   3.687   1.072  10.949  0.1546  0.2980 -0.2413
  145SAPE   C3115903   3.748   0.978  10.884 -0.4535  0.9151 -1.0049
  145SAPE   O3215904   3.736   0.856  10.895  0.4905  0.0576  0.2250
  145SAPE   C3215905   3.833   1.043  10.781 -0.0011 -0.2211  0.2927
  145SAPE   H2X15906   3.935   1.056  10.823  0.2477 -1.9725  0.2775
  145SAPE   H2Y15907   3.796   1.146  10.764 -2.7675 -1.5009 -1.9204
  145SAPE   C2315908   3.384   0.813  10.569 -0.2755  0.4420  0.5655
  145SAPE   H3R15909   3.484   0.857  10.550  0.2927 -1.7790 -1.8549
  145SAPE   H3S15910   3.310   0.887  10.533 -0.5982 -0.2406 -0.1902
  145SAPE   C2415911   3.376   0.684  10.485  0.8898  0.1002 -0.1258
  145SAPE   H4R15912   3.444   0.607  10.528 -1.8623 -1.7770  1.0241
  145SAPE   H4S15913   3.418   0.705  10.385  2.5484 -1.1046  0.2802
  145SAPE   C2515914   3.243   0.622  10.478 -0.7953 -0.5621  0.0119
  145SAPE   H5R15915   3.196   0.601  10.575 -2.9712  1.8903 -0.4699
  145SAPE   C2615916   3.167   0.613  10.373 -0.1152  0.0283 -0.0675
  145SAPE   H6R15917   3.076   0.557  10.400 -1.2494  2.3037  1.0849
  145SAPE   C2715918   3.195   0.648  10.233  0.1022  0.2074 -0.8050
  145SAPE   H7R15919   3.273   0.727  10.229  0.1586  0.1704 -0.4591
  145SAPE   H7S15920   3.113   0.705  10.184 -0.1692  1.3900  0.9935
  145SAPE   C2815921   3.239   0.522  10.158 -0.1528 -0.7706 -0.4458
  145SAPE   H8R15922   3.258   0.427  10.211  1.2100  0.5336  1.4789
  145SAPE   C2915923   3.252   0.513  10.023 -0.3663  0.1434  0.0532
  145SAPE   H9R15924   3.295   0.423   9.978 -1.7130 -0.7621  0.5497
  145SAPE  C21015925   3.217   0.628   9.931  0.7426 -0.1787  0.2038
  145SAPE  H10R15926   3.311   0.652   9.876  0.0429 -0.1173 -0.9969
  145SAPE  H10S15927   3.198   0.722   9.987 -1.8031  1.0738 -2.5986
  145SAPE  C21115928   3.100   0.611   9.838 -0.3217  0.1183  0.9519
  145SAPE  H11R15929   3.008   0.655   9.880  1.1168  3.0297  1.1532
  145SAPE  C21215930   3.097   0.552   9.710  0.6576 -0.4389 -0.4924
  145SAPE  H12R15931   2.999   0.551   9.660  1.0950 -0.4748 -1.3456
  145SAPE  C21315932   3.212   0.490   9.641 -0.5866  0.1505  0.6660
  145SAPE  H13R15933   3.272   0.429   9.712  1.9194 -0.1518 -1.6675
  145SAPE  H13S15934   3.277   0.577   9.616 -0.2208 -0.4768 -0.5878
  145SAPE  C21415935   3.169   0.409   9.517  0.3814  0.4884  0.0264
  145SAPE  H14R15936   3.174   0.300   9.532  0.3898  0.4496 -0.2635
  145SAPE  C21515937   3.135   0.460   9.404  0.6635 -0.3572 -0.4022
  145SAPE  H15R15938   3.121   0.397   9.315  0.5882  0.0675 -0.6956
  145SAPE  C21615939   3.114   0.607   9.367 -0.6449  0.1805 -0.5333
  145SAPE  H16R15940   3.200   0.665   9.407 -0.9525  0.9607 -0.9735
  145SAPE  H16S15941   3.019   0.650   9.407  0.4577  1.1687  1.0930
  145SAPE  C21715942   3.112   0.630   9.215 -0.0456  0.4908 -0.2924
  145SAPE  H17R15943   3.197   0.580   9.164 -0.4334 -1.1830  0.6877
  145SAPE  H17S15944   3.114   0.740   9.202 -1.7641  0.5185 -0.4074
  145SAPE  C21815945   2.983   0.577   9.153 -0.0441 -0.0583 -0.4408
  145SAPE  H18R15946   2.894   0.603   9.215 -0.8364 -3.3752 -0.1360
  145SAPE  H18S15947   2.990   0.467   9.153  2.0933  0.0608  0.1441
  145SAPE  C21915948   2.956   0.627   9.011 -0.2667 -0.1537 -0.3719
  145SAPE  H19R15949   3.048   0.639   8.950 -1.5885  1.1167 -2.1538
  145SAPE  H19S15950   2.906   0.726   9.013  2.4053  1.2246  0.7345
  145SAPE  C22015951   2.855   0.545   8.927  0.2760 -0.9135 -0.0361
  145SAPE  H20R15952   2.789   0.487   8.996  0.0828 -3.2382 -2.1377
  145SAPE  H20S15953   2.904   0.468   8.864  1.7413 -0.0529  0.0426
  145SAPE  H20T15954   2.792   0.612   8.865  1.0781  0.0503  0.1780
  145SAPE   C3315955   3.827   0.973  10.643  0.0878 -0.5084  0.1359
  145SAPE   H3X15956   3.723   0.948  10.614 -0.2382  0.5768  0.3527
  145SAPE   H3Y15957   3.884   0.878  10.655 -0.9599 -1.2663 -0.7623
  145SAPE   C3415958   3.893   1.058  10.531  0.2236 -0.4813 -0.6161
  145SAPE   H4X15959   3.997   1.091  10.550 -0.4968  2.5950 -1.6554
  145SAPE   H4Y15960   3.825   1.146  10.520  1.0911  0.2055 -0.5054
  145SAPE   C3515961   3.891   0.982  10.397  0.3662  0.0965  0.4471
  145SAPE   H5X15962   3.806   0.910  10.393  1.7806 -1.7595  2.5895
  145SAPE   H5Y15963   3.981   0.922  10.376  0.4896  0.0022  1.2155
  145SAPE   C3615964   3.885   1.079  10.280 -0.4998  0.7754 -0.0572
  145SAPE   H6X15965   3.983   1.132  10.286  1.5796 -2.8570 -0.6563
  145SAPE   H6Y15966   3.806   1.156  10.292 -2.0122 -0.6743 -0.4994
  145SAPE   C3715967   3.873   1.012  10.144 -0.3350 -0.0232  0.0196
  145SAPE   H7X15968   3.768   0.981  10.128 -0.2394 -0.8144  0.8873
  145SAPE   H7Y15969   3.936   0.920  10.136 -2.2900 -1.5008  1.2032
  145SAPE   C3815970   3.907   1.114  10.037  0.2485 -0.0496  0.1031
  145SAPE   H8X15971   4.010   1.149  10.058  0.2489  1.6449 -2.4970
  145SAPE   H8Y15972   3.834   1.197  10.034 -0.8613 -1.0629 -1.6454
  145SAPE   C3915973   3.907   1.059   9.892  0.4368 -0.6276 -0.9913
  145SAPE   H9X15974   3.808   1.013   9.873 -0.3747  1.1386 -1.0824
  145SAPE   H9Y15975   3.976   0.972   9.882  2.7838  1.1442 -0.8135
  145SAPE  C31015976   3.951   1.158   9.783  0.6216 -0.4500  0.8958
  145SAPE  H10X15977   4.049   1.204   9.806  0.9438 -0.7838  0.1963
  145SAPE  H10Y15978   3.883   1.246   9.786  0.4856 -0.5297  0.2001
  145SAPE  C31115979   3.945   1.098   9.640  0.2852 -0.1589 -0.3946
  145SAPE  H11X15980   3.847   1.051   9.622  1.0497 -2.1700  0.5457
  145SAPE  H11Y15981   4.010   1.008   9.632  1.1782  0.3728  0.6624
  145SAPE  C31215982   3.996   1.193   9.539 -0.2505 -0.2850  0.6950
  145SAPE  H12X15983   4.090   1.240   9.576  0.0515 -0.2536 -0.1181
  145SAPE  H12Y15984   3.923   1.277   9.545 -0.6225 -0.5188 -0.4828
  145SAPE  C31315985   4.011   1.133   9.395  0.2926  0.2765  0.8691
  145SAPE  H13X15986   3.911   1.097   9.363  0.2065  1.1391  0.1573
  145SAPE  H13Y15987   4.075   1.042   9.404 -1.3391 -0.6295  3.7751
  145SAPE  C31415988   4.060   1.235   9.291  0.5513  0.5348 -0.1041
  145SAPE  H14X15989   4.170   1.228   9.300  0.5591  0.8776  0.0309
  145SAPE  H14Y15990   4.027   1.339   9.311 -0.5453  0.7552 -2.8144
  145SAPE  C31515991   4.005   1.211   9.145 -0.4526 -0.4085  0.9005
  145SAPE  H15X15992   3.896   1.235   9.144 -0.5259 -0.7286  1.1427
  145SAPE  H15Y15993   4.025   1.107   9.112 -0.1839  0.2773 -1.1380
  145SAPE  C31615994   4.057   1.315   9.046  0.1836  0.3855  0.2540
  145SAPE  H16X15995   4.002   1.286   8.953 -0.5173  1.7643  0.2351
  145SAPE  H16Y15996   4.168   1.310   9.037  0.2968  2.7366  0.0025
  145SAPE  C31715997   4.028   1.460   9.085 -0.2405 -0.1193 -0.2178
  145SAPE  H17X15998   4.094   1.487   9.171 -0.7816  0.8460 -0.0897
  145SAPE  H17Y15999   3.927   1.456   9.131 -0.5125  1.6491 -0.6276
  145SAPE  C31816000   4.028   1.547   8.960 -0.5388  0.0838 -0.3122
  145SAPE  H18X16001   3.960   1.510   8.880  0.5467  2.5750 -2.4126
  145SAPE  H18Y16002   4.127   1.547   8.911 -0.6727 -0.5149 -0.5962
  145SAPE  H18Z16003   3.990   1.649   8.981  0.4176  0.1581  1.1083
  146SAPE     N16004   1.511   0.201  10.916 -0.3007 -0.4203  0.3241
  146SAPE   HN116005   1.604   0.188  10.961 -0.2730  1.2940  0.7844
  146SAPE   HN216006   1.469   0.291  10.945 -2.5390 -1.3378  0.0381
  146SAPE   HN316007   1.459   0.129  10.971  2.1665 -1.4978  1.3502
  146SAPE   C1216008   1.496   0.166  10.771 -0.1454 -0.5261 -0.3874
  146SAPE  H12A16009   1.560   0.242  10.720  2.1189 -1.7346  0.5473
  146SAPE  H12B16010   1.393   0.177  10.732 -1.1513  0.3361  2.3865
  146SAPE   C1116011   1.552   0.022  10.746 -0.5134  0.2920 -0.1414
  146SAPE  H11A16012   1.650   0.015  10.798 -0.1867 -0.2490 -0.8225
  146SAPE  H11B16013   1.580   0.008  10.639  2.5387  0.1097  0.6310
  146SAPE     P16014   1.404  -0.127  10.910  0.1847 -0.0886 -0.0248
  146SAPE   O1316015   1.511  -0.199  10.981  0.4586 -0.2512  0.0680
  146SAPE   O1416016   1.355  -0.011  10.986  0.0576 -0.1626 -0.0070
  146SAPE   O1216017   1.453  -0.079  10.766 -0.3400 -0.5110  0.2273
  146SAPE   O1116018   1.277  -0.215  10.868 -0.7737 -0.4832  0.6501
  146SAPE    C116019   1.293  -0.335  10.798  0.9120 -0.2751  1.2554
  146SAPE    HA16020   1.400  -0.348  10.769  1.0746  2.5251  0.4342
  146SAPE    HB16021   1.260  -0.418  10.865 -0.0015 -0.4148  0.6338
  146SAPE    C216022   1.219  -0.342  10.667  0.2228 -0.2977 -0.2051
  146SAPE    HS16023   1.260  -0.429  10.612 -2.3583  0.3129 -3.2056
  146SAPE   O2116024   1.235  -0.219  10.600  0.4171 -0.3051 -0.4048
  146SAPE   C2116025   1.347  -0.210  10.522  0.0381  0.2889  0.1092
  146SAPE   O2216026   1.426  -0.298  10.507 -0.1653  0.4140 -0.3648
  146SAPE   C2216027   1.346  -0.068  10.457 -0.5061 -0.0966  0.0582
  146SAPE   H2R16028   1.252  -0.046  10.403 -1.3883  0.4852  1.7786
  146SAPE   H2S16029   1.361   0.001  10.543  3.7346 -0.9455  0.1235
  146SAPE    C316030   1.065  -0.365  10.695  0.0390  0.8493  0.9488
  146SAPE    HX16031   1.033  -0.305  10.782  0.7776  1.5321  0.7637
  146SAPE    HY16032   1.051  -0.471  10.722 -0.4891  0.8527  0.7016
  146SAPE   O3116033   0.986  -0.367  10.574  0.6057  0.0909  0.0644
  146SAPE   C3116034   0.938  -0.254  10.538 -0.5963 -0.2189 -0.2766
  146SAPE   O3216035   0.935  -0.152  10.605  0.2556 -0.2902 -0.6027
  146SAPE   C3216036   0.897  -0.271  10.397  0.1203  0.3128  0.1268
  146SAPE   H2X16037   0.834  -0.187  10.361  0.6348  0.5548 -0.2323
  146SAPE   H2Y16038   0.833  -0.360  10.378 -1.2499  1.1514  0.7943
  146SAPE   C2316039   1.465  -0.046  10.362  0.1806  0.4544  0.0875
  146SAPE   H3R16040   1.454  -0.121  10.280  0.0108  0.0578  0.4667
  146SAPE   H3S16041   1.558  -0.067  10.419  0.3429  0.0148 -0.3352
  146SAPE   C2416042   1.466   0.099  10.303 -0.1623  0.3941 -0.2413
  146SAPE   H4R16043   1.366   0.110  10.256  1.1422  2.3562 -2.6641
  146SAPE   H4S16044   1.539   0.102  10.219 -0.1658 -0.8285 -0.2972
  146SAPE   C2516045   1.497   0.213  10.398  0.9824 -0.7941 -0.3004
  146SAPE   H5R16046   1.412   0.235  10.464  0.7286 -0.4799 -0.7312
  146SAPE   C2616047   1.608   0.286  10.403 -0.1347  0.2388 -0.4455
  146SAPE   H6R16048   1.600   0.366  10.479 -1.7500 -3.4731  3.5001
  146SAPE   C2716049   1.734   0.267  10.327 -0.1081  0.1564  0.2270
  146SAPE   H7R16050   1.761   0.161  10.346 -0.5581  0.1287  0.7304
  146SAPE   H7S16051   1.813   0.333  10.369  0.9124 -0.2444 -1.0235
  146SAPE   C2816052   1.729   0.306  10.178  0.0605 -0.0232  0.3464
  146SAPE   H8R16053   1.648   0.365  10.133  0.9440  1.6987  0.9867
  146SAPE   C2916054   1.840   0.291  10.099 -0.8037 -0.0808 -0.0239
  146SAPE   H9R16055   1.830   0.318   9.993 -1.6241 -0.8567 -0.1440
  146SAPE  C21016056   1.977   0.239  10.132  0.3469 -0.1030  0.0378
  146SAPE  H10R16057   1.992   0.211  10.238  0.0242  0.6687  0.2910
  146SAPE  H10S16058   2.055   0.316  10.113  0.6504 -0.1966  0.8900
  146SAPE  C21116059   1.996   0.113  10.051  0.3816 -0.2975  0.3094
  146SAPE  H11R16060   1.996   0.019  10.108  2.0422 -1.3927 -1.4697
  146SAPE  C21216061   2.009   0.103   9.919 -0.0189 -0.2725  0.3567
  146SAPE  H12R16062   2.040   0.004   9.884 -2.0090 -1.5487  2.1107
  146SAPE  C21316063   2.009   0.210   9.815 -0.0213  0.3534 -0.1306
  146SAPE  H13R16064   2.110   0.219   9.769 -0.8749 -0.6298 -2.3109
  146SAPE  H13S16065   1.997   0.308   9.864  0.6394 -0.2866  1.3416
  146SAPE  C21416066   1.892   0.195   9.717 -0.0332  0.1422 -0.2199
  146SAPE  H14R16067   1.796   0.178   9.767  0.1457 -2.8713 -0.8333
  146SAPE  C21516068   1.900   0.203   9.583 -0.2422 -0.5567 -0.8937
  146SAPE  H15R16069   1.813   0.189   9.517 -1.1179  0.2765  0.0595
  146SAPE  C21616070   2.021   0.226   9.500  0.6639  0.3840 -0.4631
  146SAPE  H16R16071   2.035   0.152   9.418  0.6938  1.4719 -1.4493
  146SAPE  H16S16072   2.112   0.219   9.564 -1.6222  0.4738  2.9325
  146SAPE  C21716073   2.011   0.363   9.429 -0.3836 -0.3480  0.2936
  146SAPE  H17R16074   1.914   0.392   9.382 -0.8225 -0.1739  1.2916
  146SAPE  H17S16075   2.075   0.358   9.338  2.5049  1.9021  2.1113
  146SAPE  C21816076   2.052   0.482   9.515  0.8885 -0.3415  1.1928
  146SAPE  H18R16077   2.125   0.434   9.584  2.0816 -1.4207 -0.7775
  146SAPE  H18S16078   1.970   0.527   9.575  1.4162  1.5195  0.5661
  146SAPE  C21916079   2.128   0.589   9.444  0.5102 -0.1162 -0.3317
  146SAPE  H19R16080   2.059   0.637   9.371 -0.7728  0.4391  1.2165
  146SAPE  H19S16081   2.211   0.546   9.383  0.6813  1.3493 -1.1717
  146SAPE  C22016082   2.195   0.699   9.534  0.0097  0.0359 -0.0622
  146SAPE  H20R16083   2.250   0.762   9.461 -0.0140  0.7217  0.5175
  146SAPE  H20S16084   2.265   0.665   9.614  0.4698  1.6992  0.2567
  146SAPE  H20T16085   2.120   0.763   9.585 -0.6449 -1.6949  1.2023
  146SAPE   C3316086   1.022  -0.256  10.306  0.0607  0.0243  0.3109
  146SAPE   H3X16087   1.087  -0.346  10.311  2.4302  1.6577 -0.5513
  146SAPE   H3Y16088   1.080  -0.162  10.314  1.2515 -0.6059 -0.7121
  146SAPE   C3416089   0.975  -0.263  10.157  0.3922  0.3519  0.4162
  146SAPE   H4X16090   0.910  -0.174  10.142 -0.5745  0.0413  2.5469
  146SAPE   H4Y16091   0.920  -0.360  10.156  2.7380 -1.1144  4.5374
  146SAPE   C3516092   1.091  -0.259  10.049 -0.6282  0.1546  0.2326
  146SAPE   H5X16093   1.170  -0.329  10.085 -0.2474 -0.2195 -1.2996
  146SAPE   H5Y16094   1.128  -0.155  10.035  0.5309  0.1566  2.9396
  146SAPE   C3616095   1.038  -0.327   9.924 -0.0730 -0.7323 -0.2853
  146SAPE   H6X16096   0.952  -0.260   9.898  0.5733  0.7022  1.1860
  146SAPE   H6Y16097   0.987  -0.424   9.943 -0.2781 -0.6371 -0.3397
  146SAPE   C3716098   1.148  -0.325   9.819 -0.3069  0.4895  0.8432
  146SAPE   H7X16099   1.228  -0.398   9.845 -0.4721 -0.0042  0.0001
  146SAPE   H7Y16100   1.195  -0.226   9.803 -0.7848  0.6223  0.2400
  146SAPE   C3816101   1.086  -0.365   9.687  0.2279  0.3925 -0.1806
  146SAPE   H8X16102   0.991  -0.308   9.673 -0.2848 -0.1929  0.8861
  146SAPE   H8Y16103   1.059  -0.473   9.689  1.1861  0.1619  0.3710
  146SAPE   C3916104   1.180  -0.344   9.565 -0.5143 -0.7247 -0.3710
  146SAPE   H9X16105   1.279  -0.394   9.578  0.1264  0.6350  0.1210
  146SAPE   H9Y16106   1.205  -0.236   9.571  1.6075 -1.1942 -0.1723
  146SAPE  C31016107   1.123  -0.378   9.426  0.3735  0.0166 -0.8487
  146SAPE  H10X16108   1.024  -0.330   9.418  0.2067 -0.0452  0.8587
  146SAPE  H10Y16109   1.096  -0.486   9.420  0.5203 -0.0754  0.1233
  146SAPE  C31116110   1.216  -0.343   9.309  0.5994 -0.1042 -0.0111
  146SAPE  H11X16111   1.320  -0.370   9.339  1.1916  2.6107  0.5717
  146SAPE  H11Y16112   1.237  -0.234   9.313 -0.4413  0.1344 -0.8458
  146SAPE  C31216113   1.170  -0.391   9.173  0.8922 -1.0227 -0.8608
  146SAPE  H12X16114   1.235  -0.346   9.095  1.9660 -0.5540  0.2872
  146SAPE  H12Y16115   1.072  -0.345   9.148 -0.1818 -2.1676  1.1780
  146SAPE  C31316116   1.172  -0.543   9.147  0.2849 -0.2267 -0.3952
  146SAPE  H13X16117   1.096  -0.597   9.207  0.9657  0.1566  0.8423
  146SAPE  H13Y16118   1.273  -0.576   9.179  0.9551  1.4643 -0.6959
  146SAPE  C31416119   1.140  -0.585   9.001 -0.3150 -0.4203 -0.2523
  146SAPE  H14X16120   1.041  -0.545   8.972  0.0251  0.2973 -0.4463
  146SAPE  H14Y16121   1.120  -0.693   8.986 -3.6556  0.2465 -0.8130
  146SAPE  C31516122   1.245  -0.540   8.895 -0.0805  0.2940  0.3758
  146SAPE  H15X16123   1.348  -0.548   8.936  0.1556 -1.5733 -0.5419
  146SAPE  H15Y16124   1.238  -0.431   8.874 -2.1210 -0.0161 -0.6681
  146SAPE  C31616125   1.242  -0.609   8.760  0.1869 -0.1862  0.3494
  146SAPE  H16X16126   1.238  -0.720   8.758  0.2964 -0.1951  0.6501
  146SAPE  H16Y16127   1.333  -0.578   8.705  0.4544 -0.2961  0.7279
  146SAPE  C31716128   1.128  -0.560   8.671  0.2030 -0.3343 -0.1818
  146SAPE  H17X16129   1.126  -0.449   8.665 -2.8383 -0.2764  0.7586
  146SAPE  H17Y16130   1.036  -0.598   8.721  0.3184  1.1679  1.1971
  146SAPE  C31816131   1.130  -0.628   8.532  0.3483  0.0417  0.6312
  146SAPE  H18X16132   1.035  -0.614   8.476 -0.3275  3.6377  2.4895
  146SAPE  H18Y16133   1.150  -0.736   8.549 -0.2944 -0.6023 -2.4364
  146SAPE  H18Z16134   1.205  -0.579   8.467 -0.3155 -1.5806 -1.3921
  147SAPE     N16135   5.009   4.221   6.300  0.4434 -0.3048  0.2571
  147SAPE   HN116136   5.035   4.272   6.213  1.4673 -1.2719 -0.0195
  147SAPE   HN216137   4.996   4.118   6.294  2.0995 -0.5225  0.2120
  147SAPE   HN316138   4.911   4.250   6.320  1.0591  2.6680 -0.7745
  147SAPE   C1216139   5.100   4.263   6.412  0.0972  0.1783  0.6296
  147SAPE  H12A16140   5.207   4.253   6.384 -0.3137 -0.6926 -0.6913
  147SAPE  H12B16141   5.078   4.199   6.499  0.1952  0.1066  0.6018
  147SAPE   C1116142   5.067   4.416   6.445 -0.6490  0.5579 -0.3078
  147SAPE  H11A16143   5.126   4.467   6.366  0.6232 -0.9909 -0.3677
  147SAPE  H11B16144   5.121   4.446   6.537 -0.7761 -0.0366 -0.0366
  147SAPE     P16145   4.857   4.552   6.374  0.1064 -0.1772  0.0196
  147SAPE   O1316146   4.912   4.566   6.237  0.0516  0.7962  0.4078
  147SAPE   O1416147   4.714   4.527   6.371 -0.2846 -0.2703  0.5750
  147SAPE   O1216148   4.929   4.433   6.443  0.0663  0.3321  0.1683
  147SAPE   O1116149   4.900   4.679   6.467  0.1216 -0.2454 -0.1350
  147SAPE    C116150   4.826   4.706   6.589 -0.0861 -0.0043  0.0998
  147SAPE    HA16151   4.851   4.810   6.618 -3.0625  0.5729  0.6629
  147SAPE    HB16152   4.717   4.703   6.569 -0.1662 -1.4678  0.7000
  147SAPE    C216153   4.861   4.605   6.702  0.9713  0.0043 -0.0684
  147SAPE    HS16154   4.970   4.583   6.698  1.1346  0.9128 -1.1919
  147SAPE   O2116155   4.780   4.484   6.705 -0.2096  0.1608  0.5099
  147SAPE   C2116156   4.842   4.371   6.730  0.4510 -0.9134  0.5718
  147SAPE   O2216157   4.956   4.370   6.779 -0.0338  0.5906  0.7021
  147SAPE   C2216158   4.765   4.254   6.656 -0.0626  0.1479 -0.2518
  147SAPE   H2R16159   4.736   4.309   6.564  0.6537  0.1844 -0.4628
  147SAPE   H2S16160   4.821   4.162   6.626  2.2437  1.2226  0.6608
  147SAPE    C316161   4.836   4.676   6.844  0.0083  0.1232  1.1123
  147SAPE    HX16162   4.740   4.731   6.853 -0.2720 -0.3602  1.1076
  147SAPE    HY16163   4.909   4.758   6.860  0.1381 -0.1637  1.9820
  147SAPE   O3116164   4.841   4.579   6.949  0.3136 -0.5483 -0.0830
  147SAPE   C3116165   4.964   4.560   7.001 -0.4534 -0.3084 -0.0923
  147SAPE   O3216166   5.061   4.627   6.975 -0.1562  0.4599  0.2959
  147SAPE   C3216167   4.969   4.464   7.122 -0.2798 -0.2998 -0.4836
  147SAPE   H2X16168   4.908   4.528   7.190 -0.3267  0.2581 -1.0395
  147SAPE   H2Y16169   5.072   4.462   7.163 -0.3377  1.4116 -0.1933
  147SAPE   C2316170   4.646   4.212   6.743 -0.1734 -0.6141  0.0144
  147SAPE   H3R16171   4.609   4.298   6.804  1.4530  0.6242 -0.7083
  147SAPE   H3S16172   4.676   4.135   6.817  0.5934  1.0366  1.4474
  147SAPE   C2416173   4.522   4.167   6.666  0.6992 -0.3157  0.2392
  147SAPE   H4R16174   4.506   4.243   6.587 -0.4114  0.0360  0.7845
  147SAPE   H4S16175   4.435   4.182   6.734  0.6509  2.0174 -0.2852
  147SAPE   C2516176   4.528   4.027   6.599 -0.7056 -0.7028  0.3013
  147SAPE   H5R16177   4.599   4.020   6.515  1.1104  0.4318  1.7087
  147SAPE   C2616178   4.454   3.918   6.638  0.0931  0.3037 -0.2229
  147SAPE   H6R16179   4.462   3.829   6.573 -0.1676  0.0169  0.1366
  147SAPE   C2716180   4.354   3.900   6.746  0.9179 -0.0239  0.3792
  147SAPE   H7R16181   4.254   3.890   6.698  1.7976 -0.2983 -1.4459
  147SAPE   H7S16182   4.352   3.985   6.818 -1.2120 -0.4032  0.8158
  147SAPE   C2816183   4.386   3.777   6.829  0.3671  0.4132  0.0212
  147SAPE   H8R16184   4.343   3.685   6.786 -2.5842  1.3752  0.8597
  147SAPE   C2916185   4.453   3.774   6.946  0.0990  0.0089 -0.1729
  147SAPE   H9R16186   4.482   3.679   6.993 -2.3012 -0.5551  0.2383
  147SAPE  C21016187   4.504   3.894   7.019  0.2637 -0.1385  0.1487
  147SAPE  H10R16188   4.564   3.964   6.957  0.8823 -0.0676  0.8274
  147SAPE  H10S16189   4.586   3.855   7.082  0.2932 -3.5742 -1.8415
  147SAPE  C21116190   4.408   3.968   7.107  0.5955  0.3314  0.0600
  147SAPE  H11R16191   4.304   3.968   7.074  0.7228 -2.9188 -0.5460
  147SAPE  C21216192   4.434   4.027   7.230  0.1972  0.4755 -0.1955
  147SAPE  H12R16193   4.351   4.060   7.294 -1.2495 -0.9745 -1.2828
  147SAPE  C21316194   4.573   4.034   7.296  0.6938  0.4792 -0.3948
  147SAPE  H13R16195   4.652   4.008   7.223  0.0594 -1.0235 -0.5558
  147SAPE  H13S16196   4.574   3.957   7.376  1.9715  1.1693  0.2625
  147SAPE  C21416197   4.601   4.171   7.358  1.1134 -0.2367  0.3720
  147SAPE  H14R16198   4.619   4.245   7.278  0.5090 -0.6377 -0.1439
  147SAPE  C21516199   4.609   4.195   7.489 -0.4863 -0.0911  0.5887
  147SAPE  H15R16200   4.657   4.286   7.527  1.4361 -0.8411  0.0123
  147SAPE  C21616201   4.588   4.096   7.604  0.0334 -0.8215 -0.2963
  147SAPE  H16R16202   4.612   3.993   7.570 -0.5730 -1.2886  0.6719
  147SAPE  H16S16203   4.481   4.104   7.631 -0.4688  1.0222 -2.6169
  147SAPE  C21716204   4.687   4.112   7.723 -0.3972 -0.0010  0.1115
  147SAPE  H17R16205   4.685   4.215   7.764  0.4609  1.2987 -2.9453
  147SAPE  H17S16206   4.792   4.097   7.690 -0.2170  1.0937  0.1779
  147SAPE  C21816207   4.644   4.028   7.843  1.0865 -1.0171 -0.0851
  147SAPE  H18R16208   4.675   3.927   7.808  0.8335 -1.2869  0.4587
  147SAPE  H18S16209   4.535   4.034   7.863  0.8434 -1.8054 -1.1377
  147SAPE  C21916210   4.718   4.078   7.965 -0.8560 -0.0415  0.7913
  147SAPE  H19R16211   4.825   4.069   7.936 -1.2603 -2.5068 -0.0392
  147SAPE  H19S16212   4.702   4.001   8.043 -1.1353  0.9038  1.6814
  147SAPE  C22016213   4.689   4.217   8.020 -0.0024 -0.6110  0.1012
  147SAPE  H20R16214   4.747   4.222   8.115  1.2163  1.4298 -0.7349
  147SAPE  H20S16215   4.581   4.222   8.049  0.0080 -0.8382  0.1835
  147SAPE  H20T16216   4.714   4.305   7.958 -0.4423 -2.8837 -3.4786
  147SAPE   C3316217   4.904   4.331   7.096 -0.0515  0.0783 -0.0757
  147SAPE   H3X16218   4.955   4.287   7.007  0.4971  1.4157 -0.4447
  147SAPE   H3Y16219   4.800   4.341   7.059  0.0262  0.5555 -0.1746
  147SAPE   C3416220   4.915   4.241   7.216 -0.1419  0.4308  0.3891
  147SAPE   H4X16221   4.838   4.164   7.194  2.6605 -1.3523 -3.7332
  147SAPE   H4Y16222   4.890   4.297   7.309  0.7309 -0.6778  1.3248
  147SAPE   C3516223   5.060   4.188   7.250  0.0182 -0.1825 -0.6580
  147SAPE   H5X16224   5.140   4.265   7.248  0.0041 -0.1063  0.8530
  147SAPE   H5Y16225   5.093   4.117   7.172 -0.5607 -1.3679  0.1477
  147SAPE   C3616226   5.053   4.123   7.395  0.0444 -0.3074  0.6002
  147SAPE   H6X16227   5.005   4.022   7.391 -1.3673  0.4082 -2.2846
  147SAPE   H6Y16228   4.994   4.182   7.468 -0.1685  1.7725 -1.2210
  147SAPE   C3716229   5.191   4.116   7.460  1.1339 -0.5164 -0.0635
  147SAPE   H7X16230   5.228   4.219   7.479  1.1826 -0.7696  1.2733
  147SAPE   H7Y16231   5.260   4.061   7.393  0.5586 -1.0438 -0.2322
  147SAPE   C3816232   5.176   4.045   7.602  0.3560  0.3034 -0.2677
  147SAPE   H8X16233   5.112   3.956   7.586  2.3419 -1.0343 -1.0127
  147SAPE   H8Y16234   5.123   4.114   7.672  1.5572 -1.5218  2.5590
  147SAPE   C3916235   5.312   4.019   7.673  0.7298  0.9216  0.2621
  147SAPE   H9X16236   5.380   3.977   7.596 -0.8957 -0.5587 -0.4253
  147SAPE   H9Y16237   5.297   3.939   7.750  0.0478  0.6739 -0.1224
  147SAPE  C31016238   5.372   4.145   7.748  0.7030 -0.1497 -0.2891
  147SAPE  H10X16239   5.303   4.174   7.830  0.1740 -1.1029 -0.3863
  147SAPE  H10Y16240   5.383   4.236   7.684 -1.5169 -1.5314 -2.7725
  147SAPE  C31116241   5.508   4.104   7.819 -0.1920  0.2336  0.4657
  147SAPE  H11X16242   5.578   4.082   7.736 -1.9242  1.2349 -1.3060
  147SAPE  H11Y16243   5.479   4.011   7.872 -1.4357 -0.6820 -1.7520
  147SAPE  C31216244   5.560   4.211   7.905 -0.3420 -0.4278 -0.2899
  147SAPE  H12X16245   5.550   4.311   7.857  1.1465 -0.9419 -1.7042
  147SAPE  H12Y16246   5.670   4.214   7.922 -0.2573  0.2227 -0.9246
  147SAPE  C31316247   5.495   4.209   8.042  0.0059 -0.9940  0.2823
  147SAPE  H13X16248   5.510   4.113   8.096  1.6507 -1.8222 -1.5831
  147SAPE  H13Y16249   5.386   4.231   8.043 -0.0917 -1.5078  1.5360
  147SAPE  C31416250   5.539   4.322   8.144 -0.5097 -0.5967  0.2502
  147SAPE  H14X16251   5.641   4.291   8.175  0.3381  0.9044 -0.9877
  147SAPE  H14Y16252   5.471   4.315   8.232 -2.6398  0.8273 -1.2358
  147SAPE  C31516253   5.518   4.470   8.093 -0.0814  0.3298 -0.1633
  147SAPE  H15X16254   5.409   4.486   8.079 -0.1281 -1.5537 -2.2431
  147SAPE  H15Y16255   5.579   4.495   8.004 -0.2992 -0.5051 -0.5566
  147SAPE  C31616256   5.558   4.573   8.205 -0.4799  0.3407 -0.0705
  147SAPE  H16X16257   5.552   4.677   8.167 -1.0180  0.3233 -0.0377
  147SAPE  H16Y16258   5.663   4.560   8.240 -0.5368  2.2464  0.8456
  147SAPE  C31716259   5.460   4.574   8.320  0.3966  0.2199 -0.5234
  147SAPE  H17X16260   5.450   4.480   8.378 -0.7441 -0.8005 -2.3214
  147SAPE  H17Y16261   5.360   4.598   8.276  0.5467 -0.1974 -1.0960
  147SAPE  C31816262   5.501   4.682   8.426 -0.1012  0.7230  0.3102
  147SAPE  H18X16263   5.426   4.680   8.509  1.6067 -2.3412  1.8826
  147SAPE  H18Y16264   5.519   4.773   8.365  2.2673 -0.5679 -0.9593
  147SAPE  H18Z16265   5.598   4.669   8.478 -0.2972  0.9360  0.7348
  148SAPE     N16266   4.915   2.279   6.443 -0.1348  0.4301 -0.0622
  148SAPE   HN116267   4.868   2.267   6.351 -0.5906  0.4848  0.1610
  148SAPE   HN216268   4.933   2.380   6.458  0.9770 -0.0041  1.6140
  148SAPE   HN316269   5.013   2.248   6.425 -0.3051 -1.0624  1.4966
  148SAPE   C1216270   4.855   2.182   6.539  0.2033  0.4865 -0.0262
  148SAPE  H12A16271   4.927   2.184   6.624  0.4700  2.5341 -0.2865
  148SAPE  H12B16272   4.859   2.082   6.491 -1.7556  0.0825  0.5924
  148SAPE   C1116273   4.725   2.228   6.589  0.4503 -0.7563 -0.1591
  148SAPE  H11A16274   4.690   2.153   6.663  0.8545 -0.2045  0.5921
  148SAPE  H11B16275   4.641   2.226   6.515 -2.7226 -0.2267  3.2710
  148SAPE     P16276   4.629   2.418   6.746  0.0809  0.0942  0.3697
  148SAPE   O1316277   4.527   2.459   6.644 -0.0702 -0.6377 -0.7923
  148SAPE   O1416278   4.583   2.324   6.851 -0.2787  0.6213 -0.6524
  148SAPE   O1216279   4.746   2.357   6.658 -0.1285  0.4924  0.4269
  148SAPE   O1116280   4.695   2.534   6.815 -0.5823 -0.2747 -0.1938
  148SAPE    C116281   4.642   2.667   6.816  0.7377 -0.2355 -0.2437
  148SAPE    HA16282   4.591   2.707   6.726 -1.9114 -0.5883  1.0295
  148SAPE    HB16283   4.559   2.670   6.891  1.0215  1.6521  0.0095
  148SAPE    C216284   4.755   2.768   6.850 -0.1131  0.0392 -0.0180
  148SAPE    HS16285   4.840   2.752   6.780  0.6520  2.5213  0.2914
  148SAPE   O2116286   4.815   2.723   6.977  0.0135  0.0701  0.2635
  148SAPE   C2116287   4.921   2.790   7.012 -0.3278  0.5779  0.0115
  148SAPE   O2216288   4.992   2.862   6.938 -0.4484  0.7002  0.0728
  148SAPE   C2216289   4.928   2.782   7.163  0.1678  0.4463 -0.5093
  148SAPE   H2R16290   4.829   2.795   7.213 -0.0725 -1.7494 -0.3441
  148SAPE   H2S16291   4.971   2.684   7.193 -1.4938 -0.2738 -0.4428
  148SAPE    C316292   4.716   2.916   6.839 -0.1769 -0.3332  0.2152
  148SAPE    HX16293   4.663   2.933   6.743  1.5604 -1.8330 -1.0677
  148SAPE    HY16294   4.814   2.968   6.830 -0.5410  0.3345  0.1660
  148SAPE   O3116295   4.645   2.971   6.950 -0.3361  0.1061  0.0202
  148SAPE   C3116296   4.512   2.939   6.964 -0.5130 -0.1423 -0.6972
  148SAPE   O3216297   4.440   2.890   6.882  0.0881 -0.3413 -0.2100
  148SAPE   C3216298   4.470   2.979   7.103  0.3305  0.1060 -0.3483
  148SAPE   H2X16299   4.459   3.089   7.107 -2.5284 -0.1627  0.2037
  148SAPE   H2Y16300   4.550   2.944   7.172 -2.8709  3.0792  5.2016
  148SAPE   C2316301   5.036   2.875   7.215 -0.0538  0.6834 -0.0484
  148SAPE   H3R16302   5.030   2.982   7.189 -2.8678  0.1659 -1.8499
  148SAPE   H3S16303   5.132   2.835   7.177 -0.4962 -1.8303  1.3047
  148SAPE   C2416304   5.033   2.876   7.369  0.2204  0.0992  0.1935
  148SAPE   H4R16305   5.060   2.771   7.393  3.0838  0.5961 -0.7231
  148SAPE   H4S16306   4.929   2.900   7.402 -0.0184  0.5053 -0.8440
  148SAPE   C2516307   5.134   2.974   7.422  0.0898 -0.0357 -0.4761
  148SAPE   H5R16308   5.214   3.002   7.351  1.4043  0.4422  1.1516
  148SAPE   C2616309   5.125   3.036   7.543 -0.3177  0.9660  0.2845
  148SAPE   H6R16310   5.201   3.115   7.554 -0.3394  0.7839  1.8676
  148SAPE   C2716311   5.021   3.014   7.650  0.0855 -0.4135 -0.2493
  148SAPE   H7R16312   4.944   2.944   7.612  2.0415 -2.4641 -0.5407
  148SAPE   H7S16313   4.985   3.116   7.677 -2.7756 -0.9415 -1.8515
  148SAPE   C2816314   5.108   2.953   7.760  0.0708 -0.3788 -1.3877
  148SAPE   H8R16315   5.188   2.886   7.726  1.2466  0.1274  0.3170
  148SAPE   C2916316   5.089   2.953   7.897  0.2570  0.1060 -0.4490
  148SAPE   H9R16317   5.164   2.911   7.965 -0.3862 -0.0918  0.1415
  148SAPE  C21016318   4.974   3.020   7.960  0.2933  0.4261  0.2317
  148SAPE  H10R16319   4.972   2.982   8.065  2.5951 -1.0969 -0.2498
  148SAPE  H10S16320   4.882   2.982   7.909  1.0864 -2.6064  0.9502
  148SAPE  C21116321   4.975   3.169   7.950  0.6486 -0.1159  0.2531
  148SAPE  H11R16322   4.927   3.212   7.860  0.1426  0.6734  0.8894
  148SAPE  C21216323   5.027   3.250   8.037 -0.1310  0.9472 -0.2092
  148SAPE  H12R16324   5.021   3.359   8.032  2.3380  1.2582  2.2664
  148SAPE  C21316325   5.092   3.192   8.166 -0.3149 -0.1678  1.4378
  148SAPE  H13R16326   5.158   3.104   8.153  1.2551  1.1025  0.6141
  148SAPE  H13S16327   5.014   3.143   8.227  0.0325 -0.5457  1.5832
  148SAPE  C21416328   5.180   3.290   8.243  1.0823  0.4289 -0.2935
  148SAPE  H14R16329   5.169   3.397   8.221  0.2473  0.1955 -1.0363
  148SAPE  C21516330   5.261   3.257   8.353 -0.0621  0.2099  0.0353
  148SAPE  H15R16331   5.322   3.336   8.399 -1.3372  0.9176  0.5593
  148SAPE  C21616332   5.304   3.122   8.409  0.4988 -0.4958 -0.6261
  148SAPE  H16R16333   5.397   3.087   8.358  1.3514  0.5577  0.1907
  148SAPE  H16S16334   5.226   3.049   8.376 -1.1511  0.9356  0.0395
  148SAPE  C21716335   5.303   3.092   8.553 -0.7872  0.4220 -0.2477
  148SAPE  H17R16336   5.324   2.984   8.567  1.1260  0.7550 -0.4495
  148SAPE  H17S16337   5.202   3.116   8.594 -1.7044 -1.5853 -1.2777
  148SAPE  C21816338   5.410   3.180   8.623 -0.0272  0.0383 -0.4820
  148SAPE  H18R16339   5.427   3.140   8.725  0.5997 -1.1225 -1.0310
  148SAPE  H18S16340   5.369   3.280   8.648  0.3000  0.1369 -0.3424
  148SAPE  C21916341   5.549   3.190   8.557 -0.2710 -0.9054 -0.0855
  148SAPE  H19R16342   5.550   3.263   8.473  1.2607  0.3177  0.9734
  148SAPE  H19S16343   5.565   3.091   8.508  0.8362 -1.3926  1.2530
  148SAPE  C22016344   5.654   3.224   8.661  0.4340  0.8654  0.1878
  148SAPE  H20R16345   5.663   3.148   8.741 -0.5930 -2.4113 -2.6549
  148SAPE  H20S16346   5.618   3.310   8.721  2.1129  2.0166 -0.4295
  148SAPE  H20T16347   5.754   3.245   8.618  1.3138 -0.8066  1.3753
  148SAPE   C3316348   4.345   2.903   7.138  0.2737  0.3200  0.8685
  148SAPE   H3X16349   4.355   2.794   7.119 -1.1232  0.2706  0.3192
  148SAPE   H3Y16350   4.270   2.933   7.061  0.2647  0.3326  0.8817
  148SAPE   C3416351   4.303   2.941   7.283  0.0351 -0.3771  0.1145
  148SAPE   H4X16352   4.249   3.038   7.280 -0.4794 -0.6220  1.1662
  148SAPE   H4Y16353   4.399   2.941   7.340 -0.0072  1.0466  0.1956
  148SAPE   C3516354   4.212   2.837   7.354  0.3265  0.4932 -0.0250
  148SAPE   H5X16355   4.238   2.729   7.354  1.6986  0.8145 -1.0149
  148SAPE   H5Y16356   4.114   2.853   7.303  1.8494  3.6375 -2.1068
  148SAPE   C3616357   4.190   2.874   7.507 -0.5354 -0.4036  0.3970
  148SAPE   H6X16358   4.097   2.823   7.541 -0.2050 -0.6422  0.9607
  148SAPE   H6Y16359   4.196   2.984   7.512  2.8472 -0.5755  2.1863
  148SAPE   C3716360   4.308   2.826   7.591  1.1625 -0.4000 -0.3900
  148SAPE   H7X16361   4.396   2.886   7.560  0.3013  0.4137 -1.2687
  148SAPE   H7Y16362   4.328   2.717   7.588  1.6298 -0.2647 -3.3133
  148SAPE   C3816363   4.271   2.864   7.737 -1.1533 -0.4422 -0.4804
  148SAPE   H8X16364   4.171   2.822   7.757 -0.7136 -0.9700  0.6561
  148SAPE   H8Y16365   4.251   2.973   7.727  1.0641 -0.2576 -4.2489
  148SAPE   C3916366   4.385   2.824   7.839 -0.4390 -0.3244 -1.0969
  148SAPE   H9X16367   4.471   2.887   7.806 -0.2472  0.1343  0.2517
  148SAPE   H9Y16368   4.408   2.717   7.821  4.6571  0.4439  0.2370
  148SAPE  C31016369   4.346   2.847   7.986 -0.3294  0.6065 -0.1277
  148SAPE  H10X16370   4.272   2.767   8.006  0.1665 -0.5320 -2.6905
  148SAPE  H10Y16371   4.306   2.949   8.005  1.0307  1.0908  0.1756
  148SAPE  C31116372   4.458   2.820   8.094 -0.3592  0.2011  0.1576
  148SAPE  H11X16373   4.549   2.876   8.063 -0.1763 -0.4523 -0.5174
  148SAPE  H11Y16374   4.483   2.713   8.079  1.9460  0.4997  1.6061
  148SAPE  C31216375   4.397   2.834   8.235 -0.1323 -0.0136 -0.1134
  148SAPE  H12X16376   4.317   2.758   8.250  1.5793 -1.8229  0.0316
  148SAPE  H12Y16377   4.346   2.933   8.243 -0.7249 -0.1396 -2.2253
  148SAPE  C31316378   4.507   2.826   8.342 -0.4412 -0.7658 -0.0417
  148SAPE  H13X16379   4.568   2.919   8.343 -0.9579 -0.4338  1.4461
  148SAPE  H13Y16380   4.552   2.733   8.301 -0.9791 -0.6099 -1.0154
  148SAPE  C31416381   4.438   2.807   8.476 -0.0061 -0.0859  0.7844
  148SAPE  H14X16382   4.379   2.714   8.459  0.0180  0.1412 -0.6062
  148SAPE  H14Y16383   4.374   2.889   8.512  1.6614  2.0041 -0.8894
  148SAPE  C31516384   4.544   2.780   8.587  0.6284 -0.2351  0.0373
  148SAPE  H15X16385   4.586   2.881   8.607 -1.7235  0.5399  1.2792
  148SAPE  H15Y16386   4.633   2.722   8.553  1.0948 -0.0291  0.9131
  148SAPE  C31616387   4.499   2.707   8.712  0.4092  0.2871  0.1024
  148SAPE  H16X16388   4.465   2.604   8.689  3.6563 -1.1930  1.4988
  148SAPE  H16Y16389   4.412   2.757   8.759  0.3134  0.1930  0.0266
  148SAPE  C31716390   4.615   2.704   8.814  0.7573  0.0260 -0.1018
  148SAPE  H17X16391   4.667   2.801   8.833  0.5296 -0.1263  1.4042
  148SAPE  H17Y16392   4.698   2.650   8.765 -0.3593 -0.3834 -1.5911
  148SAPE  C31816393   4.584   2.623   8.938  0.0687  0.3651 -0.3515
  148SAPE  H18X16394   4.476   2.632   8.962 -0.7370 -0.6266 -3.3657
  148SAPE  H18Y16395   4.646   2.658   9.024  2.1436 -2.4531 -0.6084
  148SAPE  H18Z16396   4.595   2.514   8.923 -3.8496  0.0031 -0.9698
  149SAPE     N16397   4.499   3.608   6.320 -0.1159 -0.0815 -0.0845
  149SAPE   HN116398   4.496   3.506   6.300  2.6109 -0.3005  0.4811
  149SAPE   HN216399   4.519   3.664   6.235 -0.1339  1.0718  0.6545
  149SAPE   HN316400   4.582   3.611   6.383  0.3945  0.6245 -0.7928
  149SAPE   C1216401   4.366   3.645   6.387  0.2432 -0.3853 -0.2550
  149SAPE  H12A16402   4.286   3.621   6.314 -1.5065  0.6970  1.2606
  149SAPE  H12B16403   4.366   3.756   6.391 -0.2022 -0.3579 -0.9819
  149SAPE   C1116404   4.345   3.578   6.520  0.3003  0.1326 -0.0966
  149SAPE  H11A16405   4.258   3.613   6.579 -0.2692  0.7493 -1.2779
  149SAPE  H11B16406   4.433   3.598   6.585  0.6069 -1.3209 -0.0457
  149SAPE     P16407   4.229   3.357   6.427 -0.0043 -0.3988 -0.0753
  149SAPE   O1316408   4.224   3.367   6.278  0.2904 -0.1403 -0.2151
  149SAPE   O1416409   4.229   3.227   6.493 -0.1437  0.1261  0.0615
  149SAPE   O1216410   4.344   3.441   6.492 -0.4153  0.5875 -0.2518
  149SAPE   O1116411   4.090   3.426   6.473 -0.3882 -0.2158 -0.2317
  149SAPE    C116412   3.970   3.343   6.488  0.8855 -1.5610  0.5179
  149SAPE    HA16413   3.889   3.407   6.447  1.2979 -0.0762  1.9619
  149SAPE    HB16414   3.962   3.256   6.420  0.5000 -0.1995 -1.2206
  149SAPE    C216415   3.928   3.313   6.640 -0.2114 -0.4284 -0.3582
  149SAPE    HS16416   3.818   3.321   6.649 -0.4660 -0.7258 -2.8935
  149SAPE   O2116417   3.989   3.397   6.731  0.2230 -0.4473 -0.0991
  149SAPE   C2116418   3.934   3.525   6.718 -0.6238 -0.3683 -0.3175
  149SAPE   O2216419   3.837   3.549   6.648 -0.0509  0.0992 -0.0657
  149SAPE   C2216420   3.997   3.627   6.813 -0.4443  0.3997  0.0929
  149SAPE   H2R16421   4.060   3.583   6.893 -1.4673 -1.7216 -0.2516
  149SAPE   H2S16422   4.056   3.690   6.743 -0.0119  0.5500  0.5835
  149SAPE    C316423   3.965   3.162   6.675  0.5481 -0.2491 -0.2728
  149SAPE    HX16424   4.073   3.143   6.657  0.7495  2.1931 -1.9537
  149SAPE    HY16425   3.907   3.094   6.609  2.3083 -2.0554  0.0100
  149SAPE   O3116426   3.922   3.123   6.808  0.4157  0.4297  0.0964
  149SAPE   C3116427   3.991   3.027   6.868 -0.2287  0.1810 -0.1794
  149SAPE   O3216428   4.087   2.970   6.810 -0.3344  0.1089  0.5710
  149SAPE   C3216429   3.941   2.984   7.011 -0.4603  0.3566  0.2966
  149SAPE   H2X16430   3.980   2.888   7.049  0.5156  1.6177  2.5601
  149SAPE   H2Y16431   3.830   2.980   7.007 -0.5394  0.4429  2.2108
  149SAPE   C2316432   3.883   3.719   6.876 -0.5262  0.5047  0.4083
  149SAPE   H3R16433   3.825   3.664   6.953  1.5736  0.9158  2.3376
  149SAPE   H3S16434   3.810   3.757   6.801  1.0268 -0.2510 -1.5366
  149SAPE   C2416435   3.949   3.846   6.951  0.1436  0.0487 -0.5972
  149SAPE   H4R16436   3.987   3.919   6.876 -0.4324  0.2372 -0.7111
  149SAPE   H4S16437   4.042   3.812   7.000 -0.5256  1.8072  1.9713
  149SAPE   C2516438   3.857   3.909   7.051 -0.6023 -0.0422 -0.1518
  149SAPE   H5R16439   3.789   3.981   7.004  0.4531 -0.0314 -1.7152
  149SAPE   C2616440   3.843   3.882   7.184 -0.5410  0.3143 -0.6792
  149SAPE   H6R16441   3.772   3.946   7.237 -0.3311 -0.6684  0.8039
  149SAPE   C2716442   3.926   3.786   7.262 -0.1488 -0.0449  0.0447
  149SAPE   H7R16443   3.986   3.709   7.209 -0.1498 -0.1677  0.2230
  149SAPE   H7S16444   3.860   3.710   7.309  1.7676 -1.0106  1.2256
  149SAPE   C2816445   4.017   3.856   7.353  0.5344 -0.4077 -0.3375
  149SAPE   H8R16446   4.110   3.892   7.307 -0.2463  3.2063  0.7274
  149SAPE   C2916447   4.008   3.873   7.486  0.7294  0.3578  0.3883
  149SAPE   H9R16448   4.093   3.923   7.535  1.4643  1.3205 -1.8191
  149SAPE  C21016449   3.890   3.831   7.567  0.0978 -0.5129  0.5026
  149SAPE  H10R16450   3.822   3.775   7.499  1.6083  0.0284 -1.5183
  149SAPE  H10S16451   3.825   3.913   7.603  0.0513 -1.4119  2.4949
  149SAPE  C21116452   3.935   3.732   7.674  0.2489 -0.5500  0.7345
  149SAPE  H11R16453   4.008   3.657   7.642  0.2875 -0.2545  0.1286
  149SAPE  C21216454   3.897   3.727   7.803 -0.3108  0.0733 -0.0069
  149SAPE  H12R16455   3.941   3.658   7.877 -4.0198  1.0255  3.2427
  149SAPE  C21316456   3.811   3.830   7.863 -0.5968 -0.9205  0.0501
  149SAPE  H13R16457   3.732   3.868   7.795 -1.1833  0.9342  1.7475
  149SAPE  H13S16458   3.870   3.923   7.874 -0.9672 -0.6047 -0.6398
  149SAPE  C21416459   3.738   3.796   7.997 -0.3179 -0.4732  0.1616
  149SAPE  H14R16460   3.630   3.808   7.982 -0.5953 -0.5625  1.9580
  149SAPE  C21516461   3.796   3.771   8.121  0.2614  1.0249  0.2527
  149SAPE  H15R16462   3.729   3.743   8.202 -0.7867  1.3833 -0.4783
  149SAPE  C21616463   3.944   3.760   8.154  0.3801  0.3781  0.4922
  149SAPE  H16R16464   4.014   3.825   8.097  0.3082  0.3204  0.3375
  149SAPE  H16S16465   3.988   3.658   8.147 -0.4431  0.1331 -1.4595
  149SAPE  C21716466   3.985   3.815   8.298 -0.3024  0.2555  0.3557
  149SAPE  H17R16467   3.952   3.921   8.305 -0.1268  0.4414 -1.3033
  149SAPE  H17S16468   4.096   3.811   8.302 -0.3916 -2.0172  1.3994
  149SAPE  C21816469   3.944   3.725   8.413  0.0045  0.3020 -0.0877
  149SAPE  H18R16470   3.840   3.688   8.398 -0.3052  2.0824 -2.6811
  149SAPE  H18S16471   3.937   3.783   8.507  0.3459  2.1167 -1.1441
  149SAPE  C21916472   4.050   3.621   8.455  0.1991  0.0854  0.1939
  149SAPE  H19R16473   4.149   3.666   8.433  0.0404  0.3545  0.0208
  149SAPE  H19S16474   4.032   3.528   8.398  0.5189 -0.4448  0.9483
  149SAPE  C22016475   4.051   3.579   8.610 -0.2665 -0.6913  1.1948
  149SAPE  H20R16476   3.967   3.521   8.653  0.3535 -1.9664  0.7000
  149SAPE  H20S16477   4.083   3.672   8.662 -0.4012 -1.8906  3.4875
  149SAPE  H20T16478   4.133   3.506   8.621  1.2146  0.3747 -2.0580
  149SAPE   C3316479   3.984   3.092   7.122  0.4615  0.2926 -0.5628
  149SAPE   H3X16480   4.090   3.121   7.112  1.2159 -2.6322 -1.5966
  149SAPE   H3Y16481   3.978   3.029   7.213 -1.4775 -0.5801 -1.2456
  149SAPE   C3416482   3.887   3.217   7.137 -0.0666 -0.3800  0.0785
  149SAPE   H4X16483   3.784   3.179   7.155 -0.4684  0.9822  0.7178
  149SAPE   H4Y16484   3.889   3.276   7.044  2.6536 -0.5972 -0.0423
  149SAPE   C3516485   3.902   3.310   7.253 -0.3061 -0.7417 -0.8285
  149SAPE   H5X16486   3.799   3.345   7.279 -0.3614 -2.4871  1.4300
  149SAPE   H5Y16487   3.950   3.406   7.225  1.6404 -1.1044  1.2397
  149SAPE   C3616488   3.971   3.250   7.377 -0.1192  0.8315  0.5689
  149SAPE   H6X16489   4.076   3.218   7.361 -1.5261 -4.0573  0.0895
  149SAPE   H6Y16490   3.921   3.155   7.405  3.2160 -1.9804 -2.4891
  149SAPE   C3716491   3.973   3.344   7.501 -0.3664  0.1006  0.6918
  149SAPE   H7X16492   3.869   3.341   7.542  0.6433 -3.8644  3.2370
  149SAPE   H7Y16493   4.017   3.445   7.484 -0.1595 -0.0913  0.0973
  149SAPE   C3816494   4.060   3.295   7.618 -0.2843 -0.0032 -0.3292
  149SAPE   H8X16495   4.165   3.301   7.582 -0.1304 -3.3299 -0.5545
  149SAPE   H8Y16496   4.038   3.187   7.635  0.4189 -0.1771 -0.5065
  149SAPE   C3916497   4.045   3.374   7.746  0.5956 -0.3191  0.6502
  149SAPE   H9X16498   3.955   3.335   7.798  0.3584  1.4988  1.6341
  149SAPE   H9Y16499   4.038   3.484   7.730  0.0609 -0.2818  1.1508
  149SAPE  C31016500   4.169   3.348   7.831 -0.4702 -0.2281  0.4572
  149SAPE  H10X16501   4.252   3.415   7.802 -1.7564 -0.1147 -3.1553
  149SAPE  H10Y16502   4.207   3.243   7.828 -1.6672 -0.6716  0.2896
  149SAPE  C31116503   4.135   3.372   7.979 -0.7544  0.3108  0.2808
  149SAPE  H11X16504   4.071   3.463   7.981 -1.6337 -0.2970  0.1260
  149SAPE  H11Y16505   4.235   3.381   8.025  0.7895 -1.4467 -2.5664
  149SAPE  C31216506   4.068   3.256   8.048 -0.4817  0.0789  0.0791
  149SAPE  H12X16507   4.124   3.161   8.031 -2.2372 -1.0920  0.7428
  149SAPE  H12Y16508   3.965   3.252   8.007  0.6163  1.2833 -2.9057
  149SAPE  C31316509   4.051   3.279   8.200 -0.0794 -0.3973 -0.3670
  149SAPE  H13X16510   3.976   3.358   8.224  0.4962  0.6386 -1.9094
  149SAPE  H13Y16511   4.149   3.302   8.246 -0.2576 -1.6910  0.6892
  149SAPE  C31416512   4.006   3.155   8.275 -0.7150 -0.9315  0.0051
  149SAPE  H14X16513   4.074   3.069   8.256 -0.5843 -0.1111 -3.5437
  149SAPE  H14Y16514   3.909   3.123   8.232 -0.4499 -0.9438 -0.5871
  149SAPE  C31516515   3.995   3.185   8.425 -0.0540  0.1580 -0.9940
  149SAPE  H15X16516   3.908   3.254   8.438 -0.5372 -0.3739 -1.3803
  149SAPE  H15Y16517   4.084   3.239   8.463 -0.7857 -1.1237  2.6670
  149SAPE  C31616518   3.982   3.061   8.506  0.1472  0.3282 -0.0542
  149SAPE  H16X16519   4.074   3.000   8.519  0.3049  0.9165  1.6578
  149SAPE  H16Y16520   3.903   2.996   8.462  0.1220  0.8712 -0.8218
  149SAPE  C31716521   3.940   3.103   8.644  0.7061 -0.6404  0.3634
  149SAPE  H17X16522   3.844   3.158   8.636  0.3274 -1.1964  0.9707
  149SAPE  H17Y16523   4.015   3.175   8.683 -1.0101  2.3903 -1.7620
  149SAPE  C31816524   3.914   2.979   8.731  1.0676 -0.4505  0.2032
  149SAPE  H18X16525   4.003   2.913   8.728  1.8738  0.6330 -0.2193
  149SAPE  H18Y16526   3.825   2.924   8.694  1.2140  0.4252 -1.5296
  149SAPE  H18Z16527   3.903   3.011   8.837  1.5276  1.6963 -0.3635
  150SAPE     N16528   3.734   4.841   6.017  0.1833  0.2569 -0.2268
  150SAPE   HN116529   3.671   4.922   6.031  1.7756  1.2161  1.6208
  150SAPE   HN216530   3.726   4.811   5.917  0.6434 -1.5261  0.2398
  150SAPE   HN316531   3.693   4.767   6.078 -0.1703  1.6925  1.3093
  150SAPE   C1216532   3.873   4.869   6.068 -0.6512 -0.0642 -0.1701
  150SAPE  H12A16533   3.917   4.953   6.010  0.2605 -0.5847 -0.2341
  150SAPE  H12B16534   3.927   4.773   6.058 -0.3565 -0.0509  1.2154
  150SAPE   C1116535   3.862   4.910   6.213  0.3963  0.0914  0.3933
  150SAPE  H11A16536   3.966   4.916   6.254  0.0630  0.2758  1.2409
  150SAPE  H11B16537   3.803   4.836   6.270 -0.2497 -0.0610 -0.4778
  150SAPE     P16538   3.799   5.143   6.332 -0.2889 -0.4421 -0.2983
  150SAPE   O1316539   3.928   5.216   6.331 -0.7166 -0.2329 -0.4562
  150SAPE   O1416540   3.673   5.216   6.313  0.6257 -0.0934 -0.1372
  150SAPE   O1216541   3.797   5.033   6.218  0.9648 -0.3229 -0.4041
  150SAPE   O1116542   3.791   5.052   6.455 -0.0242  0.1687 -0.3207
  150SAPE    C116543   3.677   4.964   6.482  0.7926 -0.2005  0.1069
  150SAPE    HA16544   3.627   4.931   6.389  0.3463 -1.9616  0.9462
  150SAPE    HB16545   3.711   4.875   6.539  0.6576  0.2921  0.9852
  150SAPE    C216546   3.559   5.029   6.575 -0.1621  0.2828  0.7401
  150SAPE    HS16547   3.519   5.110   6.510  0.3221  0.2849  0.4500
  150SAPE   O2116548   3.610   5.061   6.702 -0.1727  0.0645 -0.3310
  150SAPE   C2116549   3.582   5.195   6.731 -0.0091  0.4961  0.6544
  150SAPE   O2216550   3.542   5.279   6.655 -0.1500  0.2220 -0.0635
  150SAPE   C2216551   3.611   5.216   6.882 -0.1009  0.0223  0.1448
  150SAPE   H2R16552   3.714   5.182   6.905 -1.2546 -2.8546  1.2736
  150SAPE   H2S16553   3.613   5.327   6.880  0.7589  0.0308  1.2393
  150SAPE    C316554   3.440   4.940   6.587 -0.8201  0.0136 -0.0874
  150SAPE    HX16555   3.471   4.852   6.646 -0.6599 -1.5566 -2.4792
  150SAPE    HY16556   3.400   4.905   6.489  0.2079  0.2610 -0.6055
  150SAPE   O3116557   3.325   5.004   6.641 -0.2423  0.1815 -0.6870
  150SAPE   C3116558   3.251   4.949   6.736  0.0066  0.3028 -0.1996
  150SAPE   O3216559   3.261   4.840   6.786  0.1051  0.3156  0.1408
  150SAPE   C3216560   3.142   5.045   6.784  0.9617 -0.1210  0.0543
  150SAPE   H2X16561   3.064   5.053   6.705 -0.3205  0.9347  1.3981
  150SAPE   H2Y16562   3.183   5.149   6.780 -0.2085  0.3499  0.0747
  150SAPE   C2316563   3.501   5.158   6.979  0.2585  0.1850  0.5401
  150SAPE   H3R16564   3.503   5.050   6.956  0.8523  0.5114 -1.0257
  150SAPE   H3S16565   3.408   5.208   6.945 -1.4102 -2.7748  0.5967
  150SAPE   C2416566   3.522   5.184   7.127 -0.6911 -0.4672 -0.3749
  150SAPE   H4R16567   3.427   5.161   7.178 -2.3284  0.5854 -2.8411
  150SAPE   H4S16568   3.534   5.293   7.145 -0.5526 -0.8237  1.8345
  150SAPE   C2516569   3.650   5.123   7.191 -0.2600  0.4673 -0.1320
  150SAPE   H5R16570   3.740   5.140   7.130  0.5459 -1.0600  0.5946
  150SAPE   C2616571   3.660   5.050   7.305  0.2440 -0.0413 -0.0525
  150SAPE   H6R16572   3.762   5.018   7.333 -0.6756 -1.5446  1.6878
  150SAPE   C2716573   3.551   5.008   7.398  0.3152 -0.5439 -0.2843
  150SAPE   H7R16574   3.453   5.057   7.379 -1.3405 -3.1259  1.3116
  150SAPE   H7S16575   3.569   5.037   7.503 -1.2426 -0.1186 -0.1094
  150SAPE   C2816576   3.545   4.857   7.408 -0.7882  0.1328 -0.3692
  150SAPE   H8R16577   3.525   4.808   7.312 -1.3918 -0.7366  0.1954
  150SAPE   C2916578   3.520   4.789   7.522  0.0996 -0.8228 -0.2214
  150SAPE   H9R16579   3.498   4.682   7.519 -1.0479 -0.5498 -1.9642
  150SAPE  C21016580   3.510   4.852   7.660  0.9226 -0.3075 -0.0567
  150SAPE  H10R16581   3.444   4.790   7.724 -1.2143  0.4921 -1.3952
  150SAPE  H10S16582   3.454   4.948   7.649  0.5973 -0.6045 -0.9905
  150SAPE  C21116583   3.635   4.882   7.732 -0.5220 -0.1685  0.1517
  150SAPE  H11R16584   3.719   4.919   7.672  1.2649 -1.8344  1.5228
  150SAPE  C21216585   3.675   4.834   7.852  0.3372  0.4623  0.0860
  150SAPE  H12R16586   3.777   4.865   7.879  0.0143  2.1099 -0.5875
  150SAPE  C21316587   3.590   4.750   7.945 -0.0949  0.3342  0.2541
  150SAPE  H13R16588   3.650   4.712   8.030  0.3288 -2.0334 -1.0613
  150SAPE  H13S16589   3.580   4.649   7.900  1.8889  1.6875 -3.5586
  150SAPE  C21416590   3.465   4.802   8.006 -0.0674 -0.2491  0.0131
  150SAPE  H14R16591   3.468   4.910   8.024  3.7622 -0.3385  0.3894
  150SAPE  C21516592   3.365   4.727   8.047 -0.3828  0.1231 -0.1140
  150SAPE  H15R16593   3.275   4.780   8.081 -0.4060 -0.0304  0.0668
  150SAPE  C21616594   3.352   4.577   8.034  0.1176  0.6117 -0.5441
  150SAPE  H16R16595   3.456   4.538   8.024  0.8423  2.4062 -0.2135
  150SAPE  H16S16596   3.304   4.539   7.941  0.5232 -2.1098  0.3180
  150SAPE  C21716597   3.286   4.514   8.161 -0.2865 -0.5986  0.2154
  150SAPE  H17R16598   3.191   4.568   8.180 -0.5053 -0.2010 -1.8330
  150SAPE  H17S16599   3.370   4.534   8.231 -0.0941 -0.1539 -0.1381
  150SAPE  C21816600   3.257   4.363   8.149 -0.0593  0.0600  0.3100
  150SAPE  H18R16601   3.349   4.310   8.118 -0.0129  0.3271 -0.0246
  150SAPE  H18S16602   3.178   4.344   8.073 -0.6628 -0.8730  1.1485
  150SAPE  C21916603   3.202   4.301   8.278  0.0515  0.3439 -0.1452
  150SAPE  H19R16604   3.098   4.338   8.292 -0.3709 -0.8355 -0.1103
  150SAPE  H19S16605   3.266   4.328   8.365 -1.5561 -2.8823  2.1163
  150SAPE  C22016606   3.180   4.154   8.284 -0.3522  0.8824  0.7434
  150SAPE  H20R16607   3.278   4.104   8.269 -0.3552  0.4467  2.1119
  150SAPE  H20S16608   3.115   4.114   8.203 -0.6458 -1.4717  2.0675
  150SAPE  H20T16609   3.129   4.115   8.374 -2.5148  4.3393  1.0913
  150SAPE   C3316610   3.075   5.020   6.920 -0.4599 -0.0846  0.0362
  150SAPE   H3X16611   3.025   4.921   6.921 -1.5410  0.4485  1.7704
  150SAPE   H3Y16612   3.002   5.103   6.930 -1.6381 -0.7702 -2.5015
  150SAPE   C3416613   3.174   5.041   7.035  0.1767  0.7494 -0.6022
  150SAPE   H4X16614   3.189   5.151   7.044 -0.0631  0.6607  1.1559
  150SAPE   H4Y16615   3.263   4.977   7.022  0.3950  0.1352  3.2976
  150SAPE   C3516616   3.118   5.002   7.178  0.2150  0.0680 -0.7197
  150SAPE   H5X16617   3.015   5.043   7.188 -1.1346 -3.0200 -1.5282
  150SAPE   H5Y16618   3.179   5.031   7.266 -1.7918 -0.0922  0.7727
  150SAPE   C3616619   3.097   4.856   7.190 -0.2426  0.0739 -0.1694
  150SAPE   H6X16620   3.190   4.807   7.155  0.1439  0.8605 -0.2680
  150SAPE   H6Y16621   3.021   4.813   7.122 -1.5926  0.8952  0.7976
  150SAPE   C3716622   3.064   4.796   7.334 -0.3951 -0.7355  0.3018
  150SAPE   H7X16623   3.017   4.698   7.309 -1.7508 -0.1470  0.4899
  150SAPE   H7Y16624   2.995   4.872   7.377  1.4873  0.3918  1.3649
  150SAPE   C3816625   3.191   4.775   7.413  0.6158  0.1948 -1.1868
  150SAPE   H8X16626   3.265   4.858   7.419 -0.2333  0.8359  1.0526
  150SAPE   H8Y16627   3.256   4.694   7.373 -0.2079 -0.9868 -0.1414
  150SAPE   C3916628   3.156   4.733   7.551 -0.2988  0.1194 -0.5402
  150SAPE   H9X16629   3.249   4.702   7.604  0.2651  0.4254 -1.3306
  150SAPE   H9Y16630   3.082   4.651   7.545 -1.7010  1.1081  2.1584
  150SAPE  C31016631   3.086   4.843   7.631  0.9157  0.0794  0.1180
  150SAPE  H10X16632   2.976   4.838   7.612  0.4041  1.1428  2.4984
  150SAPE  H10Y16633   3.131   4.942   7.609 -0.3219  0.9285  1.2288
  150SAPE  C31116634   3.105   4.825   7.785 -0.5088  0.4518 -0.4410
  150SAPE  H11X16635   3.044   4.908   7.827  1.3273 -0.0540  3.4173
  150SAPE  H11Y16636   3.206   4.843   7.829 -0.9293 -0.2983  0.8596
  150SAPE  C31216637   3.036   4.694   7.831  0.1118  0.2566  0.3180
  150SAPE  H12X16638   3.108   4.611   7.817 -2.1868 -1.5616 -0.8713
  150SAPE  H12Y16639   2.956   4.676   7.757 -0.6506 -0.2261  1.2500
  150SAPE  C31316640   2.978   4.698   7.968  0.1064 -0.2600 -0.1528
  150SAPE  H13X16641   2.923   4.795   7.979  1.3863  0.4071  0.4664
  150SAPE  H13Y16642   3.059   4.712   8.042 -0.2950 -0.7734  0.3850
  150SAPE  C31416643   2.884   4.582   8.009  0.6656 -0.3967 -0.3640
  150SAPE  H14X16644   2.950   4.494   8.023 -1.2445 -1.9690 -0.9330
  150SAPE  H14Y16645   2.811   4.565   7.927  1.4039 -1.8477 -0.7361
  150SAPE  C31516646   2.804   4.623   8.131  0.3918  0.5552 -0.1646
  150SAPE  H15X16647   2.760   4.722   8.106 -2.0186 -0.4614 -0.0602
  150SAPE  H15Y16648   2.870   4.631   8.220 -2.0682  0.2201  1.7344
  150SAPE  C31616649   2.696   4.511   8.151  0.8883  0.7064  0.0585
  150SAPE  H16X16650   2.743   4.410   8.154  1.2260  0.8793  0.6478
  150SAPE  H16Y16651   2.620   4.523   8.071  1.2618  0.2440 -0.3640
  150SAPE  C31716652   2.626   4.538   8.283 -0.3931  0.0765  0.3261
  150SAPE  H17X16653   2.581   4.639   8.285 -2.9137 -1.0306  1.4567
  150SAPE  H17Y16654   2.706   4.522   8.360 -0.7531 -1.3514  0.4064
  150SAPE  C31816655   2.512   4.437   8.324  0.1192 -0.1180 -1.3310
  150SAPE  H18X16656   2.422   4.441   8.260 -1.7515 -0.6956  1.2017
  150SAPE  H18Y16657   2.474   4.471   8.422 -1.6737  0.1159 -2.0911
  150SAPE  H18Z16658   2.540   4.329   8.329 -2.9116 -0.8235  2.3290
  151SAPE     N16659   5.582   1.943   6.317 -0.4519  0.0951 -0.1797
  151SAPE   HN116660   5.628   1.959   6.225 -0.5268 -2.8942 -0.7816
  151SAPE   HN216661   5.533   1.852   6.321 -1.9410  0.7851 -1.7100
  151SAPE   HN316662   5.507   2.014   6.330  0.5591  1.3545 -1.0761
  151SAPE   C1216663   5.680   1.977   6.424 -0.9399 -0.5336  0.1741
  151SAPE  H12A16664   5.758   1.897   6.424  0.8439  1.1632  0.8329
  151SAPE  H12B16665   5.638   1.952   6.524  0.5645 -3.5922  0.1004
  151SAPE   C1116666   5.724   2.123   6.413 -0.0095  0.1508  0.8750
  151SAPE  H11A16667   5.797   2.152   6.492 -1.3531 -1.9042  2.9263
  151SAPE  H11B16668   5.636   2.188   6.429 -0.0444  0.0965  0.9013
  151SAPE     P16669   5.834   2.285   6.226 -0.1701  0.0249 -0.0845
  151SAPE   O1316670   5.956   2.246   6.153  0.7555 -0.3806 -0.5198
  151SAPE   O1416671   5.732   2.358   6.152 -0.3386 -0.1035  0.7624
  151SAPE   O1216672   5.772   2.145   6.283  0.3203  0.9156 -0.6115
  151SAPE   O1116673   5.877   2.362   6.361  0.5901  0.0068 -0.2830
  151SAPE    C116674   5.979   2.445   6.384 -0.2649  0.2212 -0.2032
  151SAPE    HA16675   5.997   2.512   6.298  3.0650  0.8498  0.9094
  151SAPE    HB16676   5.953   2.519   6.464  0.3506 -0.8966  1.0546
  151SAPE    C216677   6.112   2.380   6.434  0.3637  0.4927 -0.0259
  151SAPE    HS16678   6.163   2.333   6.347  0.6865  0.9994 -0.1134
  151SAPE   O2116679   6.082   2.279   6.531 -0.1008 -0.0419  0.0049
  151SAPE   C2116680   6.185   2.212   6.587  0.5028  0.4123 -0.4309
  151SAPE   O2216681   6.304   2.224   6.563  0.2233 -0.4699  0.6227
  151SAPE   C2216682   6.129   2.095   6.667  0.0909  0.2526  0.4838
  151SAPE   H2R16683   6.018   2.097   6.674 -0.2023 -3.8875 -1.3409
  151SAPE   H2S16684   6.158   2.008   6.605 -1.5107  1.3770 -1.9254
  151SAPE    C316685   6.213   2.494   6.476 -0.1294  0.0992  0.9130
  151SAPE    HX16686   6.218   2.553   6.382 -0.8246  0.7072  1.2589
  151SAPE    HY16687   6.316   2.453   6.490 -0.8557 -3.3711 -2.8810
  151SAPE   O3116688   6.168   2.573   6.594 -0.0384 -0.4427  0.2881
  151SAPE   C3116689   6.214   2.531   6.712 -0.9191 -0.0378  0.0385
  151SAPE   O3216690   6.295   2.443   6.741 -0.3415 -0.2590  1.1570
  151SAPE   C3216691   6.149   2.605   6.827 -0.1610 -0.1470 -0.0574
  151SAPE   H2X16692   6.056   2.560   6.868 -1.9111  1.2129 -2.4153
  151SAPE   H2Y16693   6.140   2.712   6.800 -1.4461 -0.1822  0.2018
  151SAPE   C2316694   6.198   2.082   6.804 -0.0261 -0.4649  0.4194
  151SAPE   H3R16695   6.305   2.106   6.784 -0.5785  0.1661 -1.8064
  151SAPE   H3S16696   6.193   1.978   6.844  1.2525  0.8629  4.2699
  151SAPE   C2416697   6.165   2.180   6.915 -0.0094 -0.3823  0.0201
  151SAPE   H4R16698   6.163   2.283   6.874 -1.3343 -1.6913 -3.4009
  151SAPE   H4S16699   6.248   2.180   6.989 -0.9194 -1.0024  1.0505
  151SAPE   C2516700   6.024   2.173   6.975 -0.3283 -0.2286 -0.5977
  151SAPE   H5R16701   5.945   2.168   6.899  1.0055  0.0063 -2.0204
  151SAPE   C2616702   5.997   2.160   7.106  0.5942 -0.0885 -0.1427
  151SAPE   H6R16703   5.892   2.154   7.137  0.5651  0.9856 -0.0365
  151SAPE   C2716704   6.090   2.142   7.218 -0.2006  0.3633  1.0642
  151SAPE   H7R16705   6.188   2.109   7.180  0.4055 -0.2219  3.0461
  151SAPE   H7S16706   6.056   2.058   7.283 -3.0178  0.5945 -0.0222
  151SAPE   C2816707   6.119   2.270   7.303  0.1189  0.5380 -0.5020
  151SAPE   H8R16708   6.134   2.361   7.244 -1.6891  2.3264  1.6861
  151SAPE   C2916709   6.124   2.271   7.437 -0.0306 -0.0992  0.4756
  151SAPE   H9R16710   6.164   2.363   7.483 -0.0485  0.6918 -1.0441
  151SAPE  C21016711   6.106   2.158   7.533  0.5618  0.1979  0.0313
  151SAPE  H10R16712   6.192   2.087   7.529 -0.7390 -1.5258  1.4714
  151SAPE  H10S16713   6.019   2.094   7.508  0.3861 -0.1270  1.4107
  151SAPE  C21116714   6.081   2.211   7.674  0.3906 -0.0761  0.6197
  151SAPE  H11R16715   5.982   2.256   7.684  0.2493 -0.2024 -0.1634
  151SAPE  C21216716   6.170   2.211   7.775  0.1436 -0.0450 -0.2295
  151SAPE  H12R16717   6.157   2.272   7.865  0.0520 -1.1242  0.5029
  151SAPE  C21316718   6.315   2.158   7.777 -0.3045 -0.1215  0.5002
  151SAPE  H13R16719   6.370   2.250   7.806 -2.0380  2.3617 -3.6283
  151SAPE  H13S16720   6.358   2.140   7.676 -0.0836  0.2771  0.5229
  151SAPE  C21416721   6.337   2.036   7.870  0.9253 -0.6175 -0.0067
  151SAPE  H14R16722   6.332   1.941   7.815  0.1838  0.1282 -1.2368
  151SAPE  C21516723   6.356   2.051   8.003 -0.2947  0.3446  1.2110
  151SAPE  H15R16724   6.340   1.960   8.062  1.3571  0.3043  1.6336
  151SAPE  C21616725   6.369   2.174   8.085 -0.0475 -0.6958 -0.1581
  151SAPE  H16R16726   6.346   2.271   8.035  2.3911  2.1905  3.9936
  151SAPE  H16S16727   6.471   2.186   8.127 -0.7543 -2.0282  1.9856
  151SAPE  C21716728   6.283   2.168   8.211  0.9177 -0.3565  0.7815
  151SAPE  H17R16729   6.307   2.262   8.264  0.5035  0.5970 -0.6826
  151SAPE  H17S16730   6.297   2.077   8.273 -0.0339 -0.8249  0.3196
  151SAPE  C21816731   6.131   2.182   8.167 -0.7426  0.4717 -0.2942
  151SAPE  H18R16732   6.106   2.090   8.110 -1.0280  0.1684  0.3104
  151SAPE  H18S16733   6.130   2.273   8.104 -2.5014 -0.2495 -1.3431
  151SAPE  C21916734   6.028   2.189   8.283  0.5577  0.5303  1.0551
  151SAPE  H19R16735   5.928   2.216   8.242  0.5243  0.0143  0.7975
  151SAPE  H19S16736   6.052   2.277   8.346  1.8741  1.6731 -0.9888
  151SAPE  C22016737   6.022   2.062   8.355 -0.3659  0.3230  0.5291
  151SAPE  H20R16738   5.932   2.059   8.420 -1.0758  3.3428 -0.2326
  151SAPE  H20S16739   6.012   1.974   8.289  0.9082 -0.6726  1.6236
  151SAPE  H20T16740   6.113   2.039   8.415  1.2933 -3.2099 -3.1120
  151SAPE   C3316741   6.250   2.606   6.950 -0.1043 -0.0444  0.3893
  151SAPE   H3X16742   6.336   2.669   6.921 -1.2674  2.4790  2.1820
  151SAPE   H3Y16743   6.272   2.502   6.982  2.6462 -0.0107 -1.2296
  151SAPE   C3416744   6.182   2.677   7.063  0.4854  0.0057 -0.2504
  151SAPE   H4X16745   6.099   2.618   7.108 -0.5245  1.1618 -0.5528
  151SAPE   H4Y16746   6.140   2.779   7.048  1.1684  0.6670  2.0133
  151SAPE   C3516747   6.287   2.696   7.175 -0.4173 -0.1027 -0.0147
  151SAPE   H5X16748   6.373   2.755   7.137  1.0160 -0.1730  2.9983
  151SAPE   H5Y16749   6.324   2.598   7.212 -1.7795 -0.4162  0.5447
  151SAPE   C3616750   6.238   2.778   7.293 -0.1230  0.2064 -0.2392
  151SAPE   H6X16751   6.137   2.740   7.321  0.8750 -1.7021  0.8826
  151SAPE   H6Y16752   6.245   2.882   7.254  0.7683  0.4791  0.6257
  151SAPE   C3716753   6.330   2.775   7.410  0.0614  0.2753 -0.2193
  151SAPE   H7X16754   6.323   2.856   7.485  0.2670  0.8736 -0.8424
  151SAPE   H7Y16755   6.431   2.773   7.363 -1.5518 -0.0042 -3.8510
  151SAPE   C3816756   6.300   2.641   7.490  0.5770  0.2427  0.4509
  151SAPE   H8X16757   6.358   2.552   7.459  0.6309 -0.3268  2.1243
  151SAPE   H8Y16758   6.197   2.608   7.465  0.1946  2.6821 -1.3410
  151SAPE   C3916759   6.320   2.649   7.641 -0.2149 -0.2998  0.2214
  151SAPE   H9X16760   6.257   2.729   7.685  0.5574  0.2955  0.2443
  151SAPE   H9Y16761   6.427   2.665   7.667 -0.1708 -0.4613  0.1417
  151SAPE  C31016762   6.284   2.515   7.712 -0.0428 -0.6442  0.0094
  151SAPE  H10X16763   6.356   2.435   7.682  1.6731  0.7595  0.2713
  151SAPE  H10Y16764   6.183   2.490   7.673 -0.3761 -1.1814  1.2264
  151SAPE  C31116765   6.286   2.532   7.861 -0.2785  0.1179  0.5244
  151SAPE  H11X16766   6.235   2.445   7.908 -0.2925 -0.5160 -0.6553
  151SAPE  H11Y16767   6.233   2.628   7.883 -1.4836 -0.5523  0.6234
  151SAPE  C31216768   6.429   2.540   7.920 -0.7478  0.1054 -0.4573
  151SAPE  H12X16769   6.488   2.622   7.875  0.3868 -0.1566  0.5237
  151SAPE  H12Y16770   6.474   2.448   7.876 -1.7182 -1.0960  0.9705
  151SAPE  C31316771   6.421   2.558   8.071 -0.1976  0.0806  0.1654
  151SAPE  H13X16772   6.371   2.473   8.123  0.0088 -0.5172 -0.5948
  151SAPE  H13Y16773   6.377   2.654   8.106 -3.2000 -0.8705 -0.8357
  151SAPE  C31416774   6.565   2.543   8.133 -0.5101  0.1059 -0.9689
  151SAPE  H14X16775   6.634   2.626   8.106  0.0541 -0.4800 -1.3361
  151SAPE  H14Y16776   6.608   2.447   8.098 -0.6010 -1.4703  2.9925
  151SAPE  C31516777   6.569   2.550   8.284 -0.3620  0.9217 -0.3995
  151SAPE  H15X16778   6.668   2.526   8.326 -0.4016  2.9361  0.9130
  151SAPE  H15Y16779   6.504   2.474   8.333 -0.0640  0.5886 -0.5271
  151SAPE  C31616780   6.531   2.694   8.339  0.0707  0.4395 -0.2176
  151SAPE  H16X16781   6.421   2.705   8.343  0.0107 -0.4533  0.7879
  151SAPE  H16Y16782   6.581   2.768   8.273  3.3662 -1.1154  0.4401
  151SAPE  C31716783   6.578   2.709   8.482  0.0960  0.6460  0.4119
  151SAPE  H17X16784   6.689   2.702   8.483  0.1296  1.2621  2.0307
  151SAPE  H17Y16785   6.548   2.617   8.537  0.5331 -0.4381 -1.1089
  151SAPE  C31816786   6.539   2.829   8.564  0.3060  0.2385  0.2502
  151SAPE  H18X16787   6.428   2.829   8.570  0.2012 -2.9012 -0.8297
  151SAPE  H18Y16788   6.576   2.918   8.510  1.5853 -0.5224 -0.1388
  151SAPE  H18Z16789   6.577   2.816   8.668  3.4875 -0.7316 -0.9896
  152SAPE     N16790   3.576   5.473   6.312 -0.2046  0.4511 -0.3023
  152SAPE   HN116791   3.627   5.392   6.272  0.6037  1.2851 -0.9818
  152SAPE   HN216792   3.603   5.480   6.412  0.7504 -2.6469 -0.2884
  152SAPE   HN316793   3.474   5.456   6.318 -0.8737  3.4185 -2.3832
  152SAPE   C1216794   3.605   5.616   6.276  0.3297  0.3729  0.3949
  152SAPE  H12A16795   3.577   5.632   6.169  0.2520 -0.5518  0.2757
  152SAPE  H12B16796   3.714   5.635   6.283  0.2293  0.9058  0.5232
  152SAPE   C1116797   3.520   5.724   6.358 -0.6565 -0.1011  0.6354
  152SAPE  H11A16798   3.561   5.819   6.316 -0.7735 -0.5608 -0.5390
  152SAPE  H11B16799   3.550   5.712   6.464 -0.1198 -1.6302  0.3346
  152SAPE     P16800   3.284   5.731   6.235 -0.2867  0.0633  0.5739
  152SAPE   O1316801   3.363   5.741   6.108 -0.5709  0.1909 -0.4815
  152SAPE   O1416802   3.167   5.642   6.231  0.0694  0.8289 -0.2290
  152SAPE   O1216803   3.383   5.697   6.353  0.3737  0.1918  0.0964
  152SAPE   O1116804   3.228   5.871   6.270  0.1505 -0.3028  0.3675
  152SAPE    C116805   3.258   5.950   6.386  0.1129  0.1767 -0.3081
  152SAPE    HA16806   3.366   5.940   6.411  0.9811  1.0982 -3.4175
  152SAPE    HB16807   3.242   6.060   6.382 -1.7973 -0.0897 -0.3083
  152SAPE    C216808   3.167   5.908   6.510  0.5569 -0.4506  0.5977
  152SAPE    HS16809   3.178   5.985   6.590  0.5056  1.1116 -0.8506
  152SAPE   O2116810   3.197   5.773   6.552  0.2743  0.1323  0.5840
  152SAPE   C2116811   3.292   5.760   6.641 -0.7963 -0.1692  0.0450
  152SAPE   O2216812   3.365   5.849   6.693  0.4346  0.5673 -0.0180
  152SAPE   C2216813   3.311   5.609   6.667  0.3020 -0.4926 -0.5407
  152SAPE   H2R16814   3.225   5.561   6.615 -1.2491  1.6331  0.0168
  152SAPE   H2S16815   3.404   5.567   6.622  0.7683 -0.4012  0.3208
  152SAPE    C316816   3.019   5.917   6.474  0.3375  0.6101  0.4584
  152SAPE    HX16817   3.008   5.875   6.372 -0.3685 -1.3210  1.2978
  152SAPE    HY16818   2.994   6.025   6.471 -0.7095  0.3576 -0.4946
  152SAPE   O3116819   2.938   5.853   6.572  0.1874  0.6026  0.1341
  152SAPE   C3116820   2.822   5.807   6.520  0.2304  0.4397 -0.5474
  152SAPE   O3216821   2.778   5.822   6.408  0.5575  0.1351 -0.8739
  152SAPE   C3216822   2.741   5.726   6.626  0.0712 -0.4390  0.3789
  152SAPE   H2X16823   2.766   5.619   6.611 -0.6510 -0.4794 -0.6334
  152SAPE   H2Y16824   2.634   5.743   6.598  1.4058  2.8577 -3.2613
  152SAPE   C2316825   3.327   5.579   6.820  0.1253  0.0360  0.3183
  152SAPE   H3R16826   3.390   5.667   6.848 -1.0101  1.4135 -1.3628
  152SAPE   H3S16827   3.392   5.489   6.822 -0.1894 -0.1684  1.8121
  152SAPE   C2416828   3.193   5.573   6.901  0.3342  0.0442  0.8309
  152SAPE   H4R16829   3.201   5.521   6.999  1.4259  0.4208  0.9533
  152SAPE   H4S16830   3.119   5.514   6.843  0.4110  0.1516  0.6233
  152SAPE   C2516831   3.130   5.704   6.928 -0.5403  0.7177  0.3849
  152SAPE   H5R16832   3.079   5.760   6.848  0.6981 -0.3500 -1.1812
  152SAPE   C2616833   3.132   5.770   7.040  0.0591  0.3514 -0.5899
  152SAPE   H6R16834   3.076   5.864   7.052  0.3464  0.4728 -0.2146
  152SAPE   C2716835   3.198   5.707   7.162 -0.2341  0.1387 -0.5630
  152SAPE   H7R16836   3.163   5.604   7.183  0.1711 -0.0635 -0.8904
  152SAPE   H7S16837   3.162   5.765   7.250 -1.2866 -1.3066 -0.0127
  152SAPE   C2816838   3.348   5.717   7.176 -0.4337 -0.0322  0.5519
  152SAPE   H8R16839   3.395   5.757   7.085 -2.0829  0.8704  0.0803
  152SAPE   C2916840   3.421   5.661   7.275  0.7217  0.1906 -0.2423
  152SAPE   H9R16841   3.531   5.653   7.270  0.7574  0.5603 -0.0482
  152SAPE  C21016842   3.361   5.579   7.385  0.9666 -0.3588  0.7207
  152SAPE  H10R16843   3.273   5.518   7.354  0.2223  1.1332 -0.1753
  152SAPE  H10S16844   3.314   5.655   7.451  0.9194  0.3955 -0.1704
  152SAPE  C21116845   3.467   5.500   7.461  0.3761 -0.1866  0.1889
  152SAPE  H11R16846   3.471   5.394   7.432  1.2341 -0.5279  1.4786
  152SAPE  C21216847   3.550   5.545   7.554 -0.2669  0.0275  0.0981
  152SAPE  H12R16848   3.613   5.469   7.602  1.6939  2.1920  1.0083
  152SAPE  C21316849   3.567   5.685   7.607  0.0045 -0.2694  0.1283
  152SAPE  H13R16850   3.546   5.688   7.716 -1.1916  0.0345 -0.1021
  152SAPE  H13S16851   3.500   5.756   7.554 -2.7259 -1.2123  2.1958
  152SAPE  C21416852   3.703   5.742   7.591  0.1731 -0.3932 -0.0173
  152SAPE  H14R16853   3.730   5.783   7.493  1.0694  1.2360  0.8795
  152SAPE  C21516854   3.791   5.734   7.686 -0.2517 -0.2989 -0.2488
  152SAPE  H15R16855   3.886   5.787   7.672 -0.0350 -1.1698 -2.1887
  152SAPE  C21616856   3.789   5.659   7.813  0.4341 -0.1174  0.4357
  152SAPE  H16R16857   3.839   5.560   7.799 -0.6322 -0.5559 -0.3095
  152SAPE  H16S16858   3.689   5.619   7.839  1.2013 -1.1686  1.8571
  152SAPE  C21716859   3.833   5.742   7.929 -0.7033  0.3177  0.1634
  152SAPE  H17R16860   3.767   5.829   7.949 -1.0494  0.0796  0.0655
  152SAPE  H17S16861   3.935   5.781   7.911  0.5677 -2.8280  0.0972
  152SAPE  C21816862   3.817   5.663   8.057  1.0321 -0.2791  0.2555
  152SAPE  H18R16863   3.862   5.562   8.051  1.6239  0.1006 -2.2040
  152SAPE  H18S16864   3.707   5.657   8.074  1.1120 -1.4194  0.3640
  152SAPE  C21916865   3.873   5.732   8.185  0.5563 -0.3901 -0.6422
  152SAPE  H19R16866   3.851   5.841   8.191  0.3019 -0.4610 -0.2422
  152SAPE  H19S16867   3.980   5.706   8.189  0.8944  1.0953  0.7591
  152SAPE  C22016868   3.799   5.678   8.314 -0.4069 -0.7806 -0.3080
  152SAPE  H20R16869   3.810   5.567   8.306 -1.0998 -0.6606 -3.6371
  152SAPE  H20S16870   3.691   5.703   8.314 -0.2242  0.0266 -1.8745
  152SAPE  H20T16871   3.841   5.720   8.408  0.1651 -1.0260 -0.4530
  152SAPE   C3316872   2.764   5.760   6.775 -0.5646  0.5922  0.3124
  152SAPE   H3X16873   2.779   5.869   6.793 -1.3171  0.8410 -0.5117
  152SAPE   H3Y16874   2.864   5.721   6.804 -0.2876  0.1130 -1.1963
  152SAPE   C3416875   2.649   5.713   6.867 -0.2496  0.4631 -0.1740
  152SAPE   H4X16876   2.631   5.603   6.868  0.2417  0.3355 -2.4041
  152SAPE   H4Y16877   2.561   5.754   6.812 -0.8544 -1.2144 -0.4891
  152SAPE   C3516878   2.674   5.763   7.016 -0.0155  0.2308 -0.0168
  152SAPE   H5X16879   2.683   5.873   7.008  0.2413  0.1300 -1.1511
  152SAPE   H5Y16880   2.775   5.729   7.047  0.4957  0.9620 -0.8709
  152SAPE   C3616881   2.560   5.724   7.117 -0.0862  0.6003  0.4903
  152SAPE   H6X16882   2.528   5.620   7.095  3.3266 -0.1231 -1.3912
  152SAPE   H6Y16883   2.476   5.795   7.099 -1.5943 -1.0062  1.0627
  152SAPE   C3716884   2.616   5.726   7.263  0.0163  0.1892  0.1101
  152SAPE   H7X16885   2.684   5.813   7.264  1.1425 -0.6456 -1.5354
  152SAPE   H7Y16886   2.681   5.637   7.279 -0.4114  0.0707  1.1960
  152SAPE   C3816887   2.509   5.751   7.377 -0.9498  0.0061  0.9658
  152SAPE   H8X16888   2.446   5.661   7.390  1.3040 -1.5204  1.7135
  152SAPE   H8Y16889   2.443   5.837   7.355 -1.0753 -0.1984  0.5271
  152SAPE   C3916890   2.567   5.765   7.519 -0.6243  0.2298 -0.0452
  152SAPE   H9X16891   2.629   5.857   7.516  0.4041 -0.4871 -0.8826
  152SAPE   H9Y16892   2.635   5.678   7.531 -0.6228  0.1627 -0.5461
  152SAPE  C31016893   2.463   5.758   7.627 -0.5563  0.0520 -0.2547
  152SAPE  H10X16894   2.409   5.662   7.614  0.0794 -0.5861  1.5643
  152SAPE  H10Y16895   2.390   5.839   7.612 -0.4496  0.0132 -1.0038
  152SAPE  C31116896   2.536   5.771   7.768  0.3603  0.5298 -0.1981
  152SAPE  H11X16897   2.608   5.855   7.778  1.8231 -0.6639 -0.4465
  152SAPE  H11Y16898   2.595   5.678   7.783 -0.4869  0.0827  0.4328
  152SAPE  C31216899   2.444   5.779   7.894 -0.4840 -0.3822  0.6460
  152SAPE  H12X16900   2.389   5.683   7.902 -1.6408  0.3065  1.0913
  152SAPE  H12Y16901   2.370   5.862   7.903 -1.7334 -1.3848 -0.2461
  152SAPE  C31316902   2.518   5.799   8.030 -0.0843 -0.1977 -0.7013
  152SAPE  H13X16903   2.565   5.899   8.048 -2.0313  0.5502  0.3592
  152SAPE  H13Y16904   2.595   5.720   8.035  0.2115  0.2761  3.3718
  152SAPE  C31416905   2.431   5.769   8.150  0.0673 -0.0403  0.1912
  152SAPE  H14X16906   2.405   5.662   8.160  2.9911 -0.7057  0.9080
  152SAPE  H14Y16907   2.336   5.825   8.130  0.8744  0.8053 -1.4214
  152SAPE  C31516908   2.479   5.820   8.280  0.2588  0.4005 -0.3869
  152SAPE  H15X16909   2.490   5.930   8.269  0.3782  0.5021  0.6661
  152SAPE  H15Y16910   2.581   5.778   8.295  0.5912  1.9365  1.9369
  152SAPE  C31616911   2.388   5.786   8.405 -0.4617 -0.2576  0.1596
  152SAPE  H16X16912   2.355   5.680   8.399 -0.9589 -0.1171  0.4645
  152SAPE  H16Y16913   2.295   5.845   8.399 -0.5599 -0.3606  0.6527
  152SAPE  C31716914   2.455   5.816   8.539  0.1486  0.5874  0.8532
  152SAPE  H17X16915   2.500   5.917   8.528 -0.5184  0.4676 -4.5445
  152SAPE  H17Y16916   2.537   5.742   8.546 -0.2354  0.0017 -0.6249
  152SAPE  C31816917   2.366   5.786   8.662 -0.1899  0.0525 -0.3724
  152SAPE  H18X16918   2.290   5.865   8.678 -0.7457 -0.5041 -0.2216
  152SAPE  H18Y16919   2.437   5.795   8.748 -0.5400 -0.5426 -0.0200
  152SAPE  H18Z16920   2.325   5.683   8.669 -1.0933  0.5031  1.2289
  153SAPE     N16921   6.111   5.492   5.994  0.8520 -0.5103  0.4091
  153SAPE   HN116922   6.063   5.476   5.903 -2.9182 -2.1946  2.6062
  153SAPE   HN216923   6.143   5.588   6.016  1.1277 -0.1912 -1.3122
  153SAPE   HN316924   6.200   5.437   5.991 -0.4108 -2.6799  1.2187
  153SAPE   C1216925   6.042   5.443   6.115 -0.2901  0.1811  0.1896
  153SAPE  H12A16926   5.995   5.344   6.099  1.2811 -0.4619 -0.5622
  153SAPE  H12B16927   5.957   5.513   6.131 -0.6103 -0.9315  3.8722
  153SAPE   C1116928   6.139   5.443   6.237  0.2547 -0.4756 -0.1828
  153SAPE  H11A16929   6.207   5.355   6.233  1.0866  0.1586 -0.0272
  153SAPE  H11B16930   6.082   5.417   6.329 -2.9481  0.7822 -1.7478
  153SAPE     P16931   6.353   5.590   6.321  0.2226  0.0282 -0.1348
  153SAPE   O1316932   6.440   5.479   6.289 -0.1497 -0.1918  0.1189
  153SAPE   O1416933   6.403   5.725   6.276  0.6149 -0.1490  0.1268
  153SAPE   O1216934   6.213   5.565   6.259 -0.0662  0.3066  0.3436
  153SAPE   O1116935   6.342   5.585   6.477 -0.2558 -0.0854 -0.6484
  153SAPE    C116936   6.217   5.591   6.552  0.3709 -0.3048  0.5013
  153SAPE    HA16937   6.151   5.508   6.521  1.3279 -1.2722  1.0285
  153SAPE    HB16938   6.238   5.565   6.658 -2.6921 -1.0701  0.9703
  153SAPE    C216939   6.141   5.728   6.567  0.0340  0.0351 -0.1030
  153SAPE    HS16940   6.089   5.753   6.473 -3.2178 -1.8541  1.0934
  153SAPE   O2116941   6.223   5.833   6.624 -0.3745  0.1849  0.1787
  153SAPE   C2116942   6.204   5.958   6.585 -0.9463  0.3228  0.4307
  153SAPE   O2216943   6.128   5.999   6.497  0.4312 -0.2336 -0.1253
  153SAPE   C2216944   6.290   6.055   6.670 -0.2160 -0.2245 -0.9476
  153SAPE   H2R16945   6.373   5.993   6.710 -0.7098 -0.8014 -0.8053
  153SAPE   H2S16946   6.340   6.128   6.602  1.0456 -4.0381 -4.3295
  153SAPE    C316947   6.020   5.721   6.666 -0.0643 -0.7306  0.1275
  153SAPE    HX16948   5.944   5.650   6.626 -0.5867  0.1454 -0.4594
  153SAPE    HY16949   5.958   5.813   6.660 -0.9173 -1.3211 -0.1110
  153SAPE   O3116950   6.057   5.683   6.797 -0.6525 -0.2395  0.0320
  153SAPE   C3116951   6.029   5.769   6.884 -0.0582  0.1019  0.0521
  153SAPE   O3216952   5.985   5.880   6.865  0.1221 -0.0791 -0.3830
  153SAPE   C3216953   6.079   5.717   7.017  0.3804  0.0442  0.1455
  153SAPE   H2X16954   6.125   5.799   7.076  0.3020  0.9836 -1.0718
  153SAPE   H2Y16955   6.156   5.640   6.997  0.8734  0.3980  0.6817
  153SAPE   C2316956   6.202   6.110   6.784 -0.6274 -0.8757 -0.2128
  153SAPE   H3R16957   6.168   6.023   6.843  0.6019 -1.1513  0.1088
  153SAPE   H3S16958   6.119   6.172   6.744  0.8657  0.8902 -0.6779
  153SAPE   C2416959   6.279   6.191   6.891 -0.4280  0.0877  0.8124
  153SAPE   H4R16960   6.375   6.136   6.903 -0.6929 -0.6474 -0.3574
  153SAPE   H4S16961   6.228   6.188   6.989  2.0220 -1.2161  2.1030
  153SAPE   C2516962   6.312   6.328   6.846  0.7186 -0.4522 -0.3187
  153SAPE   H5R16963   6.259   6.369   6.759 -0.2955  1.2630  1.0964
  153SAPE   C2616964   6.401   6.412   6.894  0.0660  0.0775 -0.1246
  153SAPE   H6R16965   6.416   6.515   6.856 -2.8481  0.3474 -0.6294
  153SAPE   C2716966   6.487   6.388   7.018 -0.0318  0.6645 -0.1574
  153SAPE   H7R16967   6.583   6.444   7.020  1.1587 -1.3171 -0.5561
  153SAPE   H7S16968   6.518   6.282   7.004 -0.1013  0.6950 -0.5474
  153SAPE   C2816969   6.408   6.403   7.143 -1.2518 -0.5224 -0.0787
  153SAPE   H8R16970   6.300   6.405   7.122 -0.3899 -1.1331 -4.9851
  153SAPE   C2916971   6.459   6.419   7.266 -0.7514 -0.0315  0.1688
  153SAPE   H9R16972   6.396   6.423   7.357  0.6976 -0.7881  1.2182
  153SAPE  C21016973   6.603   6.423   7.306  0.2845 -0.3745  0.1575
  153SAPE  H10R16974   6.664   6.378   7.225  2.0901  1.6322  0.3431
  153SAPE  H10S16975   6.617   6.360   7.397  1.4337  2.2945  1.9026
  153SAPE  C21116976   6.646   6.570   7.325 -0.3512  0.9619  0.2800
  153SAPE  H11R16977   6.614   6.640   7.246 -2.2526 -2.3487 -2.0025
  153SAPE  C21216978   6.714   6.613   7.435  0.5410 -0.5165 -0.1262
  153SAPE  H12R16979   6.751   6.717   7.438 -2.2144  0.5147  0.0034
  153SAPE  C21316980   6.758   6.529   7.547 -0.2543 -0.3759 -0.3105
  153SAPE  H13R16981   6.864   6.559   7.563 -0.7432  0.8609  0.6575
  153SAPE  H13S16982   6.754   6.422   7.516 -1.7065 -0.3290 -0.3069
  153SAPE  C21416983   6.671   6.542   7.670  0.2084  0.3227  0.2535
  153SAPE  H14R16984   6.570   6.499   7.663 -0.3033  1.3909  0.8131
  153SAPE  C21516985   6.722   6.580   7.789  0.9110  0.2005  0.1378
  153SAPE  H15R16986   6.653   6.563   7.873 -0.2914 -1.3397 -1.1268
  153SAPE  C21616987   6.864   6.625   7.823  0.6557  0.2934 -0.2634
  153SAPE  H16R16988   6.885   6.723   7.775  1.9276 -0.7079 -1.8478
  153SAPE  H16S16989   6.935   6.558   7.768  1.5991  1.1267 -0.0778
  153SAPE  C21716990   6.886   6.609   7.978 -0.5175 -0.5298  0.2524
  153SAPE  H17R16991   6.993   6.598   8.006 -0.2768  0.6731 -0.1436
  153SAPE  H17S16992   6.838   6.513   8.005 -0.0045 -0.9342 -0.2684
  153SAPE  C21816993   6.818   6.720   8.062 -0.1051 -0.2100  0.3300
  153SAPE  H18R16994   6.807   6.693   8.169  0.0711  0.1312  0.4342
  153SAPE  H18S16995   6.713   6.722   8.024 -0.1398 -2.0186  0.2669
  153SAPE  C21916996   6.858   6.868   8.049  0.0819 -0.2955 -0.6258
  153SAPE  H19R16997   6.859   6.893   7.940  0.5704  0.3540 -0.4731
  153SAPE  H19S16998   6.958   6.882   8.095 -0.5685 -0.0628  0.7473
  153SAPE  C22016999   6.763   6.965   8.134 -0.2956  0.3446 -0.6923
  153SAPE  H20R17000   6.802   7.064   8.167 -1.0497  0.3103  0.3292
  153SAPE  H20S17001   6.735   6.911   8.227 -0.7922 -1.0443 -1.6477
  153SAPE  H20T17002   6.668   6.980   8.080 -0.3645 -1.1220 -0.9866
  153SAPE   C3317003   5.955   5.648   7.098 -0.4717 -0.2483  0.7092
  153SAPE   H3X17004   5.899   5.575   7.036  0.9141 -1.1274  0.4632
  153SAPE   H3Y17005   5.884   5.725   7.136  0.6335  1.1587 -0.0318
  153SAPE   C3417006   6.005   5.572   7.229  0.4479  0.4799 -0.5039
  153SAPE   H4X17007   6.090   5.506   7.201 -0.6214 -1.1195 -0.0882
  153SAPE   H4Y17008   5.927   5.515   7.284 -1.5273  1.2018 -2.4846
  153SAPE   C3517009   6.068   5.659   7.332  0.2533 -0.7735 -1.2318
  153SAPE   H5X17010   5.997   5.736   7.368  1.4831 -0.1443 -0.0953
  153SAPE   H5Y17011   6.153   5.716   7.291 -1.2757  1.7078 -1.0160
  153SAPE   C3617012   6.134   5.585   7.451  0.1389 -0.4023  0.4913
  153SAPE   H6X17013   6.146   5.666   7.526 -0.7544 -0.2705  0.4984
  153SAPE   H6Y17014   6.237   5.547   7.437  0.4605  0.1032  1.4523
  153SAPE   C3717015   6.048   5.465   7.510 -0.1007  0.4592 -0.1627
  153SAPE   H7X17016   6.119   5.382   7.527 -2.1886 -1.5950 -1.2097
  153SAPE   H7Y17017   5.988   5.412   7.434  0.9107 -0.8484 -0.0631
  153SAPE   C3817018   5.966   5.499   7.633 -0.0318  0.0760  0.5801
  153SAPE   H8X17019   5.906   5.409   7.658 -0.3792  0.3478  0.7332
  153SAPE   H8Y17020   5.892   5.575   7.599  1.3363  1.2733  0.2318
  153SAPE   C3917021   6.046   5.544   7.754  0.6496 -0.4523  0.0461
  153SAPE   H9X17022   6.053   5.654   7.765  0.2640 -0.6258  2.1992
  153SAPE   H9Y17023   6.145   5.492   7.755  1.4036  0.9503 -0.2661
  153SAPE  C31017024   5.984   5.500   7.891  0.4716  0.4837  0.0103
  153SAPE  H10X17025   5.879   5.535   7.896  0.4154  0.7711 -2.6990
  153SAPE  H10Y17026   6.030   5.554   7.977 -0.8099  1.3178  0.1759
  153SAPE  C31117027   5.993   5.347   7.915  0.4883 -0.5452  0.3750
  153SAPE  H11X17028   6.091   5.309   7.878  2.0277  3.5289 -0.0050
  153SAPE  H11Y17029   5.914   5.288   7.864 -1.2116  1.3327  0.7939
  153SAPE  C31217030   5.993   5.305   8.065 -0.0248  0.0648  0.1134
  153SAPE  H12X17031   5.931   5.377   8.122 -0.7663  0.7849 -1.5841
  153SAPE  H12Y17032   6.091   5.303   8.118 -1.3413  1.2474  2.6702
  153SAPE  C31317033   5.928   5.165   8.083  0.2977  0.2190 -0.2151
  153SAPE  H13X17034   5.828   5.164   8.035 -2.4248  1.2626  4.9951
  153SAPE  H13Y17035   5.911   5.166   8.193  0.2556 -0.7096 -0.2108
  153SAPE  C31417036   6.015   5.043   8.052  0.1217  0.6531 -0.3315
  153SAPE  H14X17037   6.106   5.061   8.114  1.6918 -0.7260 -2.1684
  153SAPE  H14Y17038   6.033   5.051   7.943  2.1994  0.5448 -0.0185
  153SAPE  C31517039   5.954   4.907   8.099 -0.0162  1.1231 -0.0983
  153SAPE  H15X17040   5.854   4.898   8.052  0.7803  1.0556 -1.8223
  153SAPE  H15Y17041   5.932   4.887   8.206  2.0139 -0.8803 -0.0062
  153SAPE  C31617042   6.025   4.770   8.048 -0.1213  0.9310 -0.1468
  153SAPE  H16X17043   6.128   4.765   8.089  0.4182  1.8379 -1.3686
  153SAPE  H16Y17044   6.019   4.780   7.938  0.4156 -1.2587 -0.4003
  153SAPE  C31717045   5.940   4.647   8.100 -0.2124  0.0259 -0.4090
  153SAPE  H17X17046   5.959   4.573   8.019 -1.8410  1.9291 -2.6103
  153SAPE  H17Y17047   5.830   4.667   8.099 -0.0779  0.8931  0.7967
  153SAPE  C31817048   5.975   4.588   8.236 -0.6479 -0.8192  0.1305
  153SAPE  H18X17049   5.924   4.491   8.253 -0.5022 -0.8529  0.3856
  153SAPE  H18Y17050   5.933   4.645   8.322  3.7880 -1.5657  2.9108
  153SAPE  H18Z17051   6.085   4.580   8.242 -0.2841  2.8399 -0.7847
  154SAPE     N17052   4.399   5.380   5.858 -0.2209 -0.4775 -0.2664
  154SAPE   HN117053   4.354   5.324   5.783 -1.2110 -0.2531  0.1403
  154SAPE   HN217054   4.450   5.321   5.926  0.6440  0.9628  0.3612
  154SAPE   HN317055   4.322   5.414   5.919  0.1369 -1.6803  0.8805
  154SAPE   C1217056   4.489   5.485   5.806 -0.0063  0.2675 -0.1707
  154SAPE  H12A17057   4.437   5.534   5.721  0.5045  0.8976 -0.1185
  154SAPE  H12B17058   4.583   5.433   5.777  0.6635  1.4418 -0.1244
  154SAPE   C1117059   4.519   5.589   5.914 -0.2831 -0.2221 -0.1525
  154SAPE  H11A17060   4.439   5.664   5.932 -0.1296  0.5988 -2.6932
  154SAPE  H11B17061   4.602   5.645   5.866 -0.4374 -0.4446 -0.6850
  154SAPE     P17062   4.658   5.591   6.137  0.2299 -0.4694  0.5594
  154SAPE   O1317063   4.770   5.664   6.071 -0.4014  0.6218  0.3161
  154SAPE   O1417064   4.578   5.677   6.223 -0.1757 -0.2286 -0.2739
  154SAPE   O1217065   4.560   5.525   6.036 -0.5570 -0.1768 -0.0235
  154SAPE   O1117066   4.713   5.465   6.214 -0.4954 -0.0645 -0.0033
  154SAPE    C117067   4.626   5.371   6.272 -0.4467  0.6124 -0.4568
  154SAPE    HA17068   4.525   5.389   6.231  0.5577  1.5264 -2.5881
  154SAPE    HB17069   4.655   5.266   6.248  3.3171  1.6384 -0.7352
  154SAPE    C217070   4.606   5.395   6.426  0.3844  0.8919  0.5741
  154SAPE    HS17071   4.549   5.490   6.435 -1.9222 -0.6305  2.6398
  154SAPE   O2117072   4.729   5.397   6.498 -0.3393  0.2263  0.2238
  154SAPE   C2117073   4.744   5.489   6.591 -0.3876 -0.8378  0.5854
  154SAPE   O2217074   4.654   5.564   6.627 -0.4104  0.2312  0.5633
  154SAPE   C2217075   4.893   5.490   6.620  0.9189 -0.1626 -0.4209
  154SAPE   H2R17076   4.910   5.388   6.662 -1.4428 -1.3843 -2.3457
  154SAPE   H2S17077   4.958   5.500   6.530  0.0768  2.3752 -0.7827
  154SAPE    C317078   4.512   5.281   6.492 -0.0529 -0.2840  0.1978
  154SAPE    HX17079   4.566   5.187   6.517  0.9526  0.0227 -0.7821
  154SAPE    HY17080   4.436   5.262   6.414  1.1289  0.5359 -1.1702
  154SAPE   O3117081   4.443   5.322   6.614  0.1225  0.0780  0.5211
  154SAPE   C3117082   4.353   5.416   6.601  0.1965  0.4352 -0.0291
  154SAPE   O3217083   4.322   5.472   6.496 -0.2469  0.5687 -0.0787
  154SAPE   C3217084   4.287   5.450   6.734 -0.1145 -0.2390 -0.3570
  154SAPE   H2X17085   4.198   5.385   6.751 -1.0852  1.0187 -0.5224
  154SAPE   H2Y17086   4.240   5.550   6.719 -0.0648 -0.1359  0.1507
  154SAPE   C2317087   4.923   5.597   6.729  0.5275  0.3685  0.5549
  154SAPE   H3R17088   4.888   5.694   6.689 -1.5781 -1.1899 -1.5512
  154SAPE   H3S17089   5.031   5.595   6.757  0.7949 -2.2133 -0.4646
  154SAPE   C2417090   4.850   5.571   6.865 -0.5502 -0.5054 -0.0365
  154SAPE   H4R17091   4.921   5.493   6.901  0.5542  0.9891  1.0779
  154SAPE   H4S17092   4.749   5.526   6.854 -1.5628  1.3259  1.4780
  154SAPE   C2517093   4.843   5.703   6.941  0.4868 -0.4397  0.1284
  154SAPE   H5R17094   4.846   5.793   6.878  2.8746  0.0940  0.9624
  154SAPE   C2617095   4.837   5.722   7.078 -0.2539 -0.6528 -0.0767
  154SAPE   H6R17096   4.820   5.824   7.114 -0.1556 -1.3419  1.9954
  154SAPE   C2717097   4.842   5.623   7.193  0.3565 -0.3892  0.6501
  154SAPE   H7R17098   4.840   5.520   7.151  0.9119 -0.0211 -0.2896
  154SAPE   H7S17099   4.753   5.631   7.259 -0.8043 -0.9887 -0.8301
  154SAPE   C2817100   4.958   5.644   7.288  0.1027 -0.2880 -0.6765
  154SAPE   H8R17101   5.047   5.691   7.245 -0.7040  1.0219 -0.9488
  154SAPE   C2917102   4.965   5.632   7.421 -0.1098  0.1035  0.5700
  154SAPE   H9R17103   5.064   5.642   7.467  0.1345  1.3611 -0.2235
  154SAPE  C21017104   4.843   5.587   7.501 -0.7508 -0.3382 -0.4832
  154SAPE  H10R17105   4.877   5.512   7.575 -0.1479  0.3162 -0.0949
  154SAPE  H10S17106   4.773   5.530   7.435  0.6854 -1.2750 -1.2266
  154SAPE  C21117107   4.785   5.702   7.572  0.1435  0.1952 -0.3385
  154SAPE  H11R17108   4.763   5.786   7.504 -0.4950 -0.0882 -0.4807
  154SAPE  C21217109   4.767   5.719   7.705  0.5656 -0.0767 -0.2630
  154SAPE  H12R17110   4.733   5.820   7.734  2.2187  0.6152 -0.7153
  154SAPE  C21317111   4.798   5.629   7.826 -0.0002 -0.5874  0.7887
  154SAPE  H13R17112   4.822   5.691   7.916 -1.8757  0.1195  0.8384
  154SAPE  H13S17113   4.885   5.563   7.806 -0.3194 -1.4894  2.2813
  154SAPE  C21417114   4.667   5.549   7.842 -0.2550  0.0674  0.0453
  154SAPE  H14R17115   4.609   5.534   7.750 -0.6572 -0.9473  0.4553
  154SAPE  C21517116   4.639   5.483   7.952 -0.7316 -0.0564 -0.3655
  154SAPE  H15R17117   4.541   5.434   7.953 -0.0060 -1.6182 -1.9775
  154SAPE  C21617118   4.713   5.468   8.082  0.4280 -0.3119  0.4602
  154SAPE  H16R17119   4.790   5.545   8.104 -0.9877  1.3394 -0.1807
  154SAPE  H16S17120   4.748   5.363   8.089  1.5130 -0.1537 -2.0380
  154SAPE  C21717121   4.619   5.480   8.198 -0.2099  0.5646 -0.4296
  154SAPE  H17R17122   4.532   5.412   8.190 -0.8062  0.7479  3.5076
  154SAPE  H17S17123   4.591   5.587   8.198  0.0585  0.6443  1.0315
  154SAPE  C21817124   4.682   5.447   8.333 -0.8420  0.4619  0.5141
  154SAPE  H18R17125   4.771   5.510   8.351 -1.4625  1.9260 -1.4077
  154SAPE  H18S17126   4.708   5.339   8.326 -1.2200  0.5125 -2.4986
  154SAPE  C21917127   4.580   5.477   8.444 -0.0197 -0.0295  0.3149
  154SAPE  H19R17128   4.498   5.402   8.450 -0.8929  1.0244  1.7973
  154SAPE  H19S17129   4.530   5.573   8.421  1.6051  0.0682 -3.2043
  154SAPE  C22017130   4.651   5.495   8.579 -0.7948 -0.6292 -0.3652
  154SAPE  H20R17131   4.695   5.397   8.605 -0.2057 -0.0616  0.8399
  154SAPE  H20S17132   4.578   5.520   8.659  0.1905  1.5591 -0.1132
  154SAPE  H20T17133   4.735   5.568   8.583 -0.7198 -0.6090 -2.1507
  154SAPE   C3317134   4.382   5.429   6.856 -0.0335  0.0312 -0.5557
  154SAPE   H3X17135   4.464   5.501   6.838  0.7313 -0.4659  0.9096
  154SAPE   H3Y17136   4.430   5.329   6.860 -0.4224 -0.0797  2.3512
  154SAPE   C3417137   4.323   5.456   6.989  0.5309 -0.3192 -0.4378
  154SAPE   H4X17138   4.236   5.393   7.017  1.9717 -0.9034  2.8533
  154SAPE   H4Y17139   4.295   5.563   6.976  1.5591  0.1771  1.3004
  154SAPE   C3517140   4.428   5.443   7.096 -0.7693 -0.1150 -0.0177
  154SAPE   H5X17141   4.524   5.491   7.066  0.5106 -2.4191  0.1694
  154SAPE   H5Y17142   4.450   5.336   7.117  0.7428 -0.3692 -2.6587
  154SAPE   C3617143   4.384   5.501   7.233  0.0517  0.3565 -0.1394
  154SAPE   H6X17144   4.287   5.460   7.271  0.0277  0.5325 -0.0087
  154SAPE   H6Y17145   4.360   5.606   7.205  0.3906  0.5114  0.1538
  154SAPE   C3717146   4.497   5.492   7.338 -0.1569  0.0394 -0.5249
  154SAPE   H7X17147   4.552   5.586   7.359 -0.9560  0.5908 -0.8471
  154SAPE   H7Y17148   4.573   5.416   7.309 -1.5397 -1.2760 -0.7846
  154SAPE   C3817149   4.440   5.431   7.476 -0.2274  0.2731  0.0256
  154SAPE   H8X17150   4.531   5.400   7.532 -0.8234  1.2872  1.6057
  154SAPE   H8Y17151   4.378   5.341   7.459  2.9968 -1.8804 -0.9482
  154SAPE   C3917152   4.353   5.538   7.546 -0.2953  0.4371 -0.5493
  154SAPE   H9X17153   4.257   5.556   7.494 -2.5381  0.8089  3.5498
  154SAPE   H9Y17154   4.405   5.636   7.543 -2.0019  1.3903  0.5818
  154SAPE  C31017155   4.312   5.496   7.693 -0.7286  0.0147  0.0579
  154SAPE  H10X17156   4.403   5.453   7.741 -1.7958 -3.1196 -0.6148
  154SAPE  H10Y17157   4.245   5.408   7.696 -0.9137  0.1010 -1.2560
  154SAPE  C31117158   4.253   5.605   7.783  0.2487  0.1524 -0.2121
  154SAPE  H11X17159   4.173   5.667   7.737  0.4171  0.8047  0.3531
  154SAPE  H11Y17160   4.332   5.677   7.815  0.5430 -0.4347  0.4062
  154SAPE  C31217161   4.174   5.531   7.900  0.0603  1.0427 -0.7766
  154SAPE  H12X17162   4.233   5.439   7.919  1.3741  1.9921 -0.1437
  154SAPE  H12Y17163   4.074   5.493   7.870  0.5022 -0.1359 -0.7982
  154SAPE  C31317164   4.167   5.611   8.032 -0.0306  0.4860 -0.1497
  154SAPE  H13X17165   4.096   5.561   8.101 -0.6359  2.1244  0.4409
  154SAPE  H13Y17166   4.146   5.717   8.008  0.4646  0.3521 -1.2245
  154SAPE  C31417167   4.301   5.603   8.107  0.2160 -0.3541  0.2794
  154SAPE  H14X17168   4.373   5.658   8.043 -0.8390  0.8625  0.1158
  154SAPE  H14Y17169   4.321   5.494   8.116 -1.6452 -0.7017  0.3141
  154SAPE  C31517170   4.292   5.670   8.244 -0.2312  1.0541 -0.0509
  154SAPE  H15X17171   4.367   5.631   8.316 -2.5353  0.4274  2.0618
  154SAPE  H15Y17172   4.192   5.656   8.288  0.8155  0.2734  2.1379
  154SAPE  C31617173   4.302   5.820   8.237  0.3661  1.0311  0.4981
  154SAPE  H16X17174   4.213   5.874   8.200 -0.6008 -0.7977  0.0947
  154SAPE  H16Y17175   4.382   5.848   8.165  0.3961 -5.2619 -2.2969
  154SAPE  C31717176   4.330   5.884   8.368  0.0268 -0.4704 -0.7302
  154SAPE  H17X17177   4.359   5.991   8.365  1.9075 -0.9244  0.2455
  154SAPE  H17Y17178   4.424   5.844   8.412 -0.3858 -0.0530  0.5577
  154SAPE  C31817179   4.211   5.863   8.469 -0.1188 -0.9588  0.1002
  154SAPE  H18X17180   4.212   5.760   8.511  0.8472 -1.4574 -1.1244
  154SAPE  H18Y17181   4.113   5.894   8.427  1.1216  0.3741 -1.8909
  154SAPE  H18Z17182   4.230   5.934   8.551  2.5028 -0.3225 -1.0171
  155SAPE     N17183   4.340   5.718   6.366 -0.6694 -0.6013 -0.0842
  155SAPE   HN117184   4.299   5.625   6.389 -1.1575 -0.7029 -1.3465
  155SAPE   HN217185   4.288   5.771   6.294 -1.1269  2.3666  2.3099
  155SAPE   HN317186   4.431   5.713   6.315 -2.2888 -1.9800 -2.9070
  155SAPE   C1217187   4.337   5.809   6.491  0.4462 -0.0861  0.2815
  155SAPE  H12A17188   4.397   5.756   6.568  1.8840 -0.5567 -1.1245
  155SAPE  H12B17189   4.233   5.791   6.526  0.6742 -1.5139  0.2514
  155SAPE   C1117190   4.364   5.963   6.476  0.1453  0.4383 -0.1764
  155SAPE  H11A17191   4.468   5.989   6.503  1.2124  0.7838 -4.3581
  155SAPE  H11B17192   4.305   6.011   6.557  0.3843  1.1676 -0.4397
  155SAPE     P17193   4.193   6.088   6.319 -0.2036 -0.2465  0.1035
  155SAPE   O1317194   4.197   6.134   6.178  0.2170 -0.0366 -0.0255
  155SAPE   O1417195   4.090   5.985   6.348  0.3590 -0.4213  0.0628
  155SAPE   O1217196   4.324   6.014   6.347 -0.9093  0.0668 -0.3942
  155SAPE   O1117197   4.203   6.203   6.420  0.2945 -0.4349 -0.0327
  155SAPE    C117198   4.310   6.295   6.427  0.2104  0.0497  0.1862
  155SAPE    HA17199   4.405   6.268   6.374  1.5523  1.1045  1.9834
  155SAPE    HB17200   4.278   6.386   6.371  1.6562 -1.2321 -2.8469
  155SAPE    C217201   4.337   6.335   6.568  0.3375 -0.4776 -0.4303
  155SAPE    HS17202   4.368   6.442   6.566 -1.9623  0.1969 -1.4999
  155SAPE   O2117203   4.449   6.259   6.612  0.1908 -0.2753  0.3396
  155SAPE   C2117204   4.519   6.311   6.707  0.3664  0.3341 -0.0135
  155SAPE   O2217205   4.509   6.429   6.746 -0.4421  0.5523  0.3257
  155SAPE   C2217206   4.624   6.215   6.758 -0.2004  0.5379  0.2698
  155SAPE   H2R17207   4.585   6.120   6.801  1.0587 -0.9571 -1.8141
  155SAPE   H2S17208   4.686   6.175   6.676 -0.9658  2.3102 -1.1995
  155SAPE    C317209   4.211   6.313   6.653 -0.2995 -0.1060  0.1450
  155SAPE    HX17210   4.204   6.203   6.666 -1.6845  0.2117  2.3875
  155SAPE    HY17211   4.113   6.352   6.616  0.1764  2.1882  1.1847
  155SAPE   O3117212   4.239   6.360   6.785  0.3313  0.3239 -0.3086
  155SAPE   C3117213   4.211   6.489   6.806  0.6864  1.0352 -0.4934
  155SAPE   O3217214   4.154   6.559   6.727  0.3487  0.3299 -0.4976
  155SAPE   C3217215   4.255   6.527   6.940 -0.7580  0.3570  0.2393
  155SAPE   H2X17216   4.358   6.487   6.953 -1.7757 -1.8949  1.5103
  155SAPE   H2Y17217   4.191   6.478   7.016 -1.0261 -0.6806 -0.6401
  155SAPE   C2317218   4.716   6.293   6.856  0.7265 -0.8895 -0.2787
  155SAPE   H3R17219   4.646   6.334   6.931  2.1398  1.3121 -0.1295
  155SAPE   H3S17220   4.772   6.363   6.790 -1.7714  0.8380 -0.6373
  155SAPE   C2417221   4.823   6.219   6.930  0.0940  0.0489 -0.1380
  155SAPE   H4R17222   4.901   6.170   6.868 -0.4516  2.6840 -3.0339
  155SAPE   H4S17223   4.765   6.130   6.961 -1.3647  1.2585  0.6888
  155SAPE   C2517224   4.888   6.297   7.037  0.4766 -0.8472 -0.9925
  155SAPE   H5R17225   4.971   6.361   7.004 -0.0030  0.4971  0.3299
  155SAPE   C2617226   4.869   6.274   7.164  0.3717 -0.4531 -0.0695
  155SAPE   H6R17227   4.922   6.339   7.235 -0.5739 -0.6233  0.7853
  155SAPE   C2717228   4.763   6.181   7.220 -0.0382 -0.1739 -0.2667
  155SAPE   H7R17229   4.678   6.154   7.153  0.3303 -1.0321 -0.3940
  155SAPE   H7S17230   4.711   6.237   7.301  0.6235  2.2048 -1.4148
  155SAPE   C2817231   4.835   6.066   7.282  0.5840 -0.2622  0.1472
  155SAPE   H8R17232   4.897   5.999   7.220 -0.3190  0.3369 -1.4255
  155SAPE   C2917233   4.844   6.040   7.418 -0.2424  0.1417 -0.3220
  155SAPE   H9R17234   4.916   5.962   7.450 -1.4547 -0.4059  1.1204
  155SAPE  C21017235   4.776   6.123   7.528 -0.5225 -0.0106  0.0164
  155SAPE  H10R17236   4.777   6.065   7.623 -2.2492  0.7541  0.5315
  155SAPE  H10S17237   4.669   6.137   7.501 -0.5342 -0.5699 -0.2439
  155SAPE  C21117238   4.836   6.258   7.557  0.6770 -0.1264  0.4266
  155SAPE  H11R17239   4.867   6.303   7.461 -1.2160  0.8661  0.2643
  155SAPE  C21217240   4.854   6.303   7.686 -0.5906  0.0873 -0.7524
  155SAPE  H12R17241   4.886   6.408   7.697 -0.4457 -0.0741  0.3482
  155SAPE  C21317242   4.815   6.229   7.813  0.3429 -0.0297 -0.1304
  155SAPE  H13R17243   4.892   6.150   7.822  1.5348  0.9863 -1.2207
  155SAPE  H13S17244   4.727   6.161   7.803  0.1141  0.3760 -0.9140
  155SAPE  C21417245   4.813   6.310   7.941  0.2542  0.2040 -0.1398
  155SAPE  H14R17246   4.880   6.397   7.949 -0.5872  0.8086  0.4057
  155SAPE  C21517247   4.734   6.287   8.050  0.2747  0.4081 -0.1534
  155SAPE  H15R17248   4.744   6.355   8.136 -2.1230  0.1421  0.3816
  155SAPE  C21617249   4.628   6.180   8.052 -0.0007  0.8093  0.1042
  155SAPE  H16R17250   4.598   6.132   7.957  0.2060 -0.4637  0.6836
  155SAPE  H16S17251   4.538   6.229   8.097 -1.2597 -0.0381 -1.4285
  155SAPE  C21717252   4.669   6.055   8.136 -0.2658 -0.0877  0.1758
  155SAPE  H17R17253   4.578   5.992   8.139 -0.8114  0.3233 -4.0526
  155SAPE  H17S17254   4.687   6.080   8.242  1.1605  1.9341 -0.5116
  155SAPE  C21817255   4.780   5.973   8.072 -0.8132  0.1254 -0.2408
  155SAPE  H18R17256   4.876   6.023   8.096 -0.1339 -1.8835  1.2915
  155SAPE  H18S17257   4.779   5.985   7.962  0.2648 -0.4265 -0.3088
  155SAPE  C21917258   4.793   5.826   8.133 -0.4930 -0.7880 -0.2583
  155SAPE  H19R17259   4.880   5.778   8.083  0.6917 -0.1122  1.1232
  155SAPE  H19S17260   4.692   5.783   8.113 -0.8941 -0.6255  1.2866
  155SAPE  C22017261   4.808   5.823   8.288 -0.6119  0.2377  0.2129
  155SAPE  H20R17262   4.727   5.877   8.343  0.0585  2.3764 -0.8657
  155SAPE  H20S17263   4.902   5.878   8.308 -1.1165  1.5820 -1.0227
  155SAPE  H20T17264   4.832   5.728   8.340  1.4813  0.5900 -0.0697
  155SAPE   C3317265   4.266   6.672   6.973 -0.6563 -1.0725 -0.4383
  155SAPE   H3X17266   4.176   6.735   6.955 -0.5221 -0.9224 -0.5893
  155SAPE   H3Y17267   4.342   6.714   6.904  1.6440  0.0458  2.6443
  155SAPE   C3417268   4.314   6.696   7.117  0.2511 -0.6210  0.0213
  155SAPE   H4X17269   4.344   6.803   7.112 -2.0331  0.0191 -0.3050
  155SAPE   H4Y17270   4.406   6.642   7.148  0.6212  0.0852  0.1678
  155SAPE   C3517271   4.212   6.649   7.221  0.4292 -0.2070 -0.3035
  155SAPE   H5X17272   4.189   6.541   7.209  0.1451 -0.2276  0.4596
  155SAPE   H5Y17273   4.117   6.703   7.201  0.0160 -0.4532  0.9587
  155SAPE   C3617274   4.270   6.675   7.359  0.1154  0.7826 -0.1043
  155SAPE   H6X17275   4.299   6.781   7.370  0.9774  0.5973 -0.4996
  155SAPE   H6Y17276   4.357   6.606   7.350 -1.6150 -1.4476 -0.2640
  155SAPE   C3717277   4.178   6.640   7.479  0.0407 -1.0855  0.3203
  155SAPE   H7X17278   4.166   6.530   7.495 -2.4285 -0.4504  3.2093
  155SAPE   H7Y17279   4.076   6.680   7.460  0.0805 -1.2295 -0.2284
  155SAPE   C3817280   4.241   6.690   7.614 -0.0950  0.3534  0.1199
  155SAPE   H8X17281   4.270   6.796   7.597 -1.7291  0.9797  1.0705
  155SAPE   H8Y17282   4.326   6.619   7.625  0.7001  1.0448 -1.4841
  155SAPE   C3917283   4.144   6.694   7.732 -0.4240 -0.4211  0.0582
  155SAPE   H9X17284   4.085   6.600   7.734  0.0809 -0.7204  1.2914
  155SAPE   H9Y17285   4.068   6.774   7.724 -1.3302 -0.9625  2.7086
  155SAPE  C31017286   4.221   6.712   7.865 -0.1174 -0.3477  0.7247
  155SAPE  H10X17287   4.278   6.807   7.871 -0.2728  0.1000 -3.1199
  155SAPE  H10Y17288   4.305   6.641   7.881  1.1885  0.9853  0.0287
  155SAPE  C31117289   4.124   6.686   7.980  0.2221  0.9844 -0.4051
  155SAPE  H11X17290   4.079   6.585   7.964  0.4461  1.0395 -1.4307
  155SAPE  H11Y17291   4.042   6.761   7.986 -1.4331 -0.7310 -0.9767
  155SAPE  C31217292   4.202   6.695   8.116 -0.5069  0.0845  0.1553
  155SAPE  H12X17293   4.303   6.648   8.108 -0.4292  0.5919 -2.4574
  155SAPE  H12Y17294   4.146   6.639   8.193  1.1534 -1.3531  0.3543
  155SAPE  C31317295   4.225   6.841   8.165  0.2160  0.0142  0.1800
  155SAPE  H13X17296   4.134   6.900   8.189 -0.5485 -0.6341 -1.0543
  155SAPE  H13Y17297   4.273   6.902   8.086  0.9811 -0.1753  0.5000
  155SAPE  C31417298   4.311   6.839   8.298 -0.6563 -0.0593 -0.9207
  155SAPE  H14X17299   4.394   6.768   8.281 -0.5319 -0.1539  0.1022
  155SAPE  H14Y17300   4.249   6.795   8.379 -1.8428 -1.0988 -2.3684
  155SAPE  C31517301   4.360   6.979   8.335  0.3530 -0.6944  0.0991
  155SAPE  H15X17302   4.277   7.050   8.356 -0.1015 -0.6350 -1.8356
  155SAPE  H15Y17303   4.415   7.017   8.246  1.1364  2.3133  1.8270
  155SAPE  C31617304   4.460   6.991   8.451  0.5723 -0.5524 -0.4215
  155SAPE  H16X17305   4.470   7.099   8.474 -0.1663 -0.2144 -1.6520
  155SAPE  H16Y17306   4.560   6.955   8.419  1.4325  0.8234  0.6293
  155SAPE  C31717307   4.404   6.928   8.579  0.0864 -0.6172  0.0278
  155SAPE  H17X17308   4.448   6.834   8.620  3.5632  1.2450  0.7243
  155SAPE  H17Y17309   4.294   6.908   8.578  0.3689 -2.2545 -0.9954
  155SAPE  C31817310   4.420   7.032   8.694 -0.1147  0.2729  0.1780
  155SAPE  H18X17311   4.520   7.048   8.739 -0.2839  1.6103  0.0929
  155SAPE  H18Y17312   4.349   7.012   8.777 -1.0604  1.7942 -0.2416
  155SAPE  H18Z17313   4.407   7.136   8.659  1.0352  0.5409  0.5206
  156SAPE     N17314   2.049   0.022   6.359 -0.1457 -0.8113 -0.3920
  156SAPE   HN117315   2.062   0.093   6.284 -0.6111 -1.0421 -0.6893
  156SAPE   HN217316   1.989  -0.058   6.329 -0.9998 -0.0942 -0.6027
  156SAPE   HN317317   1.991   0.067   6.432  2.5282 -0.6136  1.6963
  156SAPE   C1217318   2.177   0.001   6.431 -0.7905  0.0305 -0.2439
  156SAPE  H12A17319   2.254   0.019   6.353  1.8670  2.3310  2.7924
  156SAPE  H12B17320   2.181  -0.109   6.448 -0.2734 -0.1931 -1.7084
  156SAPE   C1117321   2.186   0.075   6.561 -0.4107  0.2999  0.6009
  156SAPE  H11A17322   2.289   0.058   6.600 -1.1592 -0.6416  2.1921
  156SAPE  H11B17323   2.122   0.025   6.636  0.0498  0.5562  1.1706
  156SAPE     P17324   2.213   0.329   6.619  0.0857 -0.0447  0.4308
  156SAPE   O1317325   2.336   0.357   6.540  0.6590 -0.5448  0.6522
  156SAPE   O1417326   2.112   0.439   6.636 -0.0249 -0.3795  0.5304
  156SAPE   O1217327   2.136   0.209   6.547  0.0636 -0.4227 -0.3298
  156SAPE   O1117328   2.256   0.268   6.752 -0.1224  0.2764  0.3092
  156SAPE    C117329   2.155   0.244   6.854 -0.3176  0.4896 -0.2179
  156SAPE    HA17330   2.104   0.334   6.895  1.4124  1.4061 -0.0383
  156SAPE    HB17331   2.076   0.178   6.813 -2.1631  2.0171  0.8212
  156SAPE    C217332   2.220   0.161   6.983  0.3891 -0.9219  0.0811
  156SAPE    HS17333   2.140   0.162   7.061 -0.4629 -1.1704 -0.7821
  156SAPE   O2117334   2.339   0.227   7.029 -0.3267 -0.2901 -0.2271
  156SAPE   C2117335   2.325   0.324   7.116 -0.7463 -0.1477  0.7743
  156SAPE   O2217336   2.214   0.351   7.167 -0.9955 -0.3401  0.7869
  156SAPE   C2217337   2.462   0.369   7.167 -0.0384 -0.0257 -0.2362
  156SAPE   H2R17338   2.489   0.289   7.240 -2.2551 -0.7221 -0.1660
  156SAPE   H2S17339   2.525   0.377   7.076  1.3354 -3.8573  0.2634
  156SAPE    C317340   2.255   0.021   6.927 -0.6008  0.3720 -0.0117
  156SAPE    HX17341   2.299   0.023   6.825  1.4710  1.6163  0.8783
  156SAPE    HY17342   2.152  -0.018   6.912 -0.1977 -0.8054  0.2795
  156SAPE   O3117343   2.326  -0.058   7.017  0.4055 -0.0666 -0.2517
  156SAPE   C3117344   2.458  -0.056   7.020 -0.2032 -0.0968  0.5143
  156SAPE   O3217345   2.531   0.003   6.939  0.0194 -0.2268  0.1797
  156SAPE   C3217346   2.507  -0.135   7.142 -0.0865  0.1207  0.5931
  156SAPE   H2X17347   2.509  -0.244   7.119  3.2317  0.2261  0.0951
  156SAPE   H2Y17348   2.438  -0.104   7.223 -0.2673  0.4349  0.3226
  156SAPE   C2317349   2.448   0.503   7.253  0.1348  0.2867 -0.5492
  156SAPE   H3R17350   2.440   0.472   7.360  1.6045  0.0912 -0.4807
  156SAPE   H3S17351   2.349   0.550   7.234  0.2436  1.6548  1.9660
  156SAPE   C2417352   2.552   0.621   7.224  0.0891 -0.0023 -0.4061
  156SAPE   H4R17353   2.490   0.713   7.234 -1.9809 -1.3581 -0.3006
  156SAPE   H4S17354   2.583   0.616   7.118  1.4641 -1.6208  0.0557
  156SAPE   C2517355   2.672   0.622   7.318 -0.0766 -0.2602  0.0513
  156SAPE   H5R17356   2.748   0.548   7.288 -0.0469  0.0415 -0.6345
  156SAPE   C2617357   2.684   0.705   7.421  0.3728  0.2308  0.0846
  156SAPE   H6R17358   2.772   0.692   7.486 -0.5061  1.1587  1.4955
  156SAPE   C2717359   2.588   0.818   7.453 -0.6441 -0.0886  0.4198
  156SAPE   H7R17360   2.494   0.778   7.497  0.2815 -0.4852  2.0951
  156SAPE   H7S17361   2.567   0.878   7.362 -2.4990  0.7816  1.3832
  156SAPE   C2817362   2.647   0.915   7.550  0.3497  0.1318 -1.0549
  156SAPE   H8R17363   2.653   1.016   7.506 -1.8526  1.2128  0.9829
  156SAPE   C2917364   2.672   0.905   7.684  0.2621 -0.8201 -0.1962
  156SAPE   H9R17365   2.725   0.986   7.736  1.7491 -1.3667 -0.8087
  156SAPE  C21017366   2.644   0.799   7.783  0.4626  0.8241 -0.3105
  156SAPE  H10R17367   2.743   0.761   7.817  0.0491 -0.1073 -0.1258
  156SAPE  H10S17368   2.591   0.713   7.737  1.7141  0.3464 -0.8805
  156SAPE  C21117369   2.559   0.854   7.899 -0.2499  0.5347  0.1722
  156SAPE  H11R17370   2.505   0.947   7.874  0.6535  0.2870 -2.8516
  156SAPE  C21217371   2.536   0.817   8.023 -0.5979 -0.5707  0.5383
  156SAPE  H12R17372   2.466   0.882   8.077 -0.3024  0.2478 -0.0496
  156SAPE  C21317373   2.593   0.701   8.096  0.3781  0.2751  0.1091
  156SAPE  H13R17374   2.643   0.632   8.024 -3.4644 -0.7272 -1.7352
  156SAPE  H13S17375   2.508   0.644   8.140 -0.6347 -0.2238 -2.3648
  156SAPE  C21417376   2.704   0.738   8.193 -1.0681 -0.3472  0.4926
  156SAPE  H14R17377   2.778   0.803   8.144  0.7061 -2.0062  0.8922
  156SAPE  C21517378   2.720   0.710   8.327 -0.6358 -0.1308 -0.3679
  156SAPE  H15R17379   2.806   0.762   8.373 -0.8225 -0.5265  0.4199
  156SAPE  C21617380   2.625   0.631   8.412 -0.4164 -0.1318 -0.4675
  156SAPE  H16R17381   2.526   0.621   8.362 -0.1654 -0.0421 -0.9882
  156SAPE  H16S17382   2.607   0.691   8.504 -0.0212  1.0927 -1.1750
  156SAPE  C21717383   2.688   0.493   8.453 -0.6493 -0.0937  0.1872
  156SAPE  H17R17384   2.788   0.526   8.487 -1.1701  1.0059  0.7058
  156SAPE  H17S17385   2.701   0.425   8.366 -1.1312 -0.0692  0.0917
  156SAPE  C21817386   2.604   0.439   8.565  0.3751  0.7712  0.1697
  156SAPE  H18R17387   2.510   0.392   8.528  1.6993 -1.5448 -0.3480
  156SAPE  H18S17388   2.579   0.521   8.635  2.3760  2.5549 -1.1504
  156SAPE  C21917389   2.678   0.321   8.635 -0.5213  0.0564 -0.1969
  156SAPE  H19R17390   2.771   0.376   8.658 -1.1200  1.5126 -1.1942
  156SAPE  H19S17391   2.696   0.246   8.555 -2.6393 -1.7845  1.0004
  156SAPE  C22017392   2.618   0.268   8.765  0.7549 -0.0142  0.7368
  156SAPE  H20R17393   2.685   0.190   8.807  0.8883 -0.9217 -1.1028
  156SAPE  H20S17394   2.523   0.213   8.749  1.2017 -0.1060 -1.8600
  156SAPE  H20T17395   2.605   0.351   8.837  3.9351  1.0834  0.1197
  156SAPE   C3317396   2.649  -0.102   7.193 -0.0075 -0.0518 -0.4438
  156SAPE   H3X17397   2.656   0.005   7.222 -1.4199 -0.3213  0.9552
  156SAPE   H3Y17398   2.718  -0.102   7.106 -0.4563  2.2621 -0.8381
  156SAPE   C3417399   2.687  -0.190   7.310 -0.5520 -0.3285 -0.4746
  156SAPE   H4X17400   2.790  -0.154   7.334 -0.4835 -0.9441  0.1911
  156SAPE   H4Y17401   2.695  -0.292   7.268 -1.5858  0.1593 -1.8650
  156SAPE   C3517402   2.599  -0.175   7.435 -1.2860  0.3730 -0.6455
  156SAPE   H5X17403   2.501  -0.227   7.427 -0.8915 -0.1734 -2.1290
  156SAPE   H5Y17404   2.577  -0.066   7.441 -1.1780  0.5486 -3.0622
  156SAPE   C3617405   2.674  -0.206   7.570 -0.1153 -0.2290 -0.6134
  156SAPE   H6X17406   2.771  -0.152   7.568  0.1125 -0.6133 -0.1033
  156SAPE   H6Y17407   2.701  -0.313   7.582  0.6585 -0.1812 -1.7625
  156SAPE   C3717408   2.589  -0.184   7.695 -0.6305 -0.5878 -0.6656
  156SAPE   H7X17409   2.512  -0.264   7.692 -1.9181  0.5958  0.2408
  156SAPE   H7Y17410   2.547  -0.082   7.685  1.2220  0.4733  1.6951
  156SAPE   C3817411   2.672  -0.217   7.827 -0.2761  0.1073  0.5933
  156SAPE   H8X17412   2.760  -0.150   7.836  0.6462 -0.9854 -0.1854
  156SAPE   H8Y17413   2.711  -0.320   7.810  1.1709  1.0753 -2.0848
  156SAPE   C3917414   2.582  -0.203   7.956 -0.4572  0.8762 -0.1666
  156SAPE   H9X17415   2.486  -0.260   7.947 -0.4033  0.8581 -0.6330
  156SAPE   H9Y17416   2.548  -0.098   7.962  0.4636  1.2485 -1.3459
  156SAPE  C31017417   2.651  -0.225   8.086 -0.5962 -0.4069  0.2711
  156SAPE  H10X17418   2.668  -0.335   8.086  0.3195 -0.2683  0.2853
  156SAPE  H10Y17419   2.573  -0.190   8.158  0.9920 -0.5227  2.0961
  156SAPE  C31117420   2.788  -0.148   8.107 -0.3157 -0.3663 -0.7722
  156SAPE  H11X17421   2.784  -0.058   8.042 -0.3291  0.0388 -0.2122
  156SAPE  H11Y17422   2.867  -0.218   8.071  2.3051  1.7216  0.7821
  156SAPE  C31217423   2.818  -0.097   8.245  0.5239  0.0011 -0.1791
  156SAPE  H12X17424   2.750  -0.011   8.261  1.1335  1.0186 -2.8101
  156SAPE  H12Y17425   2.920  -0.053   8.242  0.1580  0.7868 -2.8943
  156SAPE  C31317426   2.806  -0.201   8.354  0.2458 -0.5878  0.0169
  156SAPE  H13X17427   2.874  -0.286   8.335  1.3403 -0.0845  1.5904
  156SAPE  H13Y17428   2.698  -0.226   8.344  0.0143  0.9586 -1.7003
  156SAPE  C31417429   2.828  -0.152   8.500 -0.0828 -0.4171 -0.4240
  156SAPE  H14X17430   2.745  -0.083   8.525  0.4867  1.3163 -3.0094
  156SAPE  H14Y17431   2.923  -0.095   8.508 -0.0229 -0.5846  0.0291
  156SAPE  C31517432   2.825  -0.267   8.597  0.4514 -0.1267 -0.2685
  156SAPE  H15X17433   2.913  -0.336   8.598 -1.5866 -2.8332 -0.4436
  156SAPE  H15Y17434   2.733  -0.311   8.554  0.1899  0.2966 -0.1373
  156SAPE  C31617435   2.800  -0.231   8.743  0.6837 -0.1604  0.2456
  156SAPE  H16X17436   2.726  -0.309   8.771  0.0698  0.2538 -0.2038
  156SAPE  H16Y17437   2.751  -0.133   8.758  0.7995  0.4223 -2.8263
  156SAPE  C31717438   2.927  -0.242   8.829 -0.1954  0.4469  0.5754
  156SAPE  H17X17439   3.002  -0.165   8.802  0.0026 -0.5366 -1.8313
  156SAPE  H17Y17440   2.972  -0.342   8.810 -1.6406 -0.3550  1.2420
  156SAPE  C31817441   2.896  -0.229   8.974 -0.8143  0.1522 -0.2871
  156SAPE  H18X17442   2.838  -0.135   8.990 -2.1063 -0.4451 -1.3527
  156SAPE  H18Y17443   2.981  -0.239   9.044 -0.2588 -1.5846 -1.1850
  156SAPE  H18Z17444   2.824  -0.307   9.006 -1.1374  0.4420 -0.2952
  157SAPE     N17445   0.717   1.264   6.140  0.0040 -0.1444 -0.8586
  157SAPE   HN117446   0.630   1.321   6.138 -0.3725 -0.4662  3.0036
  157SAPE   HN217447   0.793   1.329   6.169 -0.6571  0.1609  0.1963
  157SAPE   HN317448   0.736   1.237   6.041  2.2374 -1.7431 -0.0446
  157SAPE   C1217449   0.706   1.154   6.245  0.2345  0.0238  0.3452
  157SAPE  H12A17450   0.672   1.214   6.333 -1.3250  1.0183 -0.8961
  157SAPE  H12B17451   0.802   1.101   6.256 -0.0150 -0.8221 -1.4193
  157SAPE   C1117452   0.600   1.049   6.197 -0.3735  0.3465  0.0629
  157SAPE  H11A17453   0.590   0.977   6.281  0.6877  0.4929  0.3353
  157SAPE  H11B17454   0.642   1.002   6.106  0.2662 -3.1726  2.0785
  157SAPE     P17455   0.338   1.076   6.221 -0.0544 -0.1066  0.1062
  157SAPE   O1317456   0.233   1.142   6.145 -0.1103 -0.0218 -0.3918
  157SAPE   O1417457   0.340   0.929   6.213  0.3896 -0.2230 -0.1933
  157SAPE   O1217458   0.483   1.118   6.159 -0.1281 -0.2926 -0.9713
  157SAPE   O1117459   0.335   1.119   6.374 -0.0757  0.0416  0.6178
  157SAPE    C117460   0.361   1.260   6.399 -0.4585  0.5613  0.4761
  157SAPE    HA17461   0.455   1.270   6.457 -1.7260  1.4341  2.4562
  157SAPE    HB17462   0.364   1.325   6.309 -3.8637  1.9226  1.2575
  157SAPE    C217463   0.246   1.324   6.473 -0.4813  0.3671 -0.3224
  157SAPE    HS17464   0.284   1.426   6.492  0.7981 -0.5854  2.6735
  157SAPE   O2117465   0.224   1.257   6.602  0.2166  0.0525  0.8920
  157SAPE   C2117466   0.324   1.259   6.688 -0.1945 -0.3029  0.2288
  157SAPE   O2217467   0.420   1.333   6.676  0.3072  0.4162  0.3305
  157SAPE   C2217468   0.290   1.167   6.801  0.1267 -0.1871 -0.9079
  157SAPE   H2R17469   0.369   1.089   6.802  0.1906 -0.1333  1.9576
  157SAPE   H2S17470   0.303   1.233   6.889  1.1372 -2.4064  0.6649
  157SAPE    C317471   0.116   1.338   6.388  0.4082 -0.2174 -0.5686
  157SAPE    HX17472   0.082   1.234   6.371  2.2182 -1.0805  0.9084
  157SAPE    HY17473   0.144   1.389   6.293 -0.5254  1.2435 -0.0690
  157SAPE   O3117474   0.015   1.413   6.463  0.0047 -0.3110  0.7333
  157SAPE   C3117475   0.043   1.539   6.470 -0.1570 -0.1746 -0.5547
  157SAPE   O3217476   0.133   1.604   6.416 -0.2559  0.0045  0.9876
  157SAPE   C3217477  -0.068   1.615   6.548  0.9585 -0.2793  0.7132
  157SAPE   H2X17478  -0.146   1.537   6.564  0.5200  0.1158  0.5032
  157SAPE   H2Y17479  -0.111   1.690   6.479 -0.3156 -0.7045  1.0430
  157SAPE   C2317480   0.150   1.102   6.804 -0.5892 -0.3206  0.0949
  157SAPE   H3R17481   0.154   1.007   6.746 -0.7079 -0.8194  0.8957
  157SAPE   H3S17482   0.059   1.155   6.770 -0.3487 -1.1343 -1.8696
  157SAPE   C2417483   0.118   1.052   6.945  0.1088 -0.3575  0.6518
  157SAPE   H4R17484   0.215   1.014   6.984  0.9916  0.5279 -0.6425
  157SAPE   H4S17485   0.048   0.966   6.937  0.3281 -0.4517 -0.2628
  157SAPE   C2517486   0.068   1.159   7.043 -0.1801  0.0158  0.7596
  157SAPE   H5R17487   0.023   1.255   7.012 -0.2893 -0.9937 -2.3825
  157SAPE   C2617488   0.076   1.140   7.177 -0.0850  0.1025 -0.2036
  157SAPE   H6R17489   0.038   1.214   7.249 -0.0538 -1.1087  1.0840
  157SAPE   C2717490   0.141   1.019   7.241  0.0384  0.1775  0.7196
  157SAPE   H7R17491   0.229   0.983   7.185  1.1661 -0.0415  2.5964
  157SAPE   H7S17492   0.064   0.939   7.252  1.7146 -1.5169  0.3136
  157SAPE   C2817493   0.195   1.064   7.376  0.1606 -0.0686 -0.2013
  157SAPE   H8R17494   0.291   1.116   7.365 -0.4064  1.1272  0.4554
  157SAPE   C2917495   0.147   1.027   7.500  0.2191  0.1563  0.6619
  157SAPE   H9R17496   0.195   1.071   7.588  0.7764  1.2562 -0.1697
  157SAPE  C21017497   0.028   0.939   7.533  0.2378 -0.3759 -0.0186
  157SAPE  H10R17498   0.077   0.856   7.589 -2.2237 -1.5627  0.4001
  157SAPE  H10S17499  -0.013   0.891   7.442 -1.0683  1.1845 -0.2674
  157SAPE  C21117500  -0.071   1.028   7.609 -0.4161  0.3220 -0.2448
  157SAPE  H11R17501  -0.139   1.087   7.546  0.2079  0.7250 -0.5552
  157SAPE  C21217502  -0.100   1.036   7.741 -0.2293 -0.2718  0.4179
  157SAPE  H12R17503  -0.177   1.106   7.778  1.4093  0.4786  2.5233
  157SAPE  C21317504  -0.038   0.947   7.840  0.5143  0.3017  0.0807
  157SAPE  H13R17505   0.042   0.889   7.788 -1.2909  1.8642 -4.7808
  157SAPE  H13S17506  -0.120   0.885   7.880 -0.7524  1.0704 -1.2568
  157SAPE  C21417507   0.022   1.025   7.949  0.1337 -0.0756  0.4833
  157SAPE  H14R17508   0.117   1.070   7.920  1.0378 -0.9272  2.0251
  157SAPE  C21517509  -0.023   1.038   8.077  0.2060 -0.8154  0.1621
  157SAPE  H15R17510   0.037   1.104   8.142 -0.9153 -0.6658  1.0643
  157SAPE  C21617511  -0.153   0.984   8.135  0.0599 -0.0778  1.0947
  157SAPE  H16R17512  -0.146   0.873   8.138 -2.7630 -0.2989  0.6217
  157SAPE  H16S17513  -0.238   1.017   8.072  1.4654  0.1538 -0.7034
  157SAPE  C21717514  -0.174   1.042   8.278 -0.7670  0.4379  1.0685
  157SAPE  H17R17515  -0.214   1.144   8.259 -0.2667  0.2347 -1.2443
  157SAPE  H17S17516  -0.078   1.051   8.334  0.4911 -0.8087 -0.8397
  157SAPE  C21817517  -0.285   0.977   8.357 -0.0730  0.4133 -0.6794
  157SAPE  H18R17518  -0.267   0.869   8.342  0.2535  0.4185 -0.3297
  157SAPE  H18S17519  -0.386   1.004   8.318 -0.0193  2.8472  0.7457
  157SAPE  C21917520  -0.292   1.018   8.503  0.6949 -0.0945 -1.1661
  157SAPE  H19R17521  -0.400   1.017   8.528  1.4526 -0.2642  2.3474
  157SAPE  H19S17522  -0.266   1.125   8.522  3.2770 -1.0210  0.8672
  157SAPE  C22017523  -0.223   0.924   8.608  0.2454 -0.5433 -0.6224
  157SAPE  H20R17524  -0.290   0.837   8.625 -1.4956  0.6619 -1.1339
  157SAPE  H20S17525  -0.221   0.986   8.700 -0.7986 -1.0747 -0.2359
  157SAPE  H20T17526  -0.118   0.904   8.579  0.6817  1.2551 -0.3505
  157SAPE   C3317527  -0.034   1.667   6.691  0.4292  0.5343 -0.2877
  157SAPE   H3X17528   0.034   1.755   6.693 -0.0599  0.9731 -1.7933
  157SAPE   H3Y17529  -0.008   1.581   6.756  0.1721  0.8984  0.3059
  157SAPE   C3417530  -0.166   1.713   6.747  0.0547 -0.4812  0.0931
  157SAPE   H4X17531  -0.241   1.633   6.731 -0.4431 -0.0935  0.5209
  157SAPE   H4Y17532  -0.201   1.800   6.688 -0.5125 -0.7942 -0.0326
  157SAPE   C3517533  -0.146   1.738   6.901  0.1974  0.3605 -0.3183
  157SAPE   H5X17534  -0.063   1.810   6.919  0.4385  0.5221 -1.9631
  157SAPE   H5Y17535  -0.122   1.643   6.953 -0.2458 -0.4008 -1.4921
  157SAPE   C3617536  -0.274   1.802   6.955  0.2566  0.5516  0.1519
  157SAPE   H6X17537  -0.370   1.763   6.915  0.3095  2.3986 -1.8769
  157SAPE   H6Y17538  -0.285   1.906   6.916  2.2000  0.7701  0.1180
  157SAPE   C3717539  -0.285   1.811   7.109 -0.4676  0.6695 -0.6126
  157SAPE   H7X17540  -0.201   1.871   7.148 -0.2736 -0.2140  0.3523
  157SAPE   H7Y17541  -0.282   1.708   7.151  0.1580  1.3236  0.9915
  157SAPE   C3817542  -0.423   1.854   7.162  0.3559 -0.3410  0.3035
  157SAPE   H8X17543  -0.503   1.784   7.129 -1.3963  0.5075  2.6598
  157SAPE   H8Y17544  -0.444   1.950   7.112  1.0480  0.2553  1.1442
  157SAPE   C3917545  -0.408   1.876   7.310 -0.7275  0.0686 -0.3504
  157SAPE   H9X17546  -0.498   1.925   7.352  0.8987  1.8008  1.2218
  157SAPE   H9Y17547  -0.313   1.929   7.332 -1.4050  1.2632 -0.2057
  157SAPE  C31017548  -0.395   1.749   7.393 -0.4580  1.1426 -0.3259
  157SAPE  H10X17549  -0.303   1.692   7.373 -0.9218 -0.3437  1.6285
  157SAPE  H10Y17550  -0.478   1.679   7.371  0.0332  0.4100  0.1352
  157SAPE  C31117551  -0.375   1.767   7.548  0.4290 -0.2986 -0.5836
  157SAPE  H11X17552  -0.410   1.671   7.590 -1.2873  0.9372  0.8895
  157SAPE  H11Y17553  -0.428   1.857   7.586 -1.2182 -1.4290 -0.1677
  157SAPE  C31217554  -0.229   1.773   7.588 -0.0772 -0.3571  0.8482
  157SAPE  H12X17555  -0.171   1.850   7.532 -0.4284 -0.5530  0.2087
  157SAPE  H12Y17556  -0.182   1.674   7.571  0.2758 -0.0885  0.2114
  157SAPE  C31317557  -0.219   1.829   7.739 -0.3852  0.0716  0.5219
  157SAPE  H13X17558  -0.306   1.788   7.794  0.2557 -2.6529 -0.3954
  157SAPE  H13Y17559  -0.220   1.939   7.752 -1.2936 -0.1859  2.8423
  157SAPE  C31417560  -0.092   1.771   7.798  0.0415 -0.5586 -0.0070
  157SAPE  H14X17561  -0.008   1.814   7.740 -1.1665  1.3133 -0.3871
  157SAPE  H14Y17562  -0.102   1.660   7.793 -0.9114 -0.3612 -3.8382
  157SAPE  C31517563  -0.064   1.823   7.934  0.0750  0.4010 -0.1216
  157SAPE  H15X17564  -0.049   1.932   7.916  0.6888  0.6138  1.6196
  157SAPE  H15Y17565   0.036   1.790   7.968  0.1720 -0.1765 -0.9445
  157SAPE  C31617566  -0.156   1.801   8.051  0.8049  0.0994  0.0151
  157SAPE  H16X17567  -0.160   1.694   8.079 -1.0972  1.1019  3.8204
  157SAPE  H16Y17568  -0.257   1.834   8.021 -0.2709 -1.3471  1.9729
  157SAPE  C31717569  -0.125   1.882   8.180  0.0202 -0.1924 -0.1814
  157SAPE  H17X17570  -0.114   1.988   8.149 -2.4591  0.3894  0.8076
  157SAPE  H17Y17571  -0.030   1.838   8.218 -0.4419 -0.2356  0.9447
  157SAPE  C31817572  -0.231   1.881   8.287  0.0649  0.2336  0.2072
  157SAPE  H18X17573  -0.268   1.780   8.313 -1.7730  0.7746 -0.2434
  157SAPE  H18Y17574  -0.321   1.938   8.254 -0.2720 -1.2890 -1.5571
  157SAPE  H18Z17575  -0.202   1.936   8.379  0.4635 -1.4424  1.0902
  158SAPE     N17576   1.238   6.253   6.101 -0.2865  0.1293 -0.1493
  158SAPE   HN117577   1.287   6.183   6.041 -1.3297 -1.4864  0.8497
  158SAPE   HN217578   1.215   6.209   6.192  1.3908  0.3453  0.3827
  158SAPE   HN317579   1.146   6.271   6.056 -0.5746 -2.2770 -0.6082
  158SAPE   C1217580   1.343   6.359   6.117 -0.4674  0.1213  0.0133
  158SAPE  H12A17581   1.330   6.432   6.033  1.1339  0.0450 -0.3146
  158SAPE  H12B17582   1.448   6.324   6.124 -0.5631 -0.3178 -0.7568
  158SAPE   C1117583   1.316   6.443   6.237 -0.6512 -0.4187 -0.3167
  158SAPE  H11A17584   1.212   6.482   6.231  0.2143  1.9563 -0.2998
  158SAPE  H11B17585   1.371   6.540   6.238  2.9221 -2.3577  0.1723
  158SAPE     P17586   1.487   6.386   6.428 -0.3081  0.1323 -0.0422
  158SAPE   O1317587   1.518   6.280   6.526  0.0808 -0.2627  0.0297
  158SAPE   O1417588   1.592   6.411   6.329 -0.2108  0.4529 -1.1349
  158SAPE   O1217589   1.339   6.361   6.358  0.1871  0.2426  0.6437
  158SAPE   O1117590   1.470   6.525   6.509  0.1199 -0.2385  0.0301
  158SAPE    C117591   1.360   6.546   6.597  0.8761  0.7656  0.0377
  158SAPE    HA17592   1.296   6.626   6.554  1.5809  1.3476  0.0616
  158SAPE    HB17593   1.294   6.457   6.604 -0.8306  2.0385  0.2629
  158SAPE    C217594   1.411   6.571   6.741 -0.3962  0.2986  0.1400
  158SAPE    HS17595   1.453   6.673   6.741  0.8977 -0.2218 -0.1887
  158SAPE   O2117596   1.518   6.479   6.778 -0.4754  0.1795 -0.7464
  158SAPE   C2117597   1.645   6.513   6.756  0.5722  0.2722  0.1561
  158SAPE   O2217598   1.684   6.609   6.699  0.4191 -0.3003  0.6722
  158SAPE   C2217599   1.728   6.406   6.825 -0.0780 -0.1185  0.1533
  158SAPE   H2R17600   1.708   6.309   6.775  2.7900  0.0619 -1.4488
  158SAPE   H2S17601   1.830   6.437   6.792 -0.2392 -1.1183 -1.2991
  158SAPE    C317602   1.286   6.572   6.842 -0.1103  0.4525 -0.2029
  158SAPE    HX17603   1.234   6.475   6.825  0.6599  0.0484 -0.2868
  158SAPE    HY17604   1.224   6.661   6.822  0.8438  0.7224 -2.1339
  158SAPE   O3117605   1.329   6.596   6.978  0.2892 -0.4605  0.1836
  158SAPE   C3117606   1.350   6.495   7.056  1.2691 -0.1185  0.8898
  158SAPE   O3217607   1.346   6.378   7.030 -0.0534 -0.0782  0.4336
  158SAPE   C3217608   1.364   6.549   7.201 -0.0237 -0.7703  0.1928
  158SAPE   H2X17609   1.341   6.657   7.208  0.1832 -0.6686 -0.5688
  158SAPE   H2Y17610   1.475   6.548   7.214 -0.0760 -0.1409  0.7059
  158SAPE   C2317611   1.710   6.384   6.973  0.8751  0.2935 -0.0825
  158SAPE   H3R17612   1.787   6.314   7.013  0.6652 -1.8611 -3.1952
  158SAPE   H3S17613   1.609   6.342   6.996  0.6506  0.1398 -1.3119
  158SAPE   C2417614   1.718   6.515   7.062 -0.5548 -0.7469 -0.4146
  158SAPE   H4R17615   1.682   6.493   7.165 -1.1500 -0.1243 -0.4818
  158SAPE   H4S17616   1.639   6.587   7.030 -0.8421  0.1278  2.1972
  158SAPE   C2517617   1.852   6.585   7.052 -0.0702  0.0469 -0.7243
  158SAPE   H5R17618   1.908   6.570   6.959 -0.1591  2.1255 -1.1283
  158SAPE   C2617619   1.916   6.651   7.151  0.2070 -0.0662 -0.2702
  158SAPE   H6R17620   2.020   6.681   7.136 -0.2707  2.5217  1.3531
  158SAPE   C2717621   1.846   6.695   7.278 -1.3375  0.1182 -0.5365
  158SAPE   H7R17622   1.787   6.608   7.314  1.8127 -1.1683  1.7728
  158SAPE   H7S17623   1.778   6.777   7.247 -1.8120 -0.4191 -0.9168
  158SAPE   C2817624   1.952   6.730   7.385  0.1451  0.1765 -0.3142
  158SAPE   H8R17625   2.054   6.724   7.344  0.0187 -0.4519 -0.5432
  158SAPE   C2917626   1.929   6.744   7.514 -0.1666 -0.3025  0.1917
  158SAPE   H9R17627   2.014   6.763   7.582 -0.8951 -0.7194  1.2203
  158SAPE  C21017628   1.790   6.752   7.578  0.3690 -1.0960 -0.2869
  158SAPE  H10R17629   1.764   6.663   7.640  2.4523 -1.6145 -0.1129
  158SAPE  H10S17630   1.710   6.742   7.502  2.1903 -1.1433 -2.2241
  158SAPE  C21117631   1.764   6.881   7.648  0.1695 -0.0471  0.5164
  158SAPE  H11R17632   1.778   6.973   7.590 -0.4276  0.1953  0.7498
  158SAPE  C21217633   1.730   6.894   7.778 -0.8357 -0.6189  0.1749
  158SAPE  H12R17634   1.723   6.995   7.822  1.2479 -0.2533 -0.2759
  158SAPE  C21317635   1.708   6.770   7.867 -0.1710 -0.5073 -0.1028
  158SAPE  H13R17636   1.653   6.694   7.807  0.5546 -0.6369 -0.6087
  158SAPE  H13S17637   1.639   6.800   7.950  1.8629  2.0647  0.7092
  158SAPE  C21417638   1.841   6.710   7.911  0.6797 -0.2846  0.7247
  158SAPE  H14R17639   1.929   6.744   7.854  1.0961  0.4579  1.7953
  158SAPE  C21517640   1.856   6.628   8.019  0.4302 -0.3456  1.2295
  158SAPE  H15R17641   1.957   6.599   8.053  1.6742  0.5160 -1.5634
  158SAPE  C21617642   1.744   6.588   8.105 -0.3601 -0.0223 -0.9197
  158SAPE  H16R17643   1.752   6.488   8.154 -2.6867 -1.4513 -3.2605
  158SAPE  H16S17644   1.654   6.577   8.039 -0.5422 -2.7476 -0.2849
  158SAPE  C21717645   1.698   6.689   8.214  0.2752 -0.5458 -0.0278
  158SAPE  H17R17646   1.613   6.637   8.262  0.7567 -0.9793  0.3566
  158SAPE  H17S17647   1.674   6.785   8.163 -0.1986 -1.3154 -1.2918
  158SAPE  C21817648   1.799   6.716   8.327 -0.7137  0.4341 -0.6190
  158SAPE  H18R17649   1.895   6.756   8.289 -1.1055  2.1291  0.1173
  158SAPE  H18S17650   1.843   6.623   8.368  0.8615  2.1663  1.7483
  158SAPE  C21917651   1.754   6.801   8.447 -0.7367  0.0104 -0.1223
  158SAPE  H19R17652   1.664   6.751   8.488  0.5637 -2.1069  0.2509
  158SAPE  H19S17653   1.721   6.898   8.404  1.4314  0.6469 -0.4545
  158SAPE  C22017654   1.865   6.821   8.554  0.2339 -0.0751  0.8510
  158SAPE  H20R17655   1.940   6.889   8.509 -0.2447  1.1252  1.8158
  158SAPE  H20S17656   1.902   6.721   8.587  0.8218 -0.7276 -1.6821
  158SAPE  H20T17657   1.817   6.880   8.636 -0.9572 -1.7310  1.3753
  158SAPE   C3317658   1.291   6.467   7.302 -0.3698 -0.2618  0.5346
  158SAPE   H3X17659   1.323   6.361   7.300  1.0332  0.1648 -0.8557
  158SAPE   H3Y17660   1.182   6.465   7.278 -0.1761 -2.5111 -0.2321
  158SAPE   C3417661   1.304   6.504   7.449 -0.0367 -0.3027  0.0451
  158SAPE   H4X17662   1.409   6.530   7.476  0.4083 -0.4540 -1.5212
  158SAPE   H4Y17663   1.281   6.414   7.510 -3.2792  2.0523  2.5279
  158SAPE   C3517664   1.199   6.611   7.482  0.2010 -0.0670  0.8214
  158SAPE   H5X17665   1.094   6.575   7.471  0.3174 -0.4415  0.9347
  158SAPE   H5Y17666   1.215   6.694   7.409  1.6087  3.1405  4.6425
  158SAPE   C3617667   1.209   6.666   7.626  0.3685  0.1361 -0.5207
  158SAPE   H6X17668   1.170   6.588   7.695 -0.6514 -1.2722 -2.6247
  158SAPE   H6Y17669   1.121   6.734   7.634  2.0259  2.1882  0.9025
  158SAPE   C3717670   1.341   6.726   7.662  0.7692  0.7861 -0.4071
  158SAPE   H7X17671   1.417   6.661   7.709  0.3805  0.0077 -0.8552
  158SAPE   H7Y17672   1.373   6.771   7.566 -0.9355  1.8396 -0.5092
  158SAPE   C3817673   1.323   6.843   7.766  1.3548 -0.3542  0.7271
  158SAPE   H8X17674   1.248   6.919   7.738 -0.9887 -2.4913  1.0730
  158SAPE   H8Y17675   1.419   6.899   7.762  1.0027  0.1476 -1.1822
  158SAPE   C3917676   1.307   6.792   7.907 -0.1374  0.2691  0.2318
  158SAPE   H9X17677   1.378   6.708   7.916  1.2279  1.4720  0.9164
  158SAPE   H9Y17678   1.204   6.754   7.925 -0.7828  1.1566 -1.5037
  158SAPE  C31017679   1.349   6.901   8.010  0.7251 -0.1008 -0.0931
  158SAPE  H10X17680   1.279   6.983   7.984 -0.5398 -1.3718 -0.7644
  158SAPE  H10Y17681   1.456   6.927   7.995  0.8074 -0.5743 -0.3268
  158SAPE  C31117682   1.335   6.864   8.162  0.5246 -0.3411 -0.5085
  158SAPE  H11X17683   1.432   6.826   8.200  0.7489  0.5480 -0.1662
  158SAPE  H11Y17684   1.255   6.789   8.174  0.6397 -0.5382 -0.9441
  158SAPE  C31217685   1.295   6.987   8.245 -0.2258 -1.1364  0.3364
  158SAPE  H12X17686   1.194   7.030   8.229 -1.1511 -1.7386  4.1340
  158SAPE  H12Y17687   1.377   7.060   8.228 -0.2294 -1.3924 -0.8523
  158SAPE  C31317688   1.284   6.968   8.397 -0.1212 -0.2569 -0.1220
  158SAPE  H13X17689   1.276   7.073   8.433 -0.1188 -1.0774  2.3726
  158SAPE  H13Y17690   1.381   6.930   8.436  0.0536  2.2415  1.9755
  158SAPE  C31417691   1.169   6.875   8.437  1.4619  0.4486 -0.1307
  158SAPE  H14X17692   1.182   6.771   8.401 -1.4993  1.0670 -3.1132
  158SAPE  H14Y17693   1.081   6.922   8.388 -0.2719 -1.9509  0.6082
  158SAPE  C31517694   1.150   6.883   8.590 -0.0372  0.3277 -0.1319
  158SAPE  H15X17695   1.110   6.982   8.618  0.9648  0.2128  1.7995
  158SAPE  H15Y17696   1.251   6.875   8.635 -0.0788  1.3358  0.1455
  158SAPE  C31617697   1.064   6.767   8.637 -0.6100  0.2935  0.1341
  158SAPE  H16X17698   1.088   6.679   8.574  0.6788 -0.0889  1.1588
  158SAPE  H16Y17699   0.959   6.793   8.611 -0.5944 -0.0942 -0.3157
  158SAPE  C31717700   1.074   6.746   8.788  0.0711 -0.5515 -0.0143
  158SAPE  H17X17701   1.052   6.841   8.843 -1.8808  0.1703 -1.9452
  158SAPE  H17Y17702   1.180   6.720   8.807 -0.2173 -2.2867 -0.7254
  158SAPE  C31817703   0.985   6.631   8.830  0.2225  0.0398 -0.3793
  158SAPE  H18X17704   1.013   6.538   8.775 -1.9767 -0.1319 -1.2762
  158SAPE  H18Y17705   0.878   6.661   8.821 -0.5046 -1.7031  1.9317
  158SAPE  H18Z17706   1.006   6.622   8.938  1.3605 -0.5896 -0.6511
  159SAPE     N17707   0.601   3.004   6.242 -0.2278  0.8587 -0.0638
  159SAPE   HN117708   0.571   3.102   6.227 -4.7723 -0.4763 -0.3774
  159SAPE   HN217709   0.573   2.965   6.334 -3.9841  2.6288 -0.3675
  159SAPE   HN317710   0.705   2.998   6.239 -0.3093 -0.5066 -0.6267
  159SAPE   C1217711   0.551   2.920   6.132  0.8146 -0.1538 -0.4384
  159SAPE  H12A17712   0.603   2.932   6.035  1.3421 -0.7727 -0.2378
  159SAPE  H12B17713   0.441   2.939   6.128  0.2761 -2.7930  0.5688
  159SAPE   C1117714   0.568   2.770   6.162 -0.7299 -0.0533  0.4381
  159SAPE  H11A17715   0.517   2.720   6.077 -2.1521 -0.0194  1.2546
  159SAPE  H11B17716   0.509   2.747   6.253 -0.1594  2.0645  1.3733
  159SAPE     P17717   0.730   2.577   6.207  0.1790 -0.2614  0.4128
  159SAPE   O1317718   0.616   2.488   6.193 -0.1445  0.0036  0.1223
  159SAPE   O1417719   0.850   2.527   6.136 -0.0176  0.0651  0.1404
  159SAPE   O1217720   0.709   2.734   6.176 -0.6675  0.0442  0.4594
  159SAPE   O1117721   0.771   2.585   6.358  0.2296 -0.1977 -0.3597
  159SAPE    C117722   0.865   2.679   6.399 -0.0984  0.0165 -0.7201
  159SAPE    HA17723   0.916   2.739   6.321  1.1794 -0.8282 -0.5514
  159SAPE    HB17724   0.812   2.752   6.463 -0.6793 -0.0762 -1.0886
  159SAPE    C217725   0.982   2.591   6.459 -0.0774 -1.0177 -0.4206
  159SAPE    HS17726   1.008   2.522   6.375  1.0215 -0.8333 -0.2488
  159SAPE   O2117727   0.926   2.504   6.557 -0.0578  0.0265  0.0639
  159SAPE   C2117728   0.872   2.547   6.664  0.4152  0.0340 -0.1960
  159SAPE   O2217729   0.848   2.662   6.702  0.2742  0.1479  0.4962
  159SAPE   C2217730   0.848   2.431   6.757  0.2124 -0.7928  0.2961
  159SAPE   H2R17731   0.749   2.386   6.731  0.0148 -0.8967  1.2054
  159SAPE   H2S17732   0.920   2.347   6.751  0.8115 -0.3326  1.0401
  159SAPE    C317733   1.103   2.677   6.512  0.3755 -1.0192 -0.1391
  159SAPE    HX17734   1.051   2.756   6.570 -0.6541 -1.7944  0.0089
  159SAPE    HY17735   1.148   2.727   6.424 -1.0581  0.4909 -0.0556
  159SAPE   O3117736   1.187   2.602   6.605 -0.0350 -0.0528  0.0700
  159SAPE   C3117737   1.274   2.519   6.559  0.2481 -0.3525  0.1939
  159SAPE   O3217738   1.297   2.496   6.441  0.3329  0.4308  0.4833
  159SAPE   C3217739   1.362   2.479   6.671  0.3225  0.3280 -0.4726
  159SAPE   H2X17740   1.423   2.570   6.686  0.6375  0.5882 -3.0222
  159SAPE   H2Y17741   1.435   2.399   6.643 -2.0785 -3.0817  2.5077
  159SAPE   C2317742   0.837   2.477   6.909 -0.1204 -0.0553  0.1257
  159SAPE   H3R17743   0.765   2.562   6.916 -0.7455 -0.7619  3.0122
  159SAPE   H3S17744   0.936   2.496   6.956 -1.1175  0.7047  1.9925
  159SAPE   C2417745   0.762   2.376   6.997 -0.0017 -0.7427  0.0377
  159SAPE   H4R17746   0.676   2.331   6.943 -0.6813  0.4639  0.0960
  159SAPE   H4S17747   0.721   2.416   7.092 -1.4640 -0.6591 -0.6173
  159SAPE   C2517748   0.848   2.258   7.020 -0.2181  0.5290 -0.8073
  159SAPE   H5R17749   0.849   2.188   6.935  1.9034  1.9879 -2.0455
  159SAPE   C2617750   0.911   2.227   7.133 -0.4117 -0.9883  0.1935
  159SAPE   H6R17751   0.967   2.133   7.150  2.2683 -0.1042 -3.2079
  159SAPE   C2717752   0.914   2.317   7.257  0.1045  0.7035 -0.0710
  159SAPE   H7R17753   0.852   2.268   7.335 -0.2540  0.9492 -0.1964
  159SAPE   H7S17754   0.872   2.418   7.238  0.5899  1.1047  0.9453
  159SAPE   C2817755   1.059   2.322   7.319 -0.2805 -0.0196  0.5228
  159SAPE   H8R17756   1.128   2.242   7.286  0.2051  0.1951  0.9996
  159SAPE   C2917757   1.108   2.397   7.420  0.1205 -0.3078  0.1511
  159SAPE   H9R17758   1.216   2.377   7.432  0.0301 -0.5000  0.6830
  159SAPE  C21017759   1.029   2.496   7.503  0.6822  0.3810  0.0267
  159SAPE  H10R17760   0.938   2.443   7.537 -0.6905  2.7947  0.2658
  159SAPE  H10S17761   0.995   2.581   7.440 -1.2780  1.6869  2.7670
  159SAPE  C21117762   1.090   2.557   7.628  0.7073  0.0557  0.2207
  159SAPE  H11R17763   1.180   2.621   7.621  0.8042  0.0091  1.0063
  159SAPE  C21217764   1.057   2.550   7.755  0.1067 -0.2195  0.3671
  159SAPE  H12R17765   1.107   2.620   7.824  1.6132  0.2764 -1.2122
  159SAPE  C21317766   0.941   2.468   7.813  0.1826 -0.3893 -0.7650
  159SAPE  H13R17767   0.987   2.378   7.859 -1.6925 -0.2176  1.5577
  159SAPE  H13S17768   0.865   2.450   7.733  0.2663  2.6238 -1.5795
  159SAPE  C21417769   0.865   2.531   7.925 -0.2640  0.2833  0.2230
  159SAPE  H14R17770   0.859   2.640   7.912 -1.9216  0.4478  2.1178
  159SAPE  C21517771   0.821   2.481   8.045  0.1303  0.3757  0.4967
  159SAPE  H15R17772   0.774   2.548   8.119  0.0022 -0.4989  1.2166
  159SAPE  C21617773   0.813   2.336   8.087 -0.1190  0.1919  0.0662
  159SAPE  H16R17774   0.913   2.290   8.104  1.0242  2.1462 -1.1261
  159SAPE  H16S17775   0.762   2.287   8.002  1.1340 -2.9564  1.0837
  159SAPE  C21717776   0.724   2.307   8.198  0.5874  0.7221  0.0898
  159SAPE  H17R17777   0.620   2.323   8.162  0.9495 -0.6588 -1.6468
  159SAPE  H17S17778   0.739   2.385   8.276  0.1281 -0.4330  1.3536
  159SAPE  C21817779   0.719   2.165   8.247 -0.1858 -0.0726  0.4600
  159SAPE  H18R17780   0.820   2.138   8.284  0.0683  0.8061  0.4183
  159SAPE  H18S17781   0.697   2.110   8.153 -0.3717  1.9165 -0.6785
  159SAPE  C21917782   0.616   2.128   8.353 -0.4678  0.0894  0.8795
  159SAPE  H19R17783   0.513   2.142   8.314 -0.7399  1.3544  2.0077
  159SAPE  H19S17784   0.636   2.196   8.439  2.5018 -3.0164  2.7943
  159SAPE  C22017785   0.641   1.993   8.415 -0.6265  0.0433 -0.2025
  159SAPE  H20R17786   0.744   1.996   8.455 -1.6983  3.4274  2.5326
  159SAPE  H20S17787   0.631   1.904   8.349  2.0839 -0.9257  0.6463
  159SAPE  H20T17788   0.563   1.987   8.495  0.3894 -1.3676  0.6873
  159SAPE   C3317789   1.289   2.438   6.804  0.0480  0.1966  0.3801
  159SAPE   H3X17790   1.229   2.348   6.779  0.3578  0.2199 -0.4739
  159SAPE   H3Y17791   1.213   2.514   6.831 -0.9357 -0.6537  0.0079
  159SAPE   C3417792   1.385   2.415   6.922 -0.1279  0.0027 -0.1449
  159SAPE   H4X17793   1.428   2.505   6.971  0.0962 -1.5943  2.6748
  159SAPE   H4Y17794   1.476   2.364   6.885 -0.2339 -1.6623  1.8269
  159SAPE   C3517795   1.319   2.333   7.039 -0.2736  0.0164  0.3475
  159SAPE   H5X17796   1.310   2.236   6.984  1.7981 -0.0523  0.0707
  159SAPE   H5Y17797   1.218   2.367   7.067 -0.6915 -1.8122  1.1310
  159SAPE   C3617798   1.402   2.313   7.163 -1.0495  0.3932  0.7928
  159SAPE   H6X17799   1.479   2.238   7.134 -1.5700 -0.3007  1.1858
  159SAPE   H6Y17800   1.336   2.254   7.230  0.0953 -1.1401  0.6085
  159SAPE   C3717801   1.446   2.442   7.232 -0.3040 -0.8822 -0.1236
  159SAPE   H7X17802   1.350   2.499   7.237  1.2725  2.0977 -2.2177
  159SAPE   H7Y17803   1.521   2.484   7.163  0.1446 -2.4301 -0.5835
  159SAPE   C3817804   1.509   2.432   7.367  0.0770  0.3854  0.4736
  159SAPE   H8X17805   1.614   2.397   7.368  0.1728  0.5456 -1.7832
  159SAPE   H8Y17806   1.454   2.352   7.420  0.3539 -0.0430  0.1102
  159SAPE   C3917807   1.498   2.556   7.461 -0.3519  0.0276  0.0071
  159SAPE   H9X17808   1.390   2.574   7.482 -0.0995  0.5676  0.8389
  159SAPE   H9Y17809   1.546   2.635   7.399 -2.4149  0.5939 -0.9339
  159SAPE  C31017810   1.583   2.555   7.591  0.7000  0.0292  0.0752
  159SAPE  H10X17811   1.612   2.660   7.616  0.1966  0.6968 -2.0795
  159SAPE  H10Y17812   1.679   2.500   7.584  0.7376 -0.0125  0.8467
  159SAPE  C31117813   1.508   2.495   7.711 -0.3072 -0.2556  0.0498
  159SAPE  H11X17814   1.495   2.386   7.695  3.5478 -0.4974 -2.2606
  159SAPE  H11Y17815   1.405   2.536   7.713 -0.5281 -0.8226  0.6092
  159SAPE  C31217816   1.591   2.523   7.835 -0.5069  0.9048 -0.2622
  159SAPE  H12X17817   1.613   2.632   7.834  0.9560  0.6496  2.2534
  159SAPE  H12Y17818   1.689   2.472   7.839 -0.8886  0.1543 -0.3382
  159SAPE  C31317819   1.515   2.491   7.964 -0.4415 -0.6427  0.1137
  159SAPE  H13X17820   1.582   2.514   8.050 -2.9502  1.1630  1.6790
  159SAPE  H13Y17821   1.479   2.386   7.973 -0.0835 -0.7596  0.1755
  159SAPE  C31417822   1.393   2.576   7.974 -0.9341  0.0100 -1.1180
  159SAPE  H14X17823   1.323   2.560   7.889  0.1058  0.7055 -2.1235
  159SAPE  H14Y17824   1.424   2.683   7.977 -0.4799 -0.1348 -0.6243
  159SAPE  C31517825   1.302   2.554   8.098 -0.2593 -0.5623 -0.2808
  159SAPE  H15X17826   1.265   2.449   8.095 -2.0949  0.0339  0.6037
  159SAPE  H15Y17827   1.216   2.623   8.084 -0.9196 -1.4164 -0.4917
  159SAPE  C31617828   1.368   2.586   8.231  0.3993  0.4761 -0.2206
  159SAPE  H16X17829   1.449   2.513   8.256 -0.8747 -0.7564  0.4230
  159SAPE  H16Y17830   1.284   2.566   8.301  0.8287 -0.2739  0.0918
  159SAPE  C31717831   1.406   2.733   8.249 -0.2080  0.2805  1.2023
  159SAPE  H17X17832   1.328   2.801   8.207  0.3358  0.8956  1.1875
  159SAPE  H17Y17833   1.491   2.748   8.179 -2.2070  0.0786 -1.3818
  159SAPE  C31817834   1.435   2.777   8.390 -0.3215  0.3112  0.2557
  159SAPE  H18X17835   1.465   2.883   8.403 -1.3776  0.4496  1.8577
  159SAPE  H18Y17836   1.514   2.717   8.440  0.4800 -1.4227 -2.9942
  159SAPE  H18Z17837   1.344   2.759   8.452 -0.8128 -4.9909 -1.7605
  160SAPE     N17838   1.982   0.573   6.440 -0.0383  0.2176  0.1898
  160SAPE   HN117839   1.920   0.637   6.494 -1.0586  0.1417 -0.8634
  160SAPE   HN217840   1.920   0.508   6.387  1.1627 -0.3123 -0.5795
  160SAPE   HN317841   2.028   0.512   6.511  0.6514  1.8100  1.1139
  160SAPE   C1217842   2.094   0.637   6.358  0.6018  0.1720 -0.0277
  160SAPE  H12A17843   2.043   0.708   6.289  0.9710 -0.5784 -1.0737
  160SAPE  H12B17844   2.153   0.565   6.298 -0.5400 -0.0292 -0.9319
  160SAPE   C1117845   2.184   0.723   6.452 -0.2028 -0.0903  0.5483
  160SAPE  H11A17846   2.241   0.800   6.395 -0.0892 -0.6935 -0.1582
  160SAPE  H11B17847   2.247   0.657   6.516 -0.0604 -0.6811 -0.1944
  160SAPE     P17848   2.147   0.910   6.634 -0.5184 -0.1784  0.5488
  160SAPE   O1317849   2.252   0.991   6.574  0.1572 -0.1663  0.0290
  160SAPE   O1417850   2.042   0.996   6.688  0.2890 -0.2403 -0.4788
  160SAPE   O1217851   2.089   0.794   6.532 -0.2716 -0.1421 -0.6438
  160SAPE   O1117852   2.217   0.834   6.748 -1.0448 -0.1486  0.1753
  160SAPE    C117853   2.175   0.720   6.819  0.2945  0.2194  0.0411
  160SAPE    HA17854   2.141   0.641   6.748  0.3303  1.5653 -1.5232
  160SAPE    HB17855   2.249   0.670   6.885 -0.0875  1.7195  1.6263
  160SAPE    C217856   2.063   0.753   6.934  0.1833  0.1426  0.7709
  160SAPE    HS17857   1.992   0.826   6.890 -1.1125 -1.2489  0.5118
  160SAPE   O2117858   2.131   0.794   7.055  0.3042 -0.0123 -0.0988
  160SAPE   C2117859   2.125   0.928   7.082  0.4837  0.4117  0.0656
  160SAPE   O2217860   2.061   1.014   7.028  1.2205  0.3781 -0.5613
  160SAPE   C2217861   2.203   0.957   7.208  0.3696 -0.3367  0.7260
  160SAPE   H2R17862   2.266   0.867   7.229  2.3218  0.7920 -0.1864
  160SAPE   H2S17863   2.265   1.048   7.191  0.7762 -0.8166 -0.3757
  160SAPE    C317864   1.978   0.623   6.969  0.2831 -0.4447  0.3192
  160SAPE    HX17865   2.046   0.541   7.001 -1.1119 -1.6035  0.3453
  160SAPE    HY17866   1.934   0.588   6.873 -3.0130  1.3200  1.1451
  160SAPE   O3117867   1.883   0.651   7.070  0.5206  0.4368 -0.3592
  160SAPE   C3117868   1.754   0.614   7.051 -0.7052  0.0435 -0.2007
  160SAPE   O3217869   1.713   0.558   6.953  0.3210  0.1624  0.5296
  160SAPE   C3217870   1.674   0.646   7.170  0.3452 -0.1114  0.2386
  160SAPE   H2X17871   1.736   0.641   7.262 -0.0689 -1.4214  0.4634
  160SAPE   H2Y17872   1.588   0.576   7.180 -0.1055  0.4114  0.0335
  160SAPE   C2317873   2.122   0.983   7.336  0.4543 -0.6183  0.7554
  160SAPE   H3R17874   2.049   1.067   7.328  0.6797 -0.5411 -0.6049
  160SAPE   H3S17875   2.202   1.005   7.410  0.5185  0.5039  0.3701
  160SAPE   C2417876   2.043   0.864   7.392  0.7687 -0.0547 -0.1908
  160SAPE   H4R17877   1.956   0.850   7.324  0.1648  0.6760  0.4235
  160SAPE   H4S17878   1.993   0.897   7.486 -0.1958 -1.4354 -0.2040
  160SAPE   C2517879   2.130   0.743   7.412 -0.5044  0.0917  0.4140
  160SAPE   H5R17880   2.147   0.684   7.321 -3.7673  0.7565 -0.7065
  160SAPE   C2617881   2.172   0.699   7.529 -0.0721 -0.0199 -0.0299
  160SAPE   H6R17882   2.244   0.615   7.528  0.7076  0.6548 -1.8411
  160SAPE   C2717883   2.147   0.761   7.664 -0.6941  0.0586 -0.4380
  160SAPE   H7R17884   2.043   0.727   7.682 -1.0463 -0.1243 -2.7519
  160SAPE   H7S17885   2.148   0.872   7.670  2.9292  0.0433  0.8343
  160SAPE   C2817886   2.237   0.720   7.779  0.1773 -0.1948  0.5116
  160SAPE   H8R17887   2.335   0.683   7.746  0.1798  1.2512 -1.1676
  160SAPE   C2917888   2.214   0.736   7.908  0.1173 -0.4883 -0.3052
  160SAPE   H9R17889   2.286   0.687   7.975  0.5088  1.7399  0.9448
  160SAPE  C21017890   2.090   0.793   7.971  0.1451 -0.8032 -0.2738
  160SAPE  H10R17891   2.063   0.735   8.062 -1.5747 -1.4425 -1.1742
  160SAPE  H10S17892   2.006   0.782   7.900 -0.3777  1.7406 -0.0724
  160SAPE  C21117893   2.113   0.941   8.010 -0.4185 -0.0344 -0.2276
  160SAPE  H11R17894   2.121   1.000   7.917  2.0279  0.1590  0.0845
  160SAPE  C21217895   2.143   0.994   8.131 -0.3090 -0.3298  0.5659
  160SAPE  H12R17896   2.179   1.097   8.146 -0.9900  0.2189 -1.4087
  160SAPE  C21317897   2.150   0.921   8.261 -0.5977 -0.2727 -0.5271
  160SAPE  H13R17898   2.108   0.819   8.245  0.7432 -0.7369 -1.1061
  160SAPE  H13S17899   2.092   0.969   8.343 -0.5699 -0.2394 -0.5267
  160SAPE  C21417900   2.292   0.895   8.300  0.8403 -0.9373 -0.5145
  160SAPE  H14R17901   2.338   0.844   8.215 -1.9422 -2.3677 -1.2492
  160SAPE  C21517902   2.369   0.912   8.408  0.2003 -0.7297 -0.1790
  160SAPE  H15R17903   2.472   0.873   8.409  0.0495 -1.1332 -0.3247
  160SAPE  C21617904   2.330   0.965   8.541 -0.2156 -0.3676 -0.0487
  160SAPE  H16R17905   2.221   0.985   8.544 -0.0551  0.3209  2.0877
  160SAPE  H16S17906   2.380   1.061   8.567  2.0593 -1.4319 -0.4160
  160SAPE  C21717907   2.385   0.865   8.650 -0.6882  0.5141  0.8877
  160SAPE  H17R17908   2.380   0.923   8.745 -0.5000  1.1367  0.5195
  160SAPE  H17S17909   2.493   0.838   8.640 -0.6726 -0.3596  3.0272
  160SAPE  C21817910   2.297   0.743   8.671  0.4805 -0.9196  0.2922
  160SAPE  H18R17911   2.278   0.693   8.573  0.7055 -0.0867 -0.1731
  160SAPE  H18S17912   2.204   0.781   8.720  1.2544  0.7478  0.4787
  160SAPE  C21917913   2.362   0.646   8.769  0.7147 -0.0348  0.3055
  160SAPE  H19R17914   2.348   0.683   8.873  1.6348 -0.9094  0.7570
  160SAPE  H19S17915   2.469   0.633   8.741  0.3747 -2.2155 -0.0991
  160SAPE  C22017916   2.292   0.504   8.754 -0.2627 -0.4963  0.1475
  160SAPE  H20R17917   2.332   0.432   8.829  3.8094 -0.2019 -1.6033
  160SAPE  H20S17918   2.317   0.454   8.658 -1.4412 -0.1131 -0.3723
  160SAPE  H20T17919   2.182   0.513   8.765 -0.4663  0.6394 -2.5817
  160SAPE   C3317920   1.606   0.788   7.155  0.1155  0.5693  0.0248
  160SAPE   H3X17921   1.552   0.808   7.060  1.5952  1.8942 -0.5559
  160SAPE   H3Y17922   1.672   0.874   7.179 -0.5619  1.0661  0.1389
  160SAPE   C3417923   1.501   0.796   7.270  0.0435  0.4156 -0.1260
  160SAPE   H4X17924   1.445   0.700   7.269 -0.5171  0.7122  1.6991
  160SAPE   H4Y17925   1.441   0.886   7.245  0.3750  0.5150 -0.5659
  160SAPE   C3517926   1.574   0.816   7.401 -0.0049 -0.5698  0.4202
  160SAPE   H5X17927   1.659   0.888   7.402 -0.5623  0.0748  2.1089
  160SAPE   H5Y17928   1.606   0.713   7.424 -1.4537 -1.7723 -2.6187
  160SAPE   C3617929   1.479   0.859   7.509  0.3964 -0.5052 -0.0844
  160SAPE   H6X17930   1.387   0.796   7.511  1.1280 -1.5383  2.7679
  160SAPE   H6Y17931   1.439   0.958   7.478 -0.2026 -1.2682 -1.8042
  160SAPE   C3717932   1.564   0.878   7.641 -0.0013  0.0944 -1.0700
  160SAPE   H7X17933   1.655   0.937   7.618  0.5827 -0.6597 -0.6986
  160SAPE   H7Y17934   1.602   0.786   7.690  1.5960  2.0468  1.5302
  160SAPE   C3817935   1.484   0.954   7.748 -0.0863 -0.1902  0.2345
  160SAPE   H8X17936   1.376   0.927   7.738 -0.1150  0.3699 -1.0682
  160SAPE   H8Y17937   1.494   1.064   7.740 -1.2289  0.0492  1.7418
  160SAPE   C3917938   1.532   0.922   7.895 -0.6914  0.0555  0.1638
  160SAPE   H9X17939   1.541   0.813   7.918  0.1179  0.3299  1.2266
  160SAPE   H9Y17940   1.455   0.951   7.970  0.5160  2.3963  0.5579
  160SAPE  C31017941   1.669   0.985   7.932  0.3322 -0.2452  0.5624
  160SAPE  H10X17942   1.653   1.095   7.932 -0.2279 -0.3252  1.0119
  160SAPE  H10Y17943   1.741   0.956   7.852 -0.3924 -0.2793 -0.0758
  160SAPE  C31117944   1.721   0.930   8.065  0.2580  0.1644  0.5236
  160SAPE  H11X17945   1.831   0.917   8.060  0.4188  1.0463  1.5722
  160SAPE  H11Y17946   1.687   0.828   8.092  4.1167 -1.6016 -0.8256
  160SAPE  C31217947   1.687   1.022   8.177 -0.0716  0.7351  0.1286
  160SAPE  H12X17948   1.580   1.009   8.204 -0.3708 -1.6914 -2.1494
  160SAPE  H12Y17949   1.705   1.130   8.154  0.8534  0.5037 -0.2752
  160SAPE  C31317950   1.772   0.997   8.301  0.0581 -0.4361 -0.9746
  160SAPE  H13X17951   1.751   1.082   8.370 -2.9857  0.6936 -3.1687
  160SAPE  H13Y17952   1.882   0.993   8.284  0.3317  1.4586  0.0940
  160SAPE  C31417953   1.740   0.876   8.388 -0.0342 -0.1903  0.5090
  160SAPE  H14X17954   1.771   0.799   8.314  1.6737 -0.9273  1.9690
  160SAPE  H14Y17955   1.631   0.880   8.411 -0.1179  2.8251 -0.1597
  160SAPE  C31517956   1.842   0.854   8.502  0.4564  0.6713 -0.1786
  160SAPE  H15X17957   1.807   0.920   8.584 -0.2385  0.3218 -0.1925
  160SAPE  H15Y17958   1.943   0.884   8.465  0.8540 -0.4254 -0.0072
  160SAPE  C31617959   1.846   0.706   8.550 -0.8917  0.0276  0.6944
  160SAPE  H16X17960   1.938   0.688   8.608 -1.8603  1.6750  2.7979
  160SAPE  H16Y17961   1.842   0.634   8.465 -0.6867 -2.0734  2.4463
  160SAPE  C31717962   1.714   0.659   8.623 -0.0916  0.4986  0.3854
  160SAPE  H17X17963   1.646   0.745   8.603  1.4531  1.5456 -0.4723
  160SAPE  H17Y17964   1.732   0.675   8.731 -0.8271 -0.0068  0.5917
  160SAPE  C31817965   1.657   0.517   8.601 -0.5150 -0.0135 -0.0726
  160SAPE  H18X17966   1.632   0.495   8.495  0.7921 -0.8424 -0.2208
  160SAPE  H18Y17967   1.570   0.502   8.669 -1.4648 -0.1661 -1.2979
  160SAPE  H18Z17968   1.731   0.445   8.640  1.3209  2.1950  0.6204
  161SOPE     N17969   0.952   3.749  10.271  0.1141  0.0230  0.1092
  161SOPE   HN117970   0.952   3.679  10.347  0.8854  0.3424  0.4101
  161SOPE   HN217971   1.032   3.725  10.209 -0.7472 -0.0287 -1.0039
  161SOPE   HN317972   0.958   3.844  10.314  1.2039 -0.3246  0.7202
  161SOPE   C1217973   0.831   3.753  10.183 -0.0398 -0.2352 -0.0396
  161SOPE  H12A17974   0.831   3.662  10.119  2.8872 -0.5891  0.4012
  161SOPE  H12B17975   0.847   3.838  10.114 -0.2821 -2.5386 -3.0384
  161SOPE   C1117976   0.711   3.771  10.272 -0.4267 -0.3030 -0.6151
  161SOPE  H11A17977   0.623   3.761  10.206  0.2046 -1.3701 -1.3031
  161SOPE  H11B17978   0.717   3.878  10.299  2.0702 -0.4813 -0.3470
  161SOPE     P17979   0.566   3.685  10.462 -0.0886 -0.1096 -0.1069
  161SOPE   O1317980   0.512   3.825  10.463 -0.2633 -0.4909  0.0143
  161SOPE   O1417981   0.584   3.620  10.590  0.0784  0.2870 -0.0827
  161SOPE   O1217982   0.705   3.684  10.390  0.8940 -0.0033  0.2576
  161SOPE   O1117983   0.481   3.590  10.372  0.1625  0.7886 -0.2459
  161SOPE    C117984   0.536   3.476  10.306  0.3045  0.3910  0.5606
  161SOPE    HA17985   0.459   3.395  10.310 -0.2348  0.7576 -1.5960
  161SOPE    HB17986   0.630   3.436  10.350  1.4670  1.3637 -0.9658
  161SOPE    C217987   0.547   3.497  10.148 -0.1171 -0.2433  0.8629
  161SOPE    HS17988   0.630   3.571  10.146  1.6511 -2.1977 -0.8694
  161SOPE   O2117989   0.427   3.545  10.097 -0.0498 -0.2423  0.2904
  161SOPE   C2117990   0.428   3.645  10.003  0.3804  0.4010 -0.9820
  161SOPE   O2217991   0.529   3.702   9.977 -0.0487  0.2182 -0.7119
  161SOPE   C2217992   0.295   3.674   9.937  0.9315 -0.8427  0.1151
  161SOPE   H2R17993   0.221   3.688  10.019  0.3982  0.6953 -0.6175
  161SOPE   H2S17994   0.265   3.583   9.881  2.2109  1.1367 -3.9701
  161SOPE    C317995   0.604   3.370  10.086 -0.0317  0.2916 -0.6250
  161SOPE    HX17996   0.524   3.294  10.102 -0.8544  1.1956 -0.3770
  161SOPE    HY17997   0.704   3.349  10.129  0.9205  2.4305 -1.7571
  161SOPE   O3117998   0.611   3.380   9.942  0.6736  0.1152 -0.9668
  161SOPE   C3117999   0.717   3.444   9.898 -0.2836  0.0883 -0.3541
  161SOPE   O3218000   0.810   3.493   9.961 -0.0139 -0.1406 -0.2630
  161SOPE   C3218001   0.711   3.429   9.740  0.0103 -0.2322  0.3225
  161SOPE   H2X18002   0.608   3.399   9.711 -0.0504  0.5740 -0.3103
  161SOPE   H2Y18003   0.785   3.347   9.724 -0.2136 -0.3485 -0.1195
  161SOPE   C2318004   0.292   3.790   9.837 -0.5079 -0.0899  0.4578
  161SOPE   H3R18005   0.368   3.779   9.756 -0.1400 -1.7151  0.9914
  161SOPE   H3S18006   0.305   3.889   9.885 -1.4303  0.2389  0.0263
  161SOPE   C2418007   0.153   3.804   9.763  0.7882  0.4955  0.0316
  161SOPE   H4R18008   0.116   3.711   9.715 -3.3180  1.6611  0.6996
  161SOPE   H4S18009   0.068   3.831   9.830  0.5493  2.5481 -1.0570
  161SOPE   C2518010   0.162   3.916   9.659 -0.7326 -0.5773  0.7870
  161SOPE   H5R18011   0.068   3.937   9.602  1.2464  3.5137 -1.1403
  161SOPE   H5S18012   0.176   4.014   9.709 -1.1838  0.3521 -0.8682
  161SOPE   C2618013   0.274   3.900   9.558  0.6289  0.5489 -0.1309
  161SOPE   H6R18014   0.373   3.907   9.607  2.0503 -1.8996 -2.5274
  161SOPE   H6S18015   0.274   3.801   9.509 -2.1374  0.3836  0.0969
  161SOPE   C2718016   0.254   4.000   9.442  0.2753 -0.5905 -0.4885
  161SOPE   H7R18017   0.197   4.088   9.478  0.7777 -0.6192  0.3984
  161SOPE   H7S18018   0.348   4.044   9.402 -1.6064  2.5198 -1.6494
  161SOPE   C2818019   0.176   3.934   9.329 -0.4872 -0.0069  0.3395
  161SOPE   H8R18020   0.253   3.865   9.288  0.4657  0.3892  1.4154
  161SOPE   H8S18021   0.099   3.873   9.380 -0.1505  1.5205  2.7634
  161SOPE   C2918022   0.112   4.024   9.227  0.8615  0.8408  0.0265
  161SOPE   H9118023   0.036   4.093   9.265  2.4082  0.0996  4.7683
  161SOPE  C21018024   0.138   4.021   9.093 -0.8043  0.5946 -0.2813
  161SOPE  H10118025   0.093   4.093   9.023 -3.1170  1.6141  2.1412
  161SOPE  C21118026   0.232   3.926   9.017 -0.6216 -0.0684 -0.4299
  161SOPE  H11R18027   0.263   3.836   9.074 -0.8097  0.1221 -0.0235
  161SOPE  H11S18028   0.322   3.987   8.996 -1.6302  1.3183 -0.7927
  161SOPE  C21218029   0.183   3.859   8.886  0.1313 -0.0841  0.3418
  161SOPE  H12R18030   0.151   3.931   8.809  1.8271 -0.3828 -0.6519
  161SOPE  H12S18031   0.101   3.793   8.923  1.2631 -1.6872  0.0813
  161SOPE  C21318032   0.292   3.779   8.826  0.4393  0.6469  0.1640
  161SOPE  H13R18033   0.335   3.712   8.904  1.0564  1.4159  0.5015
  161SOPE  H13S18034   0.378   3.839   8.789  0.0908  0.9115 -0.2246
  161SOPE  C21418035   0.254   3.705   8.698 -0.1131 -0.1967 -0.2669
  161SOPE  H14R18036   0.227   3.764   8.608 -2.6150  0.2881  0.7635
  161SOPE  H14S18037   0.174   3.632   8.724 -0.8190  1.2134  1.6283
  161SOPE  C21518038   0.363   3.605   8.660 -0.3107  0.8451  0.0372
  161SOPE  H15R18039   0.355   3.508   8.713  1.8387 -1.8419 -4.3239
  161SOPE  H15S18040   0.463   3.648   8.683 -1.2592  3.1672 -0.0674
  161SOPE  C21618041   0.366   3.567   8.516  0.1096 -0.4536  0.4598
  161SOPE  H16R18042   0.411   3.649   8.456 -0.3098  0.5573  1.5110
  161SOPE  H16S18043   0.266   3.542   8.476 -0.1447  0.0142  0.8006
  161SOPE  C21718044   0.460   3.445   8.485 -0.4139  0.0674 -0.2812
  161SOPE  H17R18045   0.412   3.353   8.523 -0.0794 -0.3305 -0.8135
  161SOPE  H17S18046   0.556   3.447   8.540  0.8043 -1.7002 -2.2823
  161SOPE  C21818047   0.503   3.441   8.338 -0.0160 -0.7861  0.1484
  161SOPE  H18R18048   0.559   3.532   8.307 -1.3789 -0.3559 -1.0909
  161SOPE  H18S18049   0.427   3.449   8.257 -0.2245 -0.8433  0.3387
  161SOPE  H18T18050   0.564   3.350   8.316  2.3314  1.4011 -2.7897
  161SOPE   C3318051   0.757   3.543   9.650 -0.7135 -0.2288 -0.1363
  161SOPE   H3X18052   0.704   3.635   9.683 -0.0195  0.6229 -1.3571
  161SOPE   H3Y18053   0.731   3.522   9.544  5.5267 -0.0077 -1.8800
  161SOPE   C3418054   0.908   3.571   9.658 -1.1458 -0.3391  0.0248
  161SOPE   H4X18055   0.968   3.482   9.628  2.6018  2.1600 -0.3287
  161SOPE   H4Y18056   0.947   3.594   9.759  0.1365 -0.0695 -0.5108
  161SOPE   C3518057   0.945   3.688   9.560  0.4369  0.6249 -0.1407
  161SOPE   H5X18058   1.056   3.693   9.567  0.4710 -2.3147  2.4412
  161SOPE   H5Y18059   0.905   3.786   9.592 -0.0604  0.4012 -0.0663
  161SOPE   C3618060   0.917   3.671   9.409  0.4177  0.6610 -0.5555
  161SOPE   H6X18061   0.807   3.665   9.396  0.3210  0.6759  0.2042
  161SOPE   H6Y18062   0.971   3.581   9.372  2.6258  1.4213  0.7006
  161SOPE   C3718063   0.969   3.790   9.329 -0.1706 -0.8568 -0.3843
  161SOPE   H7X18064   1.080   3.782   9.331 -0.1638 -0.7806 -0.5000
  161SOPE   H7Y18065   0.931   3.887   9.366 -1.2734 -1.2724 -0.3896
  161SOPE   C3818066   0.947   3.775   9.178  0.0593  0.3720 -0.6819
  161SOPE   H8X18067   0.943   3.667   9.153  0.0446  0.7241 -2.2457
  161SOPE   H8Y18068   1.038   3.822   9.135  0.2701 -0.3879 -1.0726
  161SOPE   C3918069   0.821   3.848   9.130 -0.9535 -0.2445 -0.6141
  161SOPE   H9X18070   0.833   3.955   9.158 -0.2267 -0.9159  1.7384
  161SOPE   H9Y18071   0.741   3.810   9.197 -0.3066 -1.1253 -0.3347
  161SOPE  C31018072   0.785   3.813   8.984  0.1464  0.2383  0.6823
  161SOPE  H10X18073   0.877   3.827   8.923  1.0158 -1.2452  1.6083
  161SOPE  H10Y18074   0.708   3.884   8.946 -3.4170 -2.1750  3.0941
  161SOPE  C31118075   0.725   3.678   8.982  0.2334  0.0301 -0.1379
  161SOPE  H11X18076   0.631   3.686   9.040  1.3098 -0.6681  1.7585
  161SOPE  H11Y18077   0.792   3.597   9.019 -1.3585 -1.6922 -0.9076
  161SOPE  C31218078   0.681   3.637   8.839  0.2980 -0.0670 -0.1214
  161SOPE  H12X18079   0.595   3.699   8.806 -0.5178 -1.2824 -0.3175
  161SOPE  H12Y18080   0.639   3.535   8.855 -0.1418 -0.4204 -3.1059
  161SOPE  C31318081   0.785   3.630   8.723 -0.2780 -0.1807  0.1694
  161SOPE  H13X18082   0.850   3.721   8.726  1.0911 -1.1663  0.8742
  161SOPE  H13Y18083   0.726   3.635   8.629 -0.3356 -0.4364  0.1938
  161SOPE  C31418084   0.867   3.506   8.738 -0.1515  0.4335  0.4442
  161SOPE  H14X18085   0.794   3.423   8.730  1.8702 -1.3265 -0.1175
  161SOPE  H14Y18086   0.923   3.501   8.834  1.6729 -1.2801 -0.6671
  161SOPE  C31518087   0.968   3.473   8.628 -0.1695  0.4974  0.5656
  161SOPE  H15X18088   1.047   3.408   8.671 -0.6439  0.3850  1.2609
  161SOPE  H15Y18089   1.015   3.572   8.604  0.2061  0.0046 -0.8149
  161SOPE  C31618090   0.906   3.407   8.509 -1.0230  0.6214  0.7607
  161SOPE  H16X18091   0.839   3.485   8.466  0.0639  0.0835 -2.0072
  161SOPE  H16Y18092   0.859   3.307   8.517 -1.8930  0.8841 -0.7332
  161SOPE  C31718093   1.008   3.375   8.395 -0.0294 -0.3686  0.4130
  161SOPE  H17X18094   1.094   3.335   8.452 -0.7175  1.8687  3.1601
  161SOPE  H17Y18095   1.037   3.476   8.358  1.3262 -0.8520  0.1513
  161SOPE  C31818096   0.961   3.281   8.280  0.2591  0.2592  0.3748
  161SOPE  H18X18097   0.984   3.172   8.289  2.2148  0.3079 -3.1856
  161SOPE  H18Y18098   1.010   3.319   8.188  2.0659  1.5989  1.8563
  161SOPE  H18Z18099   0.851   3.295   8.271 -0.2186 -1.6644  2.5855
  162SOPE     N18100   6.348   3.107  10.863  0.0969  0.4522  0.3847
  162SOPE   HN118101   6.317   3.151  10.774 -1.6618 -0.7874  0.3505
  162SOPE   HN218102   6.433   3.150  10.905  1.8490 -0.1085 -2.4454
  162SOPE   HN318103   6.369   3.008  10.837  1.1549  1.1091 -1.3892
  162SOPE   C1218104   6.239   3.111  10.961  0.1181 -0.0461 -0.2969
  162SOPE  H12A18105   6.224   3.219  10.984 -0.7254  0.0692 -1.3274
  162SOPE  H12B18106   6.283   3.057  11.048  0.8817 -0.6747 -1.0641
  162SOPE   C1118107   6.108   3.057  10.904 -0.0211  0.6199 -0.1499
  162SOPE  H11A18108   6.099   2.948  10.923  0.6063  0.1061 -2.6330
  162SOPE  H11B18109   6.099   3.072  10.794 -1.9183  0.9974  0.0355
  162SOPE     P18110   5.928   3.244  10.915  0.2561  0.2769 -0.5146
  162SOPE   O1318111   6.025   3.321  10.841 -0.0546 -0.3465  0.6782
  162SOPE   O1418112   5.856   3.316  11.024 -0.2484  0.4226  0.0481
  162SOPE   O1218113   5.989   3.110  10.972 -0.2567  0.5089  0.4245
  162SOPE   O1118114   5.820   3.204  10.798 -0.1063  0.3757  0.4884
  162SOPE    C118115   5.774   3.069  10.782  1.3585  0.1407 -0.8179
  162SOPE    HA18116   5.778   3.014  10.878 -2.1246  2.5274  0.7739
  162SOPE    HB18117   5.838   3.013  10.710  1.6538 -1.1808  0.4546
  162SOPE    C218118   5.626   3.068  10.747 -0.0684  0.5892  0.2832
  162SOPE    HS18119   5.598   2.964  10.720  1.3494  0.8806 -2.5336
  162SOPE   O2118120   5.597   3.143  10.632 -0.3195 -0.6503  0.1826
  162SOPE   C2118121   5.651   3.106  10.518 -0.6663 -0.0946 -0.5751
  162SOPE   O2218122   5.727   3.015  10.504  0.5163  0.8094 -0.1156
  162SOPE   C2218123   5.593   3.190  10.399 -0.3501 -0.2934  0.1222
  162SOPE   H2R18124   5.491   3.234  10.412  0.8548  3.8839 -3.1828
  162SOPE   H2S18125   5.574   3.114  10.321 -2.2929 -0.0229  0.3082
  162SOPE    C318126   5.541   3.124  10.864 -0.6720  0.3507  0.5450
  162SOPE    HX18127   5.561   3.230  10.892 -2.3195  0.9967 -0.6579
  162SOPE    HY18128   5.553   3.068  10.959 -0.2333  1.4234  1.1318
  162SOPE   O3118129   5.405   3.145  10.823 -0.2433  0.3435 -0.6120
  162SOPE   C3118130   5.325   3.042  10.832 -0.1667 -0.1180 -0.3407
  162SOPE   O3218131   5.357   2.934  10.883 -0.3745 -0.3573  0.6013
  162SOPE   C3218132   5.186   3.086  10.789 -0.4295 -0.1234 -0.1979
  162SOPE   H2X18133   5.195   3.174  10.723  0.9993 -0.4873 -0.5015
  162SOPE   H2Y18134   5.129   3.119  10.879  0.4322  2.5093 -0.5785
  162SOPE   C2318135   5.698   3.292  10.337 -0.5375  0.1987  0.1071
  162SOPE   H3R18136   5.751   3.346  10.418 -0.5388  0.4123 -0.0311
  162SOPE   H3S18137   5.644   3.368  10.275  0.5900  1.9822  1.2623
  162SOPE   C2418138   5.798   3.220  10.241  0.2059  0.4812 -0.6421
  162SOPE   H4R18139   5.834   3.124  10.284 -1.5855 -0.9406 -2.2303
  162SOPE   H4S18140   5.738   3.184  10.154  0.3831  1.1487 -1.0381
  162SOPE   C2518141   5.907   3.303  10.181 -0.3171  0.2697 -0.2732
  162SOPE   H5R18142   5.887   3.411  10.164 -0.2000  0.3727  0.2629
  162SOPE   H5S18143   5.995   3.299  10.248 -1.2237 -0.2386  0.8883
  162SOPE   C2618144   5.947   3.246  10.040  0.1697 -0.7935 -0.6092
  162SOPE   H6R18145   5.974   3.138  10.043  0.1977 -0.7570  1.3684
  162SOPE   H6S18146   5.875   3.267   9.959 -0.9425 -0.0435  0.5493
  162SOPE   C2718147   6.089   3.301  10.008 -0.1633 -0.3561 -0.1962
  162SOPE   H7R18148   6.079   3.412  10.014 -1.9996 -0.4646 -0.8454
  162SOPE   H7S18149   6.163   3.259  10.079 -2.3618 -0.4556  2.1044
  162SOPE   C2818150   6.133   3.261   9.863 -0.2213 -0.9615  0.2961
  162SOPE   H8R18151   6.162   3.154   9.857 -1.0518 -1.2734  1.7613
  162SOPE   H8S18152   6.048   3.279   9.793  2.2754  0.6335 -2.4366
  162SOPE   C2918153   6.252   3.350   9.824 -0.5672 -0.5240  1.2411
  162SOPE   H9118154   6.222   3.455   9.810 -0.3536 -1.0731 -4.3868
  162SOPE  C21018155   6.375   3.310   9.793 -0.2303  0.3807  0.1843
  162SOPE  H10118156   6.449   3.384   9.760 -0.2266 -0.0383 -0.7592
  162SOPE  C21118157   6.427   3.163   9.800 -0.3109 -0.4466  0.7538
  162SOPE  H11R18158   6.356   3.105   9.738  2.2071 -2.8746  0.0286
  162SOPE  H11S18159   6.420   3.137   9.908 -1.4863 -2.1072  0.2988
  162SOPE  C21218160   6.564   3.120   9.743  0.5160 -0.0477 -0.0378
  162SOPE  H12R18161   6.575   3.012   9.768  2.2535 -0.6511 -3.2114
  162SOPE  H12S18162   6.647   3.170   9.798  1.8237 -1.3875 -0.7619
  162SOPE  C21318163   6.578   3.127   9.585 -0.3777  0.4949  0.1292
  162SOPE  H13R18164   6.568   3.231   9.547  1.5685  0.3234 -0.9110
  162SOPE  H13S18165   6.495   3.069   9.538  0.8905 -0.8521 -0.5174
  162SOPE  C21418166   6.714   3.073   9.525  1.0439  1.0722 -0.1927
  162SOPE  H14R18167   6.709   2.962   9.520 -3.4289  1.2290 -0.9807
  162SOPE  H14S18168   6.801   3.112   9.582  0.6953  2.2619 -0.4443
  162SOPE  C21518169   6.725   3.111   9.380 -0.2747  0.1639  0.2714
  162SOPE  H15R18170   6.829   3.134   9.349  0.1579 -3.1413 -0.9178
  162SOPE  H15S18171   6.659   3.195   9.350  0.1740  0.5162  0.2698
  162SOPE  C21618172   6.692   3.004   9.278 -0.4685 -0.0005  0.8258
  162SOPE  H16R18173   6.586   2.972   9.285 -0.4750 -0.4439 -0.8509
  162SOPE  H16S18174   6.760   2.918   9.292  0.4118  0.2383 -1.6877
  162SOPE  C21718175   6.732   3.062   9.142  0.6915  0.7000 -0.0229
  162SOPE  H17R18176   6.843   3.072   9.146  0.8177 -1.1521  1.8603
  162SOPE  H17S18177   6.689   3.164   9.135  0.9361  0.8967  1.1873
  162SOPE  C21818178   6.680   2.978   9.023 -0.6458 -0.5469  0.6077
  162SOPE  H18R18179   6.716   3.037   8.935  0.7439  1.7463  2.6369
  162SOPE  H18S18180   6.569   2.977   9.019 -0.7525  1.6780  1.9989
  162SOPE  H18T18181   6.718   2.874   9.013  1.5643  0.1473  1.4164
  162SOPE   C3318182   5.114   2.968  10.724 -0.7277  0.5089 -0.2051
  162SOPE   H3X18183   5.004   2.982  10.719 -0.9559 -0.8312  0.8480
  162SOPE   H3Y18184   5.130   2.877  10.785  0.6400 -0.3087 -1.7045
  162SOPE   C3418185   5.167   2.926  10.581 -0.1776 -0.3532 -0.0965
  162SOPE   H4X18186   5.128   2.826  10.553  1.3719 -0.6826 -1.1677
  162SOPE   H4Y18187   5.276   2.904  10.588  0.3605  1.7735 -1.1066
  162SOPE   C3518188   5.127   3.032  10.475 -0.4356 -0.2654  0.7986
  162SOPE   H5X18189   5.141   3.130  10.525  3.1070  1.2405 -2.8492
  162SOPE   H5Y18190   5.021   3.028  10.443 -0.6874 -0.1158  1.6104
  162SOPE   C3618191   5.220   3.022  10.355  0.2582 -0.3052  0.1383
  162SOPE   H6X18192   5.186   2.932  10.298 -0.2698 -1.0029  1.5177
  162SOPE   H6Y18193   5.326   3.006  10.386  0.6117  3.1934  0.8452
  162SOPE   C3718194   5.210   3.155  10.274 -0.5403 -0.3434 -0.3198
  162SOPE   H7X18195   5.244   3.235  10.343 -0.2157 -0.3358 -0.4878
  162SOPE   H7Y18196   5.105   3.163  10.238  0.0826 -1.0228 -2.4050
  162SOPE   C3818197   5.304   3.151  10.144  0.6684  0.2997 -0.0907
  162SOPE   H8X18198   5.259   3.073  10.080  2.1152  0.3397 -1.1846
  162SOPE   H8Y18199   5.406   3.120  10.177  1.1159 -0.4784 -2.1545
  162SOPE   C3918200   5.324   3.296  10.085  0.7439  0.6139 -0.4513
  162SOPE   H9X18201   5.368   3.349  10.173 -0.5784  1.1172 -0.0889
  162SOPE   H9Y18202   5.220   3.330  10.071  0.6451  0.6780  0.3704
  162SOPE  C31018203   5.406   3.306   9.955  0.1900 -0.8859 -0.1301
  162SOPE  H10X18204   5.395   3.412   9.925 -2.1707 -0.6555  1.4086
  162SOPE  H10Y18205   5.347   3.251   9.878 -0.8580  0.1861 -0.1125
  162SOPE  C31118206   5.542   3.244   9.959  0.4260 -0.0676  0.8506
  162SOPE  H11X18207   5.545   3.139   9.996 -0.9475 -0.9357 -1.4278
  162SOPE  H11Y18208   5.619   3.291  10.024  1.0514  1.4880 -0.9873
  162SOPE  C31218209   5.618   3.234   9.826 -0.2116 -0.4142  0.9232
  162SOPE  H12X18210   5.563   3.152   9.775  1.5290  0.7854 -3.0723
  162SOPE  H12Y18211   5.717   3.195   9.858 -0.5668  0.2075  2.8196
  162SOPE  C31318212   5.622   3.363   9.743  0.5839 -0.2695  0.1882
  162SOPE  H13X18213   5.714   3.420   9.770  0.7030  1.0423 -2.7542
  162SOPE  H13Y18214   5.537   3.431   9.763  0.4089 -0.1958 -0.8032
  162SOPE  C31418215   5.616   3.345   9.591  0.4338  0.3665  0.1250
  162SOPE  H14X18216   5.594   3.442   9.541  0.1661 -0.4090 -1.2900
  162SOPE  H14Y18217   5.538   3.267   9.575 -1.4651  1.9605  1.2773
  162SOPE  C31518218   5.743   3.295   9.526  0.2836  0.1929 -0.0738
  162SOPE  H15X18219   5.772   3.201   9.578  1.6602  0.7675  0.2241
  162SOPE  H15Y18220   5.830   3.364   9.527  0.5464 -0.1248 -0.9509
  162SOPE  C31618221   5.726   3.262   9.365  0.4596  0.8966 -0.2811
  162SOPE  H16X18222   5.636   3.198   9.353  2.0098 -1.4987  0.6372
  162SOPE  H16Y18223   5.814   3.212   9.320 -0.2548 -0.9617  0.3524
  162SOPE  C31718224   5.721   3.394   9.291 -1.0746  0.4311  0.1671
  162SOPE  H17X18225   5.808   3.455   9.323 -0.6403  0.1441 -0.4466
  162SOPE  H17Y18226   5.627   3.450   9.310  0.0046  1.8290  1.4548
  162SOPE  C31818227   5.733   3.374   9.139  0.3940 -0.5075 -0.8742
  162SOPE  H18X18228   5.748   3.473   9.089 -0.2540  0.0619  0.0493
  162SOPE  H18Y18229   5.651   3.312   9.096 -0.2275 -1.2056  1.2790
  162SOPE  H18Z18230   5.830   3.322   9.121  0.5050 -0.7096  0.3137
  163SOPE     N18231   6.269   1.105  11.105  0.4037  0.3239  0.4344
  163SOPE   HN118232   6.371   1.091  11.087  0.2883 -1.9811  1.4158
  163SOPE   HN218233   6.248   1.167  11.185 -1.4681 -0.3180  0.4532
  163SOPE   HN318234   6.234   1.009  11.127  0.5575  0.6279  2.0756
  163SOPE   C1218235   6.210   1.159  10.979  0.3381  0.7040  0.6373
  163SOPE  H12A18236   6.288   1.233  10.950  1.4244 -0.4910  0.4132
  163SOPE  H12B18237   6.110   1.199  11.003 -0.2847  2.1064 -3.7983
  163SOPE   C1118238   6.188   1.048  10.880 -0.1964  0.1570 -0.3214
  163SOPE  H11A18239   6.281   0.988  10.866  0.5237  1.4575 -1.2325
  163SOPE  H11B18240   6.163   1.089  10.780 -0.4391  1.8114  0.3951
  163SOPE     P18241   6.078   0.842  11.009 -0.2530  0.0932  0.3101
  163SOPE   O1318242   5.941   0.795  11.034  0.5212 -0.3273  0.4509
  163SOPE   O1418243   6.165   0.864  11.130 -0.0280 -0.1986 -0.1373
  163SOPE   O1218244   6.074   0.976  10.927  0.2033 -0.1005 -0.2098
  163SOPE   O1118245   6.146   0.744  10.903  0.5285  0.3930 -0.4471
  163SOPE    C118246   6.094   0.744  10.771 -0.3718 -0.1525 -0.1148
  163SOPE    HA18247   6.033   0.834  10.746 -2.2818 -1.1460  0.9057
  163SOPE    HB18248   6.031   0.656  10.748  0.2628 -1.0538  1.4929
  163SOPE    C218249   6.200   0.762  10.659  0.3156  0.2120 -0.4841
  163SOPE    HS18250   6.231   0.869  10.659  1.8422 -0.2061  1.1912
  163SOPE   O2118251   6.147   0.718  10.529  0.1362  0.2283 -0.0641
  163SOPE   C2118252   6.075   0.816  10.472 -0.2484 -0.4359 -0.0987
  163SOPE   O2218253   6.054   0.930  10.514 -0.5230 -0.5924 -0.4420
  163SOPE   C2218254   6.042   0.766  10.328  0.2519 -0.3426  0.4664
  163SOPE   H2R18255   5.968   0.684  10.338 -0.5641  0.2461 -0.5869
  163SOPE   H2S18256   6.130   0.713  10.285 -1.8100 -3.1695 -0.3567
  163SOPE    C318257   6.326   0.673  10.689  0.5780 -0.4513  0.3669
  163SOPE    HX18258   6.290   0.572  10.719  1.6311  0.0261  3.3883
  163SOPE    HY18259   6.374   0.717  10.778 -1.5184  0.4220  1.0866
  163SOPE   O3118260   6.429   0.678  10.583  0.1382 -0.1141 -0.2796
  163SOPE   C3118261   6.507   0.789  10.568 -0.5154  0.2884  0.1164
  163SOPE   O3218262   6.499   0.890  10.629 -0.4384  0.4648  0.0511
  163SOPE   C3218263   6.594   0.763  10.447 -0.7426  0.2031 -0.4337
  163SOPE   H2X18264   6.621   0.655  10.438  0.0386 -0.1721  4.7083
  163SOPE   H2Y18265   6.686   0.821  10.466 -1.3940  0.8469  0.8364
  163SOPE   C2318266   5.982   0.872  10.233 -0.1326  0.4344  0.1209
  163SOPE   H3R18267   6.068   0.941  10.221 -0.4956  0.7227 -0.8839
  163SOPE   H3S18268   5.906   0.932  10.287 -0.3046  0.4604 -0.1457
  163SOPE   C2418269   5.924   0.808  10.111 -0.5058 -0.1257  0.0322
  163SOPE   H4R18270   6.004   0.797  10.035  1.1503 -0.6235  1.7877
  163SOPE   H4S18271   5.868   0.715  10.136 -0.9947  0.2278  0.2558
  163SOPE   C2518272   5.813   0.907  10.052  0.0438  0.5669 -0.0243
  163SOPE   H5R18273   5.710   0.867  10.064 -0.1728  1.0520 -0.3109
  163SOPE   H5S18274   5.812   0.998  10.116  0.1795  0.0265  0.7665
  163SOPE   C2618275   5.857   0.962   9.916 -0.4475  0.0239 -0.6129
  163SOPE   H6R18276   5.790   1.041   9.876  2.2586  3.5451  1.4399
  163SOPE   H6S18277   5.961   0.998   9.930 -1.0574  1.0358  1.5456
  163SOPE   C2718278   5.859   0.850   9.807  0.3541  0.5054  0.1968
  163SOPE   H7R18279   5.925   0.765   9.834 -1.0453 -1.1879 -1.5678
  163SOPE   H7S18280   5.756   0.807   9.799  1.5567 -2.3910 -0.1969
  163SOPE   C2818281   5.903   0.914   9.672 -0.4530 -0.6535  1.1201
  163SOPE   H8R18282   5.834   0.996   9.643 -0.3261 -1.0136 -0.2599
  163SOPE   H8S18283   6.007   0.951   9.683 -0.3979 -1.0746  2.0793
  163SOPE   C2918284   5.900   0.805   9.570 -0.2959  0.6297  0.1156
  163SOPE   H9118285   5.870   0.709   9.613 -0.8154  0.8882  0.3274
  163SOPE  C21018286   5.935   0.811   9.436 -0.3025  1.1395  0.2202
  163SOPE  H10118287   5.922   0.721   9.374 -0.6356  0.1106  1.7605
  163SOPE  C21118288   5.993   0.939   9.383  0.4843 -0.1819 -0.0754
  163SOPE  H11R18289   6.091   0.917   9.336  1.4747  3.6601  0.0631
  163SOPE  H11S18290   6.017   1.011   9.464  2.6027  1.4010 -2.0616
  163SOPE  C21218291   5.902   1.016   9.293  0.8926  0.4678 -0.7594
  163SOPE  H12R18292   5.967   1.097   9.253  0.1619  2.0399  1.1625
  163SOPE  H12S18293   5.814   1.066   9.339  0.5118 -0.1786 -0.7802
  163SOPE  C21318294   5.830   0.937   9.179 -0.1681  0.2248 -0.1908
  163SOPE  H13R18295   5.742   0.881   9.216 -0.4623 -0.8454 -2.4056
  163SOPE  H13S18296   5.899   0.856   9.147  0.4552  0.8919 -0.5400
  163SOPE  C21418297   5.780   1.026   9.072  0.5069  0.9192  0.3959
  163SOPE  H14R18298   5.872   1.075   9.034  0.4878 -0.4957 -1.5399
  163SOPE  H14S18299   5.711   1.104   9.110  0.0902  1.2330 -0.9733
  163SOPE  C21518300   5.733   0.964   8.943  0.0221 -0.3638  0.1317
  163SOPE  H15R18301   5.813   0.923   8.879 -0.6365 -3.1663  1.0344
  163SOPE  H15S18302   5.686   1.051   8.892  1.6117  0.3168 -0.1923
  163SOPE  C21618303   5.620   0.861   8.961 -0.1210 -0.0588 -0.3639
  163SOPE  H16R18304   5.574   0.886   9.059  3.6201  1.4929  1.1067
  163SOPE  H16S18305   5.668   0.762   8.967 -3.0541 -1.5798 -0.9585
  163SOPE  C21718306   5.524   0.853   8.845 -0.3232 -0.2383  0.3611
  163SOPE  H17R18307   5.581   0.829   8.753  1.0425  0.9495  0.8755
  163SOPE  H17S18308   5.475   0.952   8.827  0.9989  0.8962  2.7282
  163SOPE  C21818309   5.413   0.748   8.871  0.6608  0.1372 -0.2877
  163SOPE  H18R18310   5.341   0.750   8.786 -1.7962 -2.9379  1.5587
  163SOPE  H18S18311   5.348   0.755   8.961  1.0265 -0.3956  0.0241
  163SOPE  H18T18312   5.450   0.643   8.869 -1.3834 -0.6616  1.1318
  163SOPE   C3318313   6.536   0.831  10.319  0.0682  0.5814  0.6236
  163SOPE   H3X18314   6.627   0.828  10.255  0.5760  1.0081  1.3150
  163SOPE   H3Y18315   6.500   0.934  10.339 -0.8610  0.4356 -0.2642
  163SOPE   C3418316   6.434   0.740  10.252  0.6554  0.2920 -0.5142
  163SOPE   H4X18317   6.338   0.732  10.308  1.3554 -0.0640  0.6464
  163SOPE   H4Y18318   6.483   0.640  10.258 -0.5963 -0.3049  0.0259
  163SOPE   C3518319   6.416   0.777  10.106  0.2052 -0.3509  0.8592
  163SOPE   H5X18320   6.515   0.781  10.055 -1.1670 -1.1714 -1.9322
  163SOPE   H5Y18321   6.364   0.873  10.092 -1.6327 -1.6585 -1.5743
  163SOPE   C3618322   6.329   0.668  10.037  0.3329  0.7269 -0.4300
  163SOPE   H6X18323   6.225   0.696  10.064  0.9212  1.7256  0.8709
  163SOPE   H6Y18324   6.350   0.565  10.071 -1.8628  0.3925 -0.0280
  163SOPE   C3718325   6.341   0.660   9.887 -0.0218 -0.7858 -0.7797
  163SOPE   H7X18326   6.445   0.625   9.870  0.2111 -0.8895  0.8285
  163SOPE   H7Y18327   6.341   0.759   9.837 -0.7248  0.3442  1.3792
  163SOPE   C3818328   6.229   0.578   9.821 -0.0187  0.1988  0.1930
  163SOPE   H8X18329   6.147   0.647   9.792 -0.0595 -0.8498 -2.3392
  163SOPE   H8Y18330   6.202   0.491   9.885  1.2942  0.7574  1.5288
  163SOPE   C3918331   6.280   0.523   9.680 -0.1000  0.0143 -0.8852
  163SOPE   H9X18332   6.207   0.448   9.644 -0.2461  0.1365 -0.8484
  163SOPE   H9Y18333   6.370   0.465   9.711  1.0553  1.1272 -2.0834
  163SOPE  C31018334   6.316   0.628   9.579 -0.0904  0.1091  0.2945
  163SOPE  H10X18335   6.410   0.680   9.605  1.2221 -2.1615  0.1145
  163SOPE  H10Y18336   6.242   0.712   9.570 -0.1395 -0.1931 -2.6742
  163SOPE  C31118337   6.314   0.558   9.449  0.2623  0.3196  0.1038
  163SOPE  H11X18338   6.220   0.498   9.444  0.9310 -0.7179 -0.2804
  163SOPE  H11Y18339   6.395   0.484   9.428 -0.6715 -1.1914  1.6653
  163SOPE  C31218340   6.297   0.660   9.330  0.4438 -0.3763 -0.1920
  163SOPE  H12X18341   6.392   0.715   9.319  0.1147  0.1654 -0.3622
  163SOPE  H12Y18342   6.212   0.725   9.359  0.0651 -0.6099 -0.7560
  163SOPE  C31318343   6.270   0.578   9.198  0.3471 -1.1988  0.0848
  163SOPE  H13X18344   6.167   0.537   9.205  0.8946 -2.4623  1.0199
  163SOPE  H13Y18345   6.347   0.499   9.185  0.2998 -1.6904  2.5486
  163SOPE  C31418346   6.279   0.657   9.068 -0.0218 -0.1146  0.0137
  163SOPE  H14X18347   6.385   0.684   9.053  0.0569  0.2149  1.1284
  163SOPE  H14Y18348   6.219   0.751   9.075 -0.7560 -0.6821  1.7020
  163SOPE  C31518349   6.223   0.580   8.944  0.0690 -0.0295  0.5467
  163SOPE  H15X18350   6.273   0.482   8.931  0.9638  0.6982 -1.7396
  163SOPE  H15Y18351   6.258   0.642   8.859  0.7539 -1.6645 -0.3747
  163SOPE  C31618352   6.069   0.568   8.932 -0.0841 -0.1492 -0.2998
  163SOPE  H16X18353   6.029   0.667   8.961  0.1555 -0.0532 -0.3000
  163SOPE  H16Y18354   6.024   0.489   8.996 -0.4674 -0.8557 -1.4200
  163SOPE  C31718355   6.018   0.533   8.789 -0.2376  0.2932 -0.1843
  163SOPE  H17X18356   5.975   0.431   8.802 -1.9496  1.2325  1.6985
  163SOPE  H17Y18357   6.107   0.529   8.723 -0.3686 -1.4699 -0.2850
  163SOPE  C31818358   5.925   0.638   8.733 -0.4079 -0.0031  0.3384
  163SOPE  H18X18359   5.981   0.723   8.688  0.9633 -2.7145 -3.3441
  163SOPE  H18Y18360   5.861   0.667   8.820  1.0008 -0.6999  1.6271
  163SOPE  H18Z18361   5.858   0.596   8.655 -1.0203 -0.1718  0.9489
  164SOPE     N18362   2.093   4.859  10.884  0.5739 -0.4966  0.6543
  164SOPE   HN118363   2.102   4.770  10.831  0.5105  0.7393 -1.5011
  164SOPE   HN218364   2.012   4.856  10.949 -0.1622 -0.0005 -0.2284
  164SOPE   HN318365   2.064   4.926  10.811  0.8494  0.6798  1.6067
  164SOPE   C1218366   2.218   4.906  10.951 -0.0066 -0.0112  0.1667
  164SOPE  H12A18367   2.269   4.818  10.996  0.7040 -0.2038 -0.9996
  164SOPE  H12B18368   2.185   4.977  11.029  0.4418  1.4171 -0.9110
  164SOPE   C1118369   2.314   4.988  10.861 -0.1687  0.1359  0.2312
  164SOPE  H11A18370   2.358   4.916  10.789 -2.4093 -1.5836  0.5514
  164SOPE  H11B18371   2.397   5.012  10.932 -0.4013  1.8892 -0.0604
  164SOPE     P18372   2.233   5.121  10.650 -0.1642 -0.1949 -0.0948
  164SOPE   O1318373   2.169   5.253  10.628 -0.5458 -0.1770 -0.2544
  164SOPE   O1418374   2.154   5.008  10.598 -0.4820 -0.3102 -0.2916
  164SOPE   O1218375   2.247   5.104  10.807  0.3978 -0.0434  0.1843
  164SOPE   O1118376   2.382   5.119  10.593  0.2447 -0.0313  0.5513
  164SOPE    C118377   2.419   5.001  10.513 -0.0305 -0.1397 -0.6050
  164SOPE    HA18378   2.368   4.906  10.539 -1.3567  0.7652  0.1070
  164SOPE    HB18379   2.527   4.984  10.532 -0.0892  2.2312  2.1432
  164SOPE    C218380   2.421   5.041  10.369  0.4733  0.5724  0.2148
  164SOPE    HS18381   2.486   4.977  10.306 -0.7488 -3.0730  2.5535
  164SOPE   O2118382   2.448   5.175  10.346  0.5222 -0.7600 -0.0916
  164SOPE   C2118383   2.574   5.202  10.359 -0.1164 -0.1753 -0.5101
  164SOPE   O2218384   2.665   5.123  10.371  0.9766 -0.6798  0.6238
  164SOPE   C2218385   2.597   5.352  10.349 -1.0365  0.1297  0.7645
  164SOPE   H2R18386   2.704   5.365  10.322 -1.6246  1.4321 -1.0499
  164SOPE   H2S18387   2.572   5.395  10.448  1.0297  2.4138  0.3280
  164SOPE    C318388   2.284   5.019  10.302 -0.6093 -0.1954 -0.0327
  164SOPE    HX18389   2.209   5.088  10.346  0.0540  1.0851 -0.8486
  164SOPE    HY18390   2.251   4.915  10.319  1.0338 -0.7325 -0.0621
  164SOPE   O3118391   2.292   5.053  10.162 -0.9798  0.1986 -0.3221
  164SOPE   C3118392   2.309   4.947  10.080  0.4423 -0.0380  0.5554
  164SOPE   O3218393   2.320   4.833  10.121 -0.2094 -0.0991 -0.5440
  164SOPE   C3218394   2.294   4.993   9.936 -0.8374 -0.1431  1.0520
  164SOPE   H2X18395   2.385   5.004   9.874 -2.6214 -1.7023 -1.9678
  164SOPE   H2Y18396   2.240   5.090   9.947  1.4646  1.3913 -0.6925
  164SOPE   C2318397   2.521   5.420  10.234  0.8405 -0.2358  0.1300
  164SOPE   H3R18398   2.561   5.523  10.221  1.6929 -0.3292  1.8866
  164SOPE   H3S18399   2.410   5.412  10.239  0.4818  1.4605 -3.5201
  164SOPE   C2418400   2.567   5.350  10.101 -0.2031 -0.7174  0.7769
  164SOPE   H4R18401   2.675   5.376  10.090 -0.3648 -0.0014  0.8432
  164SOPE   H4S18402   2.560   5.240  10.107 -0.1312 -0.6976  1.2771
  164SOPE   C2518403   2.486   5.408   9.985 -0.4066  0.5540 -0.2208
  164SOPE   H5R18404   2.379   5.413  10.014 -0.0008  0.6403  1.2702
  164SOPE   H5S18405   2.521   5.511   9.965 -0.3494  0.4041 -0.9386
  164SOPE   C2618406   2.494   5.326   9.853  0.6210  0.1875 -0.4301
  164SOPE   H6R18407   2.596   5.295   9.820  2.0060  0.6056  3.2818
  164SOPE   H6S18408   2.435   5.233   9.868  0.9437  0.3285  1.8554
  164SOPE   C2718409   2.423   5.382   9.730  0.0237 -0.0829  0.5606
  164SOPE   H7R18410   2.314   5.382   9.754  0.2196 -0.3971  1.4878
  164SOPE   H7S18411   2.453   5.489   9.724 -2.2401  0.5182 -0.5292
  164SOPE   C2818412   2.424   5.299   9.588 -0.1338 -0.0914 -0.6605
  164SOPE   H8R18413   2.453   5.193   9.605  0.1367  0.2273  0.9547
  164SOPE   H8S18414   2.318   5.283   9.561 -0.3945  1.6947 -0.7514
  164SOPE   C2918415   2.516   5.347   9.483 -0.0100 -0.0795  0.0141
  164SOPE   H9118416   2.623   5.361   9.507  0.2301 -0.6996 -0.6958
  164SOPE  C21018417   2.468   5.404   9.375  0.4596  0.7610 -0.7336
  164SOPE  H10118418   2.526   5.444   9.291 -0.7989  1.4538 -1.2865
  164SOPE  C21118419   2.318   5.426   9.351  0.3316  0.3907 -0.0008
  164SOPE  H11R18420   2.269   5.468   9.441 -0.1726 -0.6561  0.2143
  164SOPE  H11S18421   2.278   5.327   9.320 -0.4340  0.1945  1.5842
  164SOPE  C21218422   2.286   5.536   9.247  0.2668  0.3556  0.0879
  164SOPE  H12R18423   2.359   5.519   9.164  1.9131 -2.5418  2.0169
  164SOPE  H12S18424   2.283   5.638   9.289 -0.7772  1.2259 -2.0021
  164SOPE  C21318425   2.140   5.516   9.187 -0.2866  0.1743 -0.6907
  164SOPE  H13R18426   2.064   5.530   9.266  2.8103 -2.2222  2.8918
  164SOPE  H13S18427   2.131   5.418   9.137 -0.8162  0.1494 -0.5434
  164SOPE  C21418428   2.130   5.622   9.078 -0.0360  0.5053  0.2767
  164SOPE  H14R18429   2.227   5.631   9.025 -1.0787 -0.4906 -1.8863
  164SOPE  H14S18430   2.129   5.720   9.132  0.3950  1.4890 -1.4603
  164SOPE  C21518431   2.006   5.600   8.995 -0.1984 -0.2371  0.3128
  164SOPE  H15R18432   1.921   5.589   9.065 -0.1286 -0.8417  0.3050
  164SOPE  H15S18433   2.022   5.507   8.936 -0.7173  0.3461 -0.7524
  164SOPE  C21618434   1.973   5.703   8.893 -0.4980  0.5771 -0.2933
  164SOPE  H16R18435   2.046   5.716   8.810  0.7880  0.0181  0.7371
  164SOPE  H16S18436   1.956   5.803   8.938 -0.9340  0.9364 -1.2413
  164SOPE  C21718437   1.836   5.682   8.826  0.0452 -0.5813  0.8126
  164SOPE  H17R18438   1.758   5.685   8.905 -0.4492  0.6066  0.2851
  164SOPE  H17S18439   1.834   5.582   8.776  1.2479 -0.2544  0.0916
  164SOPE  C21818440   1.811   5.786   8.719  0.1813 -0.0661  0.4215
  164SOPE  H18R18441   1.847   5.754   8.618 -0.3618  1.1276 -0.1599
  164SOPE  H18S18442   1.846   5.886   8.751 -0.8498  0.7101 -0.8122
  164SOPE  H18T18443   1.701   5.800   8.708  0.1265 -0.7745 -0.0164
  164SOPE   C3318444   2.206   4.892   9.861 -0.2279 -0.1294 -0.2919
  164SOPE   H3X18445   2.109   4.894   9.916  1.2124  0.2227  2.3072
  164SOPE   H3Y18446   2.249   4.790   9.868 -1.5695 -0.5104  4.5928
  164SOPE   C3418447   2.182   4.944   9.722 -0.0131 -0.2682 -1.0170
  164SOPE   H4X18448   2.142   5.047   9.730  0.4911 -0.2586  1.7116
  164SOPE   H4Y18449   2.093   4.891   9.681 -0.6412 -1.0808  1.2951
  164SOPE   C3518450   2.302   4.934   9.624  0.4451 -0.4773  0.0473
  164SOPE   H5X18451   2.334   4.828   9.612 -0.1355 -0.8100  1.4026
  164SOPE   H5Y18452   2.381   5.000   9.665  0.1260  0.0242 -0.1417
  164SOPE   C3618453   2.259   4.985   9.479 -0.2855 -0.0535 -0.5642
  164SOPE   H6X18454   2.243   5.095   9.483 -0.5640 -0.1192  0.3792
  164SOPE   H6Y18455   2.169   4.925   9.451 -1.7492  1.2401  1.1902
  164SOPE   C3718456   2.366   4.950   9.374  0.3599  0.4762  0.1014
  164SOPE   H7X18457   2.416   4.856   9.406 -0.9944 -0.0893  0.5931
  164SOPE   H7Y18458   2.448   5.024   9.381  0.5938  0.3198 -0.8457
  164SOPE   C3818459   2.309   4.951   9.229 -0.2495  0.5545  0.1206
  164SOPE   H8X18460   2.238   4.866   9.224 -0.2600  0.5872 -0.2852
  164SOPE   H8Y18461   2.393   4.921   9.163 -0.2292  1.6402 -0.3552
  164SOPE   C3918462   2.228   5.079   9.191 -0.2671 -0.5355  0.0566
  164SOPE   H9X18463   2.298   5.166   9.196 -0.0969 -0.6421 -0.4921
  164SOPE   H9Y18464   2.139   5.105   9.253 -0.6964 -0.0064 -0.7717
  164SOPE  C31018465   2.197   5.062   9.039 -0.2065 -0.7207  0.7679
  164SOPE  H10X18466   2.114   4.989   9.029 -2.1110  1.3488  1.0830
  164SOPE  H10Y18467   2.288   5.010   9.002 -0.3602 -0.8575  0.5821
  164SOPE  C31118468   2.167   5.197   8.971  0.1714  0.1448  0.5026
  164SOPE  H11X18469   2.235   5.274   9.014 -0.3707  0.2620  1.1707
  164SOPE  H11Y18470   2.062   5.226   8.996  0.3725 -0.4990  2.2072
  164SOPE  C31218471   2.186   5.189   8.821 -0.9931 -0.4969 -0.4071
  164SOPE  H12X18472   2.114   5.113   8.783 -0.4855 -0.2970 -1.8064
  164SOPE  H12Y18473   2.288   5.156   8.795 -0.6868 -0.6743  0.9981
  164SOPE  C31318474   2.154   5.322   8.748 -0.1558  0.3395 -0.0798
  164SOPE  H13X18475   2.227   5.402   8.771  1.8411 -1.2537 -0.8336
  164SOPE  H13Y18476   2.061   5.358   8.798 -1.9050 -1.9070 -1.6269
  164SOPE  C31418477   2.118   5.325   8.592 -0.5261  0.1112  0.7283
  164SOPE  H14X18478   2.040   5.257   8.554 -0.0833 -0.0625  0.1149
  164SOPE  H14Y18479   2.213   5.294   8.544  0.4441  0.8631  2.1148
  164SOPE  C31518480   2.067   5.465   8.554  0.6161  0.4499 -0.1855
  164SOPE  H15X18481   2.135   5.531   8.612  0.9383  0.1302 -0.2023
  164SOPE  H15Y18482   1.962   5.485   8.583  0.8973  1.8842 -0.0893
  164SOPE  C31618483   2.072   5.500   8.405  0.4983  0.4429 -0.3354
  164SOPE  H16X18484   2.019   5.421   8.349  2.2443 -0.1775 -1.1326
  164SOPE  H16Y18485   2.179   5.508   8.380  0.3989 -1.1307 -1.3116
  164SOPE  C31718486   1.992   5.622   8.363  0.3302 -0.3228 -0.0614
  164SOPE  H17X18487   1.987   5.696   8.446 -0.8477 -0.0179 -0.3919
  164SOPE  H17Y18488   1.884   5.614   8.337  0.3049  0.3972 -0.2033
  164SOPE  C31818489   2.067   5.688   8.249  0.4227  0.5430 -0.9022
  164SOPE  H18X18490   2.088   5.613   8.169 -0.0718 -0.1031 -0.4228
  164SOPE  H18Y18491   2.162   5.734   8.283 -1.1605  0.0385  4.5708
  164SOPE  H18Z18492   2.018   5.777   8.206  1.9737  1.7992 -0.1240
  165SOPE     N18493   0.638   6.819  10.803  0.3424 -0.1978  0.2972
  165SOPE   HN118494   0.609   6.878  10.722  0.2796  1.2369  1.3601
  165SOPE   HN218495   0.664   6.881  10.882  0.0017 -2.2100  2.0313
  165SOPE   HN318496   0.722   6.760  10.785  1.4289  1.0848  1.1587
  165SOPE   C1218497   0.522   6.725  10.825  0.0275 -0.1280  0.0117
  165SOPE  H12A18498   0.431   6.787  10.815 -1.1479 -1.1444  3.7235
  165SOPE  H12B18499   0.526   6.682  10.927 -0.5487 -0.7058 -0.2038
  165SOPE   C1118500   0.526   6.621  10.716  0.1247 -0.0906 -0.2298
  165SOPE  H11A18501   0.516   6.666  10.615 -3.2537  0.3535  0.2440
  165SOPE  H11B18502   0.444   6.547  10.725  0.0617  0.2159  1.9465
  165SOPE     P18503   0.649   6.409  10.821  0.1300  0.0383 -0.2086
  165SOPE   O1318504   0.625   6.449  10.961  0.2190  0.0674  0.7407
  165SOPE   O1418505   0.775   6.339  10.801  0.6625  0.0542  0.3198
  165SOPE   O1218506   0.646   6.546  10.734 -0.1635  0.2778 -0.0496
  165SOPE   O1118507   0.526   6.324  10.762  0.1587  0.0949 -0.2933
  165SOPE    C118508   0.540   6.222  10.666  0.2560  0.3255  0.3433
  165SOPE    HA18509   0.446   6.162  10.667  0.6819 -0.3384  0.7965
  165SOPE    HB18510   0.622   6.153  10.695  0.4386  0.2326 -0.3718
  165SOPE    C218511   0.578   6.270  10.521  0.1654  0.0706 -0.8571
  165SOPE    HS18512   0.659   6.345  10.530  0.9261 -0.8172 -0.1640
  165SOPE   O2118513   0.456   6.332  10.477 -0.1881  0.5570  0.0011
  165SOPE   C2118514   0.472   6.449  10.404 -0.2508 -0.1826  0.1340
  165SOPE   O2218515   0.576   6.501  10.378 -0.6682 -1.0558  0.3376
  165SOPE   C2218516   0.332   6.498  10.365  0.2661 -0.4877  0.2739
  165SOPE   H2R18517   0.295   6.548  10.457  0.9104  1.4377 -0.4895
  165SOPE   H2S18518   0.257   6.421  10.335  0.1238  0.6703 -2.5190
  165SOPE    C318519   0.618   6.156  10.418 -0.1942  0.2330 -0.3151
  165SOPE    HX18520   0.531   6.088  10.408 -1.0335  1.2674 -0.2281
  165SOPE    HY18521   0.690   6.091  10.470 -0.2245  0.8133  0.4610
  165SOPE   O3118522   0.684   6.213  10.302 -0.6981  0.3590  0.0303
  165SOPE   C3118523   0.633   6.190  10.195  0.3039  0.1307  0.4672
  165SOPE   O3218524   0.519   6.145  10.166 -0.6804  0.4858  0.3882
  165SOPE   C3218525   0.738   6.213  10.081 -0.3699 -0.4012 -0.7000
  165SOPE   H2X18526   0.797   6.119  10.084 -1.4817 -1.0457  1.3242
  165SOPE   H2Y18527   0.795   6.301  10.116 -3.2660  0.8233  1.1398
  165SOPE   C2318528   0.339   6.592  10.245  0.0801  0.1457  0.3840
  165SOPE   H3R18529   0.424   6.662  10.264  1.9748 -1.8112 -0.6547
  165SOPE   H3S18530   0.255   6.664  10.255  3.0460  3.9883 -0.9951
  165SOPE   C2418531   0.355   6.522  10.114  0.3106  0.0017  0.2504
  165SOPE   H4R18532   0.441   6.451  10.112 -0.2993 -0.7277 -2.9614
  165SOPE   H4S18533   0.265   6.457  10.104 -0.6475  1.3269  0.1718
  165SOPE   C2518534   0.366   6.624   9.991  0.2856  0.2160 -0.5432
  165SOPE   H5R18535   0.282   6.694  10.011  0.0547 -0.0973 -0.4029
  165SOPE   H5S18536   0.465   6.672  10.006 -0.1677  0.4764  1.8679
  165SOPE   C2618537   0.352   6.563   9.848  0.0011 -0.2855  0.0559
  165SOPE   H6R18538   0.449   6.516   9.822 -1.7116 -2.7631 -2.1060
  165SOPE   H6S18539   0.282   6.477   9.842  1.0610 -1.3633  2.3606
  165SOPE   C2718540   0.306   6.659   9.737 -0.0135  0.0018  0.0093
  165SOPE   H7R18541   0.218   6.718   9.771 -0.9918 -0.7996 -1.0974
  165SOPE   H7S18542   0.383   6.738   9.723 -0.1141 -0.0217 -0.6797
  165SOPE   C2818543   0.287   6.588   9.599 -0.5417 -0.3373  0.1902
  165SOPE   H8R18544   0.198   6.521   9.605 -2.4881  1.8366 -2.8818
  165SOPE   H8S18545   0.254   6.672   9.534  0.5578  2.0814  2.6453
  165SOPE   C2918546   0.401   6.504   9.538  0.1631  0.4401 -0.1459
  165SOPE   H9118547   0.472   6.449   9.602  2.1956 -0.4003 -2.9958
  165SOPE  C21018548   0.408   6.473   9.407 -0.0357  0.3269  0.3336
  165SOPE  H10118549   0.499   6.427   9.367 -0.8024 -0.7500 -0.1947
  165SOPE  C21118550   0.320   6.530   9.297  0.1780  0.3508  1.1176
  165SOPE  H11R18551   0.298   6.638   9.310  1.5215  0.6615  0.8265
  165SOPE  H11S18552   0.220   6.483   9.312 -0.5718  1.6513  0.2790
  165SOPE  C21218553   0.363   6.501   9.144  0.5366 -0.0306  0.2858
  165SOPE  H12R18554   0.384   6.391   9.142  1.0246  0.0650 -0.0268
  165SOPE  H12S18555   0.458   6.555   9.124  0.7755 -0.4149  0.3619
  165SOPE  C21318556   0.253   6.537   9.043 -0.9316  0.0077 -0.3998
  165SOPE  H13R18557   0.224   6.642   9.063 -0.4345  0.3493 -1.4662
  165SOPE  H13S18558   0.168   6.471   9.071 -0.5302 -0.1569  0.4524
  165SOPE  C21418559   0.306   6.522   8.902  0.2507 -0.3760 -0.3273
  165SOPE  H14R18560   0.366   6.429   8.905  1.4701  0.4397  3.0269
  165SOPE  H14S18561   0.372   6.606   8.871 -1.1651  0.0062 -2.4413
  165SOPE  C21518562   0.199   6.513   8.789 -0.2925  0.3459 -0.4344
  165SOPE  H15R18563   0.118   6.588   8.802 -0.3097  0.4367 -1.0814
  165SOPE  H15S18564   0.147   6.416   8.799 -0.4678  0.6984  2.5706
  165SOPE  C21618565   0.260   6.525   8.655  0.7922 -0.4809  0.2095
  165SOPE  H16R18566   0.336   6.446   8.638  0.4041 -0.8013 -0.0339
  165SOPE  H16S18567   0.318   6.620   8.659 -2.6347  1.6952  0.4200
  165SOPE  C21718568   0.159   6.538   8.537 -0.0013 -0.0842 -0.6974
  165SOPE  H17R18569   0.086   6.621   8.545  1.1879  0.8748  0.3024
  165SOPE  H17S18570   0.111   6.437   8.534 -0.1486 -0.2647  4.1109
  165SOPE  C21818571   0.237   6.572   8.404 -0.2814 -0.6430  0.1275
  165SOPE  H18R18572   0.167   6.576   8.318 -0.8668  1.6020  0.6624
  165SOPE  H18S18573   0.318   6.497   8.391  0.5428  0.2203  0.1882
  165SOPE  H18T18574   0.287   6.670   8.418  0.1884 -0.6571 -1.3890
  165SOPE   C3318575   0.664   6.225   9.942 -0.3356 -0.3338 -0.1949
  165SOPE   H3X18576   0.591   6.307   9.958  0.2242  0.5768 -2.1978
  165SOPE   H3Y18577   0.607   6.134   9.912  0.6157 -0.8877 -0.3249
  165SOPE   C3418578   0.760   6.261   9.825 -0.1775  0.7693  0.3280
  165SOPE   H4X18579   0.854   6.211   9.855 -0.4302 -0.2556 -0.5468
  165SOPE   H4Y18580   0.770   6.372   9.818 -1.0499  0.6546 -4.5377
  165SOPE   C3518581   0.720   6.187   9.702  0.6668  0.1742 -0.5397
  165SOPE   H5X18582   0.609   6.186   9.700  0.5983  2.6692  0.6393
  165SOPE   H5Y18583   0.753   6.081   9.701 -1.3354 -0.4667 -0.9144
  165SOPE   C3618584   0.777   6.262   9.574  0.0918 -1.0938 -0.0300
  165SOPE   H6X18585   0.887   6.251   9.560  0.5205 -0.0001  2.2026
  165SOPE   H6Y18586   0.754   6.369   9.590 -0.5497 -0.7367 -3.1362
  165SOPE   C3718587   0.708   6.201   9.444  0.0850 -0.3472 -0.7389
  165SOPE   H7X18588   0.599   6.224   9.448 -0.2868 -1.9725 -1.2602
  165SOPE   H7Y18589   0.722   6.091   9.443 -0.2274 -0.4578  2.1323
  165SOPE   C3818590   0.762   6.260   9.312  0.3785 -0.0028 -0.6474
  165SOPE   H8X18591   0.873   6.253   9.302  0.3471  2.2798 -2.9314
  165SOPE   H8Y18592   0.733   6.367   9.307  1.2308  0.3563  1.3417
  165SOPE   C3918593   0.683   6.216   9.187 -0.0552 -0.1759  0.1010
  165SOPE   H9X18594   0.579   6.255   9.198  0.4519  1.2468 -0.0301
  165SOPE   H9Y18595   0.692   6.105   9.187  0.4636 -0.1415  1.0747
  165SOPE  C31018596   0.764   6.272   9.064 -0.1022 -0.2504  0.0380
  165SOPE  H10X18597   0.852   6.208   9.046  0.4412  0.4646  0.1364
  165SOPE  H10Y18598   0.791   6.378   9.085  2.6741 -1.0950  0.8747
  165SOPE  C31118599   0.692   6.275   8.931  0.3470  0.1416  0.5075
  165SOPE  H11X18600   0.615   6.355   8.928  0.3244  0.1109  0.2528
  165SOPE  H11Y18601   0.636   6.181   8.909 -0.5323  1.1999 -1.8880
  165SOPE  C31218602   0.786   6.299   8.811  0.1095  0.5009  0.4096
  165SOPE  H12X18603   0.853   6.210   8.810 -2.0641 -1.1796  0.3682
  165SOPE  H12Y18604   0.847   6.389   8.836  1.2374 -0.2007  0.2336
  165SOPE  C31318605   0.698   6.313   8.689  0.4509  0.6790  0.5047
  165SOPE  H13X18606   0.612   6.246   8.710 -0.4992  1.6358 -0.2710
  165SOPE  H13Y18607   0.761   6.275   8.606 -0.8502 -1.7257  0.5824
  165SOPE  C31418608   0.648   6.448   8.646 -0.5522 -0.1404  0.2505
  165SOPE  H14X18609   0.710   6.522   8.703 -2.0416  0.1749  1.5004
  165SOPE  H14Y18610   0.552   6.455   8.701  0.1850 -0.3269  1.5980
  165SOPE  C31518611   0.635   6.482   8.497 -0.5168  0.0669 -0.0484
  165SOPE  H15X18612   0.608   6.590   8.500  1.1022  0.4424  4.9182
  165SOPE  H15Y18613   0.543   6.425   8.470  1.4893 -2.2998 -2.1828
  165SOPE  C31618614   0.763   6.459   8.414 -0.4819  0.0604 -0.1930
  165SOPE  H16X18615   0.780   6.350   8.416 -0.4494  0.0552 -0.8880
  165SOPE  H16Y18616   0.850   6.508   8.464  0.1489  0.9723 -2.1447
  165SOPE  C31718617   0.757   6.495   8.261  0.0035 -0.0429  0.7769
  165SOPE  H17X18618   0.840   6.442   8.209 -0.0175 -1.1295  1.8365
  165SOPE  H17Y18619   0.771   6.604   8.242  0.1563 -0.0412  0.8924
  165SOPE  C31818620   0.629   6.447   8.192 -0.2098 -0.2676 -0.0232
  165SOPE  H18X18621   0.607   6.341   8.217 -2.5195  0.0671 -0.4990
  165SOPE  H18Y18622   0.629   6.455   8.081 -0.2669 -0.7832 -0.0628
  165SOPE  H18Z18623   0.545   6.499   8.243 -1.0215 -2.0529  0.5034
  166SOPE     N18624   4.339   0.554  10.977  0.7506  0.6948  0.5392
  166SOPE   HN118625   4.245   0.516  10.955  1.8989 -1.9210  0.0023
  166SOPE   HN218626   4.368   0.541  11.076 -0.7831  2.8772  1.3367
  166SOPE   HN318627   4.346   0.654  10.948  4.5657  0.2474 -0.2875
  166SOPE   C1218628   4.441   0.478  10.896 -0.2217  0.3644  0.7730
  166SOPE  H12A18629   4.534   0.531  10.866 -0.4590  0.0701 -0.4840
  166SOPE  H12B18630   4.394   0.438  10.804 -1.0290  0.5785  1.0949
  166SOPE   C1118631   4.497   0.355  10.966 -0.0581 -0.5541 -0.8842
  166SOPE  H11A18632   4.544   0.396  11.058  0.4591 -1.5254 -0.7124
  166SOPE  H11B18633   4.579   0.303  10.912  0.3956 -0.2849 -0.4632
  166SOPE     P18634   4.345   0.142  10.916 -0.0653 -0.2439 -0.1126
  166SOPE   O1318635   4.226   0.073  10.979 -0.4808 -0.3466 -0.1131
  166SOPE   O1418636   4.459   0.054  10.885  0.0603 -0.4981 -0.1103
  166SOPE   O1218637   4.387   0.265  11.005  0.3591 -0.4783  0.0637
  166SOPE   O1118638   4.294   0.221  10.784 -0.0476 -0.0298  0.4943
  166SOPE    C118639   4.161   0.214  10.737  0.9212 -0.1462 -0.8364
  166SOPE    HA18640   4.090   0.277  10.793  0.4245 -1.3733 -0.0578
  166SOPE    HB18641   4.124   0.111  10.758 -0.4924  0.2324 -1.4381
  166SOPE    C218642   4.151   0.238  10.587 -0.1507 -0.0916  0.5323
  166SOPE    HS18643   4.216   0.165  10.534 -1.1581 -0.0590 -0.7881
  166SOPE   O2118644   4.210   0.369  10.569  0.1463  0.0136 -0.4887
  166SOPE   C2118645   4.268   0.386  10.449  0.4438  0.2038 -0.5406
  166SOPE   O2218646   4.264   0.304  10.359 -0.0976 -0.0193 -0.2184
  166SOPE   C2218647   4.332   0.523  10.428 -0.4331  0.3334  0.3501
  166SOPE   H2R18648   4.440   0.507  10.449 -0.1529  0.9670 -0.5842
  166SOPE   H2S18649   4.297   0.585  10.514  1.4721  1.7768  0.1037
  166SOPE    C318650   3.997   0.237  10.536 -0.2691  0.1206  0.6014
  166SOPE    HX18651   3.940   0.323  10.579  0.6720  0.8886  0.3282
  166SOPE    HY18652   3.955   0.141  10.573 -0.7278  1.2360  3.1011
  166SOPE   O3118653   3.976   0.245  10.392  0.1090 -0.1211  0.2198
  166SOPE   C3118654   4.020   0.138  10.329  0.6736 -0.2734  0.3827
  166SOPE   O3218655   4.039   0.028  10.383 -0.1647 -0.2472 -0.1774
  166SOPE   C3218656   4.047   0.175  10.178 -0.0246  0.0410 -0.2503
  166SOPE   H2X18657   4.154   0.202  10.165  0.1693  0.3261  1.7664
  166SOPE   H2Y18658   3.989   0.267  10.155 -0.7909  0.0389  1.5384
  166SOPE   C2318659   4.306   0.585  10.283 -0.0140 -0.0973  0.0543
  166SOPE   H3R18660   4.335   0.504  10.212 -0.2072  0.0789 -0.2282
  166SOPE   H3S18661   4.376   0.670  10.269  1.4136 -1.4530 -1.3106
  166SOPE   C2418662   4.169   0.651  10.248 -0.1073 -0.3535 -0.0958
  166SOPE   H4R18663   4.087   0.576  10.262  0.2733 -0.9548 -1.0086
  166SOPE   H4S18664   4.148   0.733  10.319 -0.1248  0.4641 -1.0371
  166SOPE   C2518665   4.160   0.703  10.104  0.0941  0.6567  0.5388
  166SOPE   H5R18666   4.076   0.775  10.106 -0.7363 -0.2908  0.2808
  166SOPE   H5S18667   4.252   0.759  10.077  0.2577 -0.3548 -1.0200
  166SOPE   C2618668   4.128   0.591  10.004  0.4186 -0.3720  0.3452
  166SOPE   H6R18669   4.090   0.497  10.050 -1.2730 -0.1066 -0.4487
  166SOPE   H6S18670   4.045   0.631   9.941  2.2792 -0.3266 -2.1212
  166SOPE   C2718671   4.244   0.562   9.909  0.1185  0.0136 -0.2266
  166SOPE   H7R18672   4.334   0.537   9.968  1.0816 -0.5735 -1.9181
  166SOPE   H7S18673   4.216   0.474   9.846 -0.4998 -0.2300  0.3768
  166SOPE   C2818674   4.271   0.683   9.815 -0.6073  0.2496  0.8356
  166SOPE   H8R18675   4.171   0.709   9.773 -0.9717 -1.2234  0.7571
  166SOPE   H8S18676   4.314   0.766   9.874  1.5081  0.5048 -1.0188
  166SOPE   C2918677   4.371   0.639   9.704  0.0521  0.0504 -0.0881
  166SOPE   H9118678   4.478   0.662   9.719 -0.4466  1.0996  2.2084
  166SOPE  C21018679   4.339   0.589   9.583 -0.1695 -0.0300 -0.8980
  166SOPE  H10118680   4.416   0.568   9.507 -0.7172 -0.5158 -1.3199
  166SOPE  C21118681   4.204   0.561   9.513  0.4825 -0.5872 -0.3323
  166SOPE  H11R18682   4.127   0.611   9.576  0.7615 -0.3848 -0.1511
  166SOPE  H11S18683   4.189   0.451   9.504 -0.4149 -0.3325 -2.1505
  166SOPE  C21218684   4.173   0.617   9.373  0.2513  0.0131 -0.0011
  166SOPE  H12R18685   4.253   0.591   9.300  0.0537  0.8414 -0.5179
  166SOPE  H12S18686   4.167   0.728   9.384 -2.7301  0.0700 -1.8270
  166SOPE  C21318687   4.036   0.575   9.322  0.7398  0.2884 -0.1653
  166SOPE  H13R18688   3.954   0.624   9.378  1.8058  1.5891  0.2845
  166SOPE  H13S18689   4.024   0.465   9.329  0.9057  0.2037 -1.1464
  166SOPE  C21418690   4.009   0.613   9.174  1.0019 -0.0447 -0.4757
  166SOPE  H14R18691   4.041   0.718   9.154  0.0507  0.3120 -0.1869
  166SOPE  H14S18692   3.899   0.600   9.165  0.9764 -0.9897  1.0534
  166SOPE  C21518693   4.083   0.524   9.074 -0.4843 -0.0437  0.2409
  166SOPE  H15R18694   4.040   0.423   9.089  0.2217 -0.3146  0.4585
  166SOPE  H15S18695   4.188   0.525   9.109 -0.9225 -1.6697  1.6808
  166SOPE  C21618696   4.074   0.558   8.926  0.0666  0.3073  0.1675
  166SOPE  H16R18697   3.968   0.574   8.900 -0.9602 -2.7951  2.2064
  166SOPE  H16S18698   4.099   0.473   8.859  1.0697 -0.2553  1.2247
  166SOPE  C21718699   4.154   0.675   8.874  0.1281 -0.8197  0.2131
  166SOPE  H17R18700   4.264   0.661   8.887  0.4360  1.7401  0.7065
  166SOPE  H17S18701   4.127   0.763   8.936  1.3112  0.5098 -1.0944
  166SOPE  C21818702   4.134   0.695   8.727  0.0484  0.2433  0.3221
  166SOPE  H18R18703   4.180   0.791   8.697  3.2117 -1.6642 -1.1952
  166SOPE  H18S18704   4.028   0.679   8.696 -0.4268  1.8307  1.1130
  166SOPE  H18T18705   4.202   0.625   8.674 -0.3472  1.3638 -1.6837
  166SOPE   C3318706   4.021   0.062  10.079  0.1929 -0.0569  0.4204
  166SOPE   H3X18707   3.914   0.032  10.080 -0.3762  1.8589 -0.0739
  166SOPE   H3Y18708   4.090  -0.023  10.097 -0.2820  0.1827  3.6391
  166SOPE   C3418709   4.025   0.124   9.935 -0.0125 -0.0541  0.4772
  166SOPE   H4X18710   4.129   0.159   9.919 -0.5553  0.1640 -2.8987
  166SOPE   H4Y18711   3.956   0.210   9.947 -1.3316 -1.3778  2.9112
  166SOPE   C3518712   3.988   0.024   9.822  0.1769 -0.2395  0.2695
  166SOPE   H5X18713   3.891  -0.023   9.847  0.4217  0.3724  2.4937
  166SOPE   H5Y18714   4.058  -0.059   9.801 -1.9643 -2.3409  1.2010
  166SOPE   C3618715   3.986   0.102   9.695 -0.1219  0.3877  0.2473
  166SOPE   H6X18716   3.975   0.027   9.614 -1.0945 -1.3081  1.9080
  166SOPE   H6Y18717   4.076   0.165   9.679 -0.0430  0.0571 -0.6632
  166SOPE   C3718718   3.856   0.178   9.668  0.8944  0.5752  0.9398
  166SOPE   H7X18719   3.867   0.276   9.720 -0.0233  2.4122 -2.1626
  166SOPE   H7Y18720   3.766   0.132   9.712  1.2544  0.2086  1.2992
  166SOPE   C3818721   3.824   0.200   9.520 -0.1051 -0.9892 -0.4370
  166SOPE   H8X18722   3.813   0.107   9.460 -1.2451 -0.6633 -0.7442
  166SOPE   H8Y18723   3.919   0.228   9.470 -0.2037  0.0370 -0.0495
  166SOPE   C3918724   3.710   0.298   9.493  1.0204 -0.2944 -0.3870
  166SOPE   H9X18725   3.726   0.395   9.543  0.7199 -1.7920  2.7406
  166SOPE   H9Y18726   3.615   0.250   9.527  0.4263 -0.2989 -2.0000
  166SOPE  C31018727   3.688   0.332   9.346  0.0801  0.0168 -0.4167
  166SOPE  H10X18728   3.711   0.235   9.296 -1.3833 -0.9160  0.6829
  166SOPE  H10Y18729   3.744   0.425   9.323 -0.8967  0.5946 -0.4886
  166SOPE  C31118730   3.538   0.357   9.313 -0.1108 -0.4482 -0.2223
  166SOPE  H11X18731   3.492   0.404   9.402  0.8449  0.2311 -0.0798
  166SOPE  H11Y18732   3.480   0.262   9.302 -0.6369  0.0311 -1.7764
  166SOPE  C31218733   3.519   0.440   9.188 -0.1655 -0.1715  0.6857
  166SOPE  H12X18734   3.571   0.538   9.197  0.8941 -0.6751  0.0869
  166SOPE  H12Y18735   3.411   0.456   9.169 -0.2395 -2.1550 -0.6176
  166SOPE  C31318736   3.560   0.368   9.055 -0.2879 -0.1633  0.1366
  166SOPE  H13X18737   3.498   0.276   9.044 -1.0566  0.2930  0.5963
  166SOPE  H13Y18738   3.665   0.335   9.066 -0.7127 -1.9609 -0.8645
  166SOPE  C31418739   3.539   0.452   8.929  0.4441 -0.7100 -0.1576
  166SOPE  H14X18740   3.593   0.549   8.930  0.2194 -0.5880  0.8083
  166SOPE  H14Y18741   3.431   0.473   8.916  0.4891 -0.5624 -0.2929
  166SOPE  C31518742   3.582   0.382   8.800  0.4345 -0.3853  0.4309
  166SOPE  H15X18743   3.537   0.280   8.795 -0.3564  0.0476 -4.2098
  166SOPE  H15Y18744   3.690   0.360   8.811  0.2593 -1.1642  0.6241
  166SOPE  C31618745   3.538   0.458   8.671  0.9377 -0.0990 -0.2186
  166SOPE  H16X18746   3.428   0.465   8.662  0.9257 -1.3750 -1.2179
  166SOPE  H16Y18747   3.572   0.410   8.576  0.3155 -0.4427 -0.2709
  166SOPE  C31718748   3.582   0.614   8.664  0.2745  0.1484 -0.0981
  166SOPE  H17X18749   3.522   0.668   8.741  0.0021  1.5661 -1.2724
  166SOPE  H17Y18750   3.551   0.663   8.570  1.4724  1.0621 -0.0149
  166SOPE  C31818751   3.734   0.646   8.689  0.5048 -0.2662  0.1933
  166SOPE  H18X18752   3.757   0.741   8.741  1.1547 -1.0980  1.4736
  166SOPE  H18Y18753   3.786   0.639   8.591  1.1331 -1.6543  0.6091
  166SOPE  H18Z18754   3.775   0.562   8.750 -1.6091 -0.4798  1.4020
  167SOPE     N18755   5.500   3.494   6.328 -0.3328  1.0807  0.4863
  167SOPE   HN118756   5.601   3.515   6.313 -0.1812  0.7968  1.0861
  167SOPE   HN218757   5.485   3.507   6.429  1.7801 -3.5157  1.5520
  167SOPE   HN318758   5.482   3.393   6.308  1.1239  0.9839 -0.4437
  167SOPE   C1218759   5.411   3.563   6.233  1.0867  0.1582  0.4467
  167SOPE  H12A18760   5.306   3.529   6.247  1.2391 -0.3167  0.4560
  167SOPE  H12B18761   5.432   3.527   6.130  1.6858 -0.9050  0.9300
  167SOPE   C1118762   5.425   3.709   6.258 -0.7028  0.2767 -0.5129
  167SOPE  H11A18763   5.407   3.728   6.366 -1.0383 -1.8124 -0.1804
  167SOPE  H11B18764   5.339   3.759   6.209 -2.4105 -2.3203 -0.2577
  167SOPE     P18765   5.574   3.918   6.255  0.3059 -0.3566  0.0603
  167SOPE   O1318766   5.445   3.984   6.288  0.2996  0.7428  0.6227
  167SOPE   O1418767   5.641   3.972   6.134  0.0913 -0.3837 -0.2097
  167SOPE   O1218768   5.549   3.757   6.236 -0.2071  0.1195 -0.2022
  167SOPE   O1118769   5.669   3.929   6.379 -0.2739 -0.1819 -0.3840
  167SOPE    C118770   5.690   3.825   6.473  0.4826  0.0287  0.0876
  167SOPE    HA18771   5.745   3.737   6.432  1.1667 -0.9307  2.9363
  167SOPE    HB18772   5.592   3.786   6.509  2.0296 -2.8390  1.3249
  167SOPE    C218773   5.777   3.860   6.595 -0.1472 -0.3674  0.6649
  167SOPE    HS18774   5.825   3.772   6.642 -1.6786 -2.1823 -1.0657
  167SOPE   O2118775   5.703   3.942   6.686 -0.4101  0.5836 -0.0392
  167SOPE   C2118776   5.629   3.866   6.767 -1.0395 -0.5498 -0.0410
  167SOPE   O2218777   5.616   3.746   6.773  0.2362  0.4384 -0.1424
  167SOPE   C2218778   5.551   3.969   6.847 -0.0510 -0.4273  1.0508
  167SOPE   H2R18779   5.479   4.019   6.778  1.8307 -1.1495 -1.5332
  167SOPE   H2S18780   5.618   4.049   6.884 -1.1117  1.0445 -0.1096
  167SOPE    C318781   5.896   3.946   6.551  0.1028 -1.1090 -1.0388
  167SOPE    HX18782   5.854   4.046   6.528  1.9753 -0.2374 -0.8312
  167SOPE    HY18783   5.938   3.903   6.458 -0.0104  2.1943 -2.6994
  167SOPE   O3118784   5.998   3.961   6.657  0.6117  0.3484 -0.1444
  167SOPE   C3118785   6.119   3.969   6.614  0.4145 -0.1419  0.3740
  167SOPE   O3218786   6.157   3.987   6.502 -0.2310 -0.1160 -0.3356
  167SOPE   C3218787   6.202   3.984   6.745  0.5002  0.3881  0.8829
  167SOPE   H2X18788   6.232   3.888   6.793  2.6063  1.5003  1.8898
  167SOPE   H2Y18789   6.139   4.034   6.821 -2.3605  2.8203 -2.8907
  167SOPE   C2318790   5.475   3.907   6.964  0.2801  0.0569 -0.0019
  167SOPE   H3R18791   5.395   3.836   6.935  1.2988 -2.0903  2.3274
  167SOPE   H3S18792   5.414   3.995   6.992 -0.8785 -0.8790  0.4253
  167SOPE   C2418793   5.565   3.855   7.083 -0.7211 -0.0562 -0.0705
  167SOPE   H4R18794   5.649   3.790   7.052 -0.7979 -0.5183  0.6901
  167SOPE   H4S18795   5.612   3.941   7.136 -0.6961  0.3936 -0.8015
  167SOPE   C2518796   5.477   3.780   7.183 -1.1555 -0.1108 -0.0808
  167SOPE   H5R18797   5.387   3.832   7.222 -1.1443  0.7762 -1.2025
  167SOPE   H5S18798   5.434   3.692   7.129  2.4015 -1.2059 -1.2559
  167SOPE   C2618799   5.558   3.730   7.301  0.4506  0.8443  0.0964
  167SOPE   H6R18800   5.538   3.626   7.336  1.9203  1.4309  2.7753
  167SOPE   H6S18801   5.661   3.723   7.260  1.1212  1.0948  1.6988
  167SOPE   C2718802   5.542   3.810   7.431  0.3945 -0.0801 -0.1723
  167SOPE   H7R18803   5.434   3.831   7.444  0.2008 -0.4183 -1.1942
  167SOPE   H7S18804   5.583   3.755   7.518  3.5849  0.6083 -1.1609
  167SOPE   C2818805   5.607   3.949   7.443  0.1866 -0.2253  0.3170
  167SOPE   H8R18806   5.559   4.013   7.366 -2.5696 -1.5840  0.8349
  167SOPE   H8S18807   5.580   3.993   7.541 -2.2849  1.2788 -0.9991
  167SOPE   C2918808   5.754   3.939   7.423 -0.3694  0.5637 -0.2175
  167SOPE   H9118809   5.789   3.964   7.322 -0.7009  0.8071 -0.2735
  167SOPE  C21018810   5.851   3.909   7.519  0.8152 -0.3225  0.0554
  167SOPE  H10118811   5.957   3.908   7.491  0.7502 -0.3144 -0.1907
  167SOPE  C21118812   5.823   3.869   7.665 -0.1366 -0.1985 -0.1020
  167SOPE  H11R18813   5.855   3.764   7.679 -0.0927 -0.5949 -2.8635
  167SOPE  H11S18814   5.722   3.894   7.704 -0.0422 -0.9204  0.6150
  167SOPE  C21218815   5.931   3.937   7.751  0.2821  0.2448  0.3219
  167SOPE  H12R18816   5.954   4.042   7.725 -0.5331  0.4422  0.3978
  167SOPE  H12S18817   6.022   3.872   7.750  1.2596  1.6011 -0.6108
  167SOPE  C21318818   5.885   3.958   7.895  0.5319  0.2188 -0.3007
  167SOPE  H13R18819   5.848   3.860   7.931 -1.1846  1.0459  0.2321
  167SOPE  H13S18820   5.798   4.026   7.904  0.2996  0.4889 -3.9090
  167SOPE  C21418821   5.996   4.014   7.976  0.4027 -0.3025 -0.4989
  167SOPE  H14R18822   6.021   4.121   7.959  2.9689 -0.8133 -0.0587
  167SOPE  H14S18823   6.089   3.957   7.955  1.2864  0.2754  1.7313
  167SOPE  C21518824   5.979   3.992   8.126  0.4906 -0.0480  0.0500
  167SOPE  H15R18825   6.065   4.045   8.173  1.5004 -2.3272  0.8634
  167SOPE  H15S18826   5.988   3.882   8.137 -2.2158 -0.1856  1.2354
  167SOPE  C21618827   5.849   4.049   8.185 -0.4161 -0.4772 -0.3411
  167SOPE  H16R18828   5.766   4.001   8.129  0.0711  0.8459 -2.2168
  167SOPE  H16S18829   5.836   4.158   8.171 -0.5735 -0.3778  0.5486
  167SOPE  C21718830   5.837   4.030   8.339 -0.4162  0.0625 -0.0624
  167SOPE  H17R18831   5.746   4.084   8.375  1.4427  1.3732  2.8029
  167SOPE  H17S18832   5.912   4.094   8.390 -0.6211 -1.2310  1.9380
  167SOPE  C21818833   5.851   3.890   8.397  0.6856  0.1775 -0.3004
  167SOPE  H18R18834   5.944   3.842   8.362 -0.0037 -0.6084 -1.0505
  167SOPE  H18S18835   5.760   3.840   8.358  1.8577  0.1129 -3.0921
  167SOPE  H18T18836   5.830   3.878   8.506  1.9423  0.1451 -0.0559
  167SOPE   C3318837   6.334   4.055   6.709  0.2261  0.2755 -0.4447
  167SOPE   H3X18838   6.316   4.160   6.679 -2.0006 -0.1698 -0.7686
  167SOPE   H3Y18839   6.389   4.010   6.624  0.9957  0.3875 -0.0067
  167SOPE   C3418840   6.431   4.054   6.828  0.6617  0.5625 -0.0427
  167SOPE   H4X18841   6.368   4.083   6.914 -0.2843  0.2108 -0.6034
  167SOPE   H4Y18842   6.520   4.116   6.805  1.5206 -0.8759 -0.6546
  167SOPE   C3518843   6.512   3.924   6.848  0.1123 -0.8476 -0.0725
  167SOPE   H5X18844   6.584   3.913   6.764  2.0727  2.9802  1.0048
  167SOPE   H5Y18845   6.445   3.836   6.856 -0.0364 -0.5050  3.1228
  167SOPE   C3618846   6.598   3.919   6.981  0.4751  0.6245  0.5210
  167SOPE   H6X18847   6.685   3.986   6.965  2.3444 -1.1020  2.9305
  167SOPE   H6Y18848   6.643   3.819   6.995  0.3306  0.2275 -1.7092
  167SOPE   C3718849   6.525   3.961   7.108  0.0645  0.1221  0.5413
  167SOPE   H7X18850   6.427   3.910   7.122 -1.2814  2.2743 -0.7364
  167SOPE   H7Y18851   6.499   4.066   7.081 -0.4104 -0.0738  0.2302
  167SOPE   C3818852   6.602   3.949   7.235  0.1180 -0.3183 -0.7847
  167SOPE   H8X18853   6.699   4.003   7.236  0.2623 -0.5626  1.7079
  167SOPE   H8Y18854   6.638   3.845   7.247 -0.4955 -0.5411 -0.8725
  167SOPE   C3918855   6.527   3.998   7.356  0.2610  0.2859  0.1005
  167SOPE   H9X18856   6.422   3.960   7.350  0.5516 -0.3852 -0.9478
  167SOPE   H9Y18857   6.507   4.107   7.362  0.3111  0.1730  3.0621
  167SOPE  C31018858   6.575   3.951   7.492 -0.0762  0.1703  0.3204
  167SOPE  H10X18859   6.681   3.979   7.507 -0.2777  1.0014  0.1775
  167SOPE  H10Y18860   6.569   3.840   7.499 -0.3271  0.3434  3.5314
  167SOPE  C31118861   6.500   4.026   7.603  0.1923  0.0814  0.2896
  167SOPE  H11X18862   6.393   4.045   7.579  0.2999 -0.7158 -0.8117
  167SOPE  H11Y18863   6.549   4.126   7.601 -0.5019  0.5676  3.5910
  167SOPE  C31218864   6.509   3.966   7.744 -0.2510  0.0808 -0.1401
  167SOPE  H12X18865   6.500   3.855   7.736  0.3312  0.1005 -1.0765
  167SOPE  H12Y18866   6.420   3.991   7.805 -0.7995 -2.3201  0.1023
  167SOPE  C31318867   6.645   3.993   7.809 -0.6515 -0.2482  0.0143
  167SOPE  H13X18868   6.716   3.952   7.734  0.7477  0.8786  0.7031
  167SOPE  H13Y18869   6.645   3.933   7.903 -1.1775 -0.5435 -0.1701
  167SOPE  C31418870   6.680   4.145   7.834  0.3049 -0.3947  0.1604
  167SOPE  H14X18871   6.587   4.182   7.882  0.5131  0.2047  0.1016
  167SOPE  H14Y18872   6.693   4.198   7.738 -1.8481  1.8593  1.0864
  167SOPE  C31518873   6.812   4.150   7.916 -0.4092 -0.2820  0.4793
  167SOPE  H15X18874   6.833   4.257   7.936 -0.3983  0.6581 -4.0309
  167SOPE  H15Y18875   6.888   4.121   7.840 -0.3159 -1.6012  1.0531
  167SOPE  C31618876   6.834   4.059   8.040  0.0439  0.2187 -0.0892
  167SOPE  H16X18877   6.933   4.080   8.085  0.0165 -0.2343  0.1847
  167SOPE  H16Y18878   6.836   3.953   8.006  0.9141  0.5585 -1.1122
  167SOPE  C31718879   6.723   4.076   8.150  0.5113  0.4629 -0.8572
  167SOPE  H17X18880   6.627   4.040   8.107 -0.3072  2.1580 -0.4990
  167SOPE  H17Y18881   6.701   4.179   8.186 -1.9477 -1.1386  2.4724
  167SOPE  C31818882   6.748   3.985   8.268 -0.0270 -0.3714  0.4547
  167SOPE  H18X18883   6.851   4.015   8.296 -0.3312  2.4812 -1.3484
  167SOPE  H18Y18884   6.740   3.877   8.241  2.4352 -0.2200 -1.0643
  167SOPE  H18Z18885   6.671   4.001   8.346 -0.7186 -0.7979 -0.1287
  168SOPE     N18886   4.992   0.682   6.502  0.2540 -0.7533 -0.2300
  168SOPE   HN118887   4.941   0.608   6.449 -0.0867 -0.7976  0.1534
  168SOPE   HN218888   5.095   0.672   6.494  0.3963  0.3683  0.1988
  168SOPE   HN318889   4.970   0.676   6.604  0.3156  2.3377  0.0213
  168SOPE   C1218890   4.954   0.826   6.464 -0.1617 -0.0286 -0.0586
  168SOPE  H12A18891   4.874   0.853   6.536  2.8815  3.7679  2.0391
  168SOPE  H12B18892   4.931   0.832   6.355  0.3085  1.0843 -0.1025
  168SOPE   C1118893   5.074   0.924   6.486 -0.2219 -0.5372  0.3562
  168SOPE  H11A18894   5.119   0.922   6.587 -0.6375  1.3745  0.6012
  168SOPE  H11B18895   5.032   1.027   6.481  1.9609  0.3675  0.3649
  168SOPE     P18896   5.301   0.809   6.395 -0.3267  0.1802 -0.3268
  168SOPE   O1318897   5.404   0.847   6.298 -0.0138  0.6416 -0.4815
  168SOPE   O1418898   5.243   0.673   6.396 -0.5967 -0.7697  0.2416
  168SOPE   O1218899   5.173   0.904   6.385  0.1059 -0.2110 -0.2200
  168SOPE   O1118900   5.356   0.829   6.544  0.4400 -0.1476  0.6029
  168SOPE    C118901   5.461   0.925   6.570 -0.2228 -0.2900 -0.0225
  168SOPE    HA18902   5.447   0.988   6.660  0.6001  2.5372 -1.7993
  168SOPE    HB18903   5.475   0.998   6.487  0.9810  0.7682  1.0963
  168SOPE    C218904   5.589   0.843   6.601  0.1266 -0.1653 -0.1123
  168SOPE    HS18905   5.612   0.785   6.509 -1.3540 -0.6457 -0.1954
  168SOPE   O2118906   5.559   0.764   6.714  0.0336  0.0792  0.0276
  168SOPE   C2118907   5.629   0.654   6.739 -0.2554 -0.7243 -0.0550
  168SOPE   O2218908   5.697   0.596   6.658  0.0086  0.0089 -0.0521
  168SOPE   C2218909   5.616   0.614   6.888  0.2381 -0.1275 -0.2943
  168SOPE   H2R18910   5.689   0.535   6.918  0.4671  0.5890  1.0704
  168SOPE   H2S18911   5.514   0.571   6.899  0.7273 -1.3777 -0.4951
  168SOPE    C318912   5.725   0.930   6.624  0.3091 -0.0834 -0.9383
  168SOPE    HX18913   5.736   0.986   6.528 -0.0716  0.2296 -0.8015
  168SOPE    HY18914   5.809   0.859   6.634 -0.2947 -0.7010 -0.2701
  168SOPE   O3118915   5.716   1.015   6.740 -0.0463  0.0921  0.5185
  168SOPE   C3118916   5.683   1.148   6.714  0.0288  0.4436 -0.3014
  168SOPE   O3218917   5.659   1.203   6.609 -0.0951 -0.2548  0.2666
  168SOPE   C3218918   5.699   1.227   6.843 -0.6524 -0.6559  0.2036
  168SOPE   H2X18919   5.718   1.330   6.807 -3.9956  0.2782  0.9720
  168SOPE   H2Y18920   5.800   1.205   6.884 -0.5806 -0.9137 -0.1051
  168SOPE   C2318921   5.628   0.726   6.993 -0.5622 -0.1745 -0.5609
  168SOPE   H3R18922   5.561   0.812   6.973  0.6205  1.0279  0.5518
  168SOPE   H3S18923   5.723   0.783   6.987  0.1788 -1.4968 -1.6264
  168SOPE   C2418924   5.598   0.670   7.136 -0.1760  0.2991 -0.1233
  168SOPE   H4R18925   5.492   0.639   7.126  0.4537 -1.9985 -0.0513
  168SOPE   H4S18926   5.662   0.581   7.156 -0.7344  0.4472  2.4670
  168SOPE   C2518927   5.625   0.772   7.241  0.1940  0.3691 -0.0435
  168SOPE   H5R18928   5.734   0.795   7.249  0.2095  0.3709 -0.2600
  168SOPE   H5S18929   5.589   0.875   7.221  2.5875  1.3681  0.5139
  168SOPE   C2618930   5.590   0.725   7.383  0.2129  0.0318 -0.4275
  168SOPE   H6R18931   5.626   0.622   7.404 -0.1747  0.2205  1.2569
  168SOPE   H6S18932   5.642   0.796   7.451 -1.4474  0.4271  0.4538
  168SOPE   C2718933   5.440   0.742   7.417  0.2775  0.3201  0.0437
  168SOPE   H7R18934   5.404   0.843   7.391  0.7134  0.6398  0.6550
  168SOPE   H7S18935   5.381   0.671   7.355  0.7553  0.2886 -0.3796
  168SOPE   C2818936   5.405   0.724   7.563  0.1885  0.8280  1.1976
  168SOPE   H8R18937   5.431   0.816   7.619 -0.7771  2.5476 -1.0832
  168SOPE   H8S18938   5.294   0.713   7.557  0.2032  0.4029  1.6679
  168SOPE   C2918939   5.467   0.600   7.633  0.2302  0.0333  0.8510
  168SOPE   H9118940   5.468   0.516   7.562  0.4660  1.4462 -0.8465
  168SOPE  C21018941   5.540   0.599   7.744  0.6720  0.2955 -0.4171
  168SOPE  H10118942   5.589   0.506   7.775 -0.6824 -0.1248  0.5180
  168SOPE  C21118943   5.583   0.717   7.821  0.1999 -0.4987  0.2121
  168SOPE  H11R18944   5.513   0.799   7.794  0.5278 -0.5231 -0.7524
  168SOPE  H11S18945   5.681   0.750   7.782  0.1912  0.1778  0.7614
  168SOPE  C21218946   5.592   0.696   7.975 -0.0032 -0.0976  0.0363
  168SOPE  H12R18947   5.511   0.631   8.016  1.3136 -0.6565  1.8541
  168SOPE  H12S18948   5.568   0.790   8.030 -1.8965  1.4055 -3.2678
  168SOPE  C21318949   5.732   0.639   8.021 -0.0023 -0.7755  0.2357
  168SOPE  H13R18950   5.810   0.668   7.948 -1.4077 -1.9077 -1.7564
  168SOPE  H13S18951   5.731   0.528   8.016  0.0684 -0.8180  1.0774
  168SOPE  C21418952   5.761   0.692   8.155 -0.2984  0.1604 -0.2952
  168SOPE  H14R18953   5.687   0.661   8.232 -0.5444  0.6861 -0.3175
  168SOPE  H14S18954   5.762   0.802   8.172  0.6444 -0.1722  1.9239
  168SOPE  C21518955   5.897   0.639   8.206  0.1411 -0.0516 -0.2001
  168SOPE  H15R18956   5.963   0.632   8.117  0.3398  0.4576 -0.0928
  168SOPE  H15S18957   5.892   0.537   8.251 -2.2709  0.0685 -0.1582
  168SOPE  C21618958   5.959   0.735   8.306  0.3607 -0.7341  0.2225
  168SOPE  H16R18959   5.895   0.738   8.397 -0.6417  0.1107 -0.4923
  168SOPE  H16S18960   5.959   0.840   8.269  2.7967 -0.4547  0.9693
  168SOPE  C21718961   6.092   0.685   8.359 -0.2423 -0.3108  0.0719
  168SOPE  H17R18962   6.165   0.673   8.276  0.5979  0.6243  0.6549
  168SOPE  H17S18963   6.084   0.588   8.413  1.7262 -0.9458 -0.7326
  168SOPE  C21818964   6.152   0.789   8.463 -0.2582  0.2999  0.4874
  168SOPE  H18R18965   6.072   0.840   8.520 -1.4095  0.7731 -1.5011
  168SOPE  H18S18966   6.191   0.874   8.403 -1.4661  0.9481  0.6159
  168SOPE  H18T18967   6.227   0.751   8.535 -0.0279  1.1917  0.7159
  168SOPE   C3318968   5.596   1.210   6.957 -0.1694  0.5904  0.7076
  168SOPE   H3X18969   5.585   1.101   6.976 -0.2993  0.7674  1.6401
  168SOPE   H3Y18970   5.498   1.248   6.920  0.6707  2.5348  0.4522
  168SOPE   C3418971   5.636   1.267   7.092  0.5343  0.4554  0.2747
  168SOPE   H4X18972   5.658   1.376   7.101  0.3786  0.6742 -1.8568
  168SOPE   H4Y18973   5.736   1.228   7.123  2.7483  4.2690 -1.6288
  168SOPE   C3518974   5.527   1.240   7.201  0.7523 -0.0436  0.7350
  168SOPE   H5X18975   5.492   1.135   7.212 -0.1345  0.1072 -0.5103
  168SOPE   H5Y18976   5.439   1.297   7.163  0.3040 -1.0746  0.2119
  168SOPE   C3618977   5.562   1.298   7.336 -0.1537  0.0119 -0.1117
  168SOPE   H6X18978   5.591   1.405   7.337 -0.9058  0.2293 -1.0782
  168SOPE   H6Y18979   5.648   1.246   7.385 -0.1216 -0.5618 -0.7702
  168SOPE   C3718980   5.442   1.284   7.434 -0.8139 -0.4554 -0.8927
  168SOPE   H7X18981   5.414   1.178   7.450 -0.4865 -0.4259 -0.1171
  168SOPE   H7Y18982   5.358   1.346   7.395 -0.2468  2.0820  1.7448
  168SOPE   C3818983   5.470   1.350   7.568 -0.2451 -0.4100  0.6733
  168SOPE   H8X18984   5.375   1.330   7.622 -0.6209  0.3908  0.3222
  168SOPE   H8Y18985   5.492   1.458   7.553  0.5967 -0.5385  0.9456
  168SOPE   C3918986   5.591   1.294   7.646  0.5644  0.0498  0.4040
  168SOPE   H9X18987   5.684   1.340   7.606  0.6782 -0.1298  0.4652
  168SOPE   H9Y18988   5.607   1.187   7.620  0.6215 -0.2268  1.5559
  168SOPE  C31018989   5.574   1.307   7.793 -0.7186 -0.3250 -0.8731
  168SOPE  H10X18990   5.506   1.231   7.836 -0.2476 -0.1046  0.2735
  168SOPE  H10Y18991   5.530   1.404   7.826 -0.4491 -0.1429 -1.0475
  168SOPE  C31118992   5.700   1.272   7.880 -0.5503  0.4233  0.2408
  168SOPE  H11X18993   5.688   1.293   7.988  0.7668  3.2975 -0.1161
  168SOPE  H11Y18994   5.773   1.346   7.841 -0.2684  0.0221  0.0015
  168SOPE  C31218995   5.748   1.132   7.854  0.6324  0.1912  0.0269
  168SOPE  H12X18996   5.763   1.120   7.745 -0.1569  0.3544 -0.1044
  168SOPE  H12Y18997   5.677   1.054   7.888  1.4750 -0.6230 -0.0696
  168SOPE  C31318998   5.888   1.116   7.916  0.4087 -0.1964 -0.1146
  168SOPE  H13X18999   5.876   1.129   8.026 -0.3184 -0.3780 -0.1693
  168SOPE  H13Y19000   5.946   1.204   7.879 -2.5263  2.3755  1.1542
  168SOPE  C31419001   5.960   0.983   7.892 -0.0760  0.3661 -0.6132
  168SOPE  H14X19002   5.963   0.969   7.782 -0.4227  0.9799 -0.7022
  168SOPE  H14Y19003   5.902   0.904   7.943  1.3029  2.1063  3.9259
  168SOPE  C31519004   6.102   0.983   7.944  0.7120 -0.4298 -0.0181
  168SOPE  H15X19005   6.107   1.005   8.053  0.8846 -2.2176  0.3499
  168SOPE  H15Y19006   6.153   1.072   7.900 -0.4165  0.3901  0.3278
  168SOPE  C31619007   6.178   0.857   7.901  0.1678  0.4140 -0.0264
  168SOPE  H16X19008   6.171   0.847   7.791 -2.6555  1.2174  0.0433
  168SOPE  H16Y19009   6.117   0.770   7.935 -0.2607  0.4305 -0.7583
  168SOPE  C31719010   6.325   0.854   7.951  0.5259  0.2553  0.8143
  168SOPE  H17X19011   6.394   0.937   7.924  1.4722 -0.9264 -0.4178
  168SOPE  H17Y19012   6.366   0.770   7.892 -2.2746 -0.0603 -0.7750
  168SOPE  C31819013   6.350   0.805   8.095 -0.5745 -0.1468 -0.0479
  168SOPE  H18X19014   6.306   0.705   8.112  0.8268 -0.7367  0.1512
  168SOPE  H18Y19015   6.292   0.877   8.158 -0.1108 -0.8212  1.1546
  168SOPE  H18Z19016   6.458   0.797   8.117 -0.2648  0.7916 -1.1771
  169SOPE     N19017   0.983   3.064   5.967 -0.3466 -0.7347  0.3618
  169SOPE   HN119018   0.921   3.131   6.016 -0.6943 -1.1570  0.5084
  169SOPE   HN219019   1.069   3.112   5.932  0.3507 -1.3070  1.2511
  169SOPE   HN319020   0.930   3.038   5.882 -1.4354 -0.5382  0.9808
  169SOPE   C1219021   0.998   2.939   6.055 -0.4931 -0.0877  0.1216
  169SOPE  H12A19022   1.042   2.855   5.997  1.5613 -1.0666  3.0163
  169SOPE  H12B19023   0.895   2.908   6.083  0.0152 -0.8483  1.1896
  169SOPE   C1119024   1.095   2.973   6.175  0.2335 -0.1085  0.4197
  169SOPE  H11A19025   1.200   2.976   6.140  0.1812 -1.5447  0.1133
  169SOPE  H11B19026   1.083   2.883   6.239  2.7419 -0.4066  0.5034
  169SOPE     P19027   0.953   3.096   6.362  0.5561  0.1845 -0.0145
  169SOPE   O1319028   0.845   3.004   6.318 -0.4277  0.3198  0.1163
  169SOPE   O1419029   0.917   3.238   6.392 -0.1109  0.4953 -0.2735
  169SOPE   O1219030   1.059   3.092   6.243  0.2764 -1.0327  0.0856
  169SOPE   O1119031   1.023   3.034   6.485 -0.1034 -0.5217  0.3457
  169SOPE    C119032   1.143   3.080   6.549 -0.2562  0.0414  0.3561
  169SOPE    HA19033   1.195   3.174   6.517 -0.2860  0.0029  0.1942
  169SOPE    HB19034   1.212   2.992   6.550 -0.4161 -0.2480 -4.0170
  169SOPE    C219035   1.132   3.109   6.706  0.2312 -0.1016 -0.4613
  169SOPE    HS19036   1.232   3.144   6.740 -0.1959 -0.6263  1.4244
  169SOPE   O2119037   1.095   2.984   6.765 -0.5715 -0.2332  0.5801
  169SOPE   C2119038   1.133   2.961   6.884  0.2710  0.3071 -0.3698
  169SOPE   O2219039   1.204   3.031   6.952 -0.0338  0.2447 -0.0115
  169SOPE   C2219040   1.107   2.814   6.923  0.0323 -0.8030  0.6597
  169SOPE   H2R19041   1.146   2.741   6.848  0.0509 -0.0613 -0.0614
  169SOPE   H2S19042   0.997   2.802   6.923  0.0401 -1.0211 -0.4956
  169SOPE    C319043   1.025   3.222   6.731 -0.5459  0.1898  0.2932
  169SOPE    HX19044   0.924   3.176   6.726 -0.1153 -0.7906  0.3606
  169SOPE    HY19045   1.020   3.297   6.650  0.0248  0.3945  0.4498
  169SOPE   O3119046   1.037   3.280   6.864 -0.3471 -0.1845 -0.1735
  169SOPE   C3119047   1.144   3.360   6.868 -0.1587 -0.8675 -0.3875
  169SOPE   O3219048   1.212   3.379   6.771 -0.4372 -0.5484  0.3305
  169SOPE   C3219049   1.165   3.421   7.007 -0.3324 -0.7061  0.0739
  169SOPE   H2X19050   1.168   3.530   6.989  2.6267 -0.7952 -0.1794
  169SOPE   H2Y19051   1.266   3.393   7.043 -1.1992 -0.9334  2.4609
  169SOPE   C2319052   1.161   2.771   7.061 -0.1530  0.7915  0.0622
  169SOPE   H3R19053   1.266   2.806   7.056 -0.1518  0.6569 -0.9447
  169SOPE   H3S19054   1.156   2.660   7.070  0.5729  0.8478  1.3330
  169SOPE   C2419055   1.093   2.836   7.177  0.4124  0.7016 -0.0714
  169SOPE   H4R19056   1.101   2.947   7.167  1.3824  0.6715  0.3695
  169SOPE   H4S19057   0.986   2.809   7.189  0.7769 -0.2803  1.0062
  169SOPE   C2519058   1.168   2.825   7.305  0.9714 -0.4843  0.1824
  169SOPE   H5R19059   1.168   2.721   7.345 -1.0047 -0.6285 -0.1325
  169SOPE   H5S19060   1.271   2.859   7.282  0.4904  0.3312 -0.7931
  169SOPE   C2619061   1.101   2.913   7.418  0.7686 -0.4832 -0.2646
  169SOPE   H6R19062   1.088   3.011   7.368 -1.8039 -0.6252  0.0662
  169SOPE   H6S19063   1.000   2.873   7.441  0.2428  1.0529  0.1291
  169SOPE   C2719064   1.179   2.912   7.543  0.4859  0.1130  0.9749
  169SOPE   H7R19065   1.200   2.806   7.570  2.7275  0.1220 -0.6334
  169SOPE   H7S19066   1.284   2.947   7.532  0.0468  1.0370 -0.3753
  169SOPE   C2819067   1.124   2.979   7.669 -0.6532  1.0874 -0.0238
  169SOPE   H8R19068   1.109   3.087   7.651 -1.1156  1.1416  0.6554
  169SOPE   H8S19069   1.025   2.931   7.686  0.4932 -1.2819  0.2174
  169SOPE   C2919070   1.214   2.967   7.788 -0.0740  0.5583 -0.3702
  169SOPE   H9119071   1.316   2.968   7.748 -1.1769 -0.3175 -3.3947
  169SOPE  C21019072   1.174   2.930   7.911 -0.9574  0.9294 -0.4102
  169SOPE  H10119073   1.241   2.927   7.998 -1.5544  2.6395  0.1224
  169SOPE  C21119074   1.033   2.913   7.964 -0.5445 -0.3450 -0.1336
  169SOPE  H11R19075   1.050   2.895   8.072 -0.5638 -3.7676 -0.6224
  169SOPE  H11S19076   0.991   2.824   7.911 -1.2981 -2.2289  3.4288
  169SOPE  C21219077   0.939   3.037   7.939  0.2369  0.3083  0.0840
  169SOPE  H12R19078   0.899   3.046   7.836 -0.0695 -1.7455  0.0018
  169SOPE  H12S19079   1.004   3.126   7.953  0.8222 -0.1525  0.3398
  169SOPE  C21319080   0.806   3.028   8.024 -0.3409 -0.2763  0.8767
  169SOPE  H13R19081   0.826   3.018   8.133  1.5436 -0.2912  0.5413
  169SOPE  H13S19082   0.758   2.929   8.008  0.3869 -0.5672  0.4866
  169SOPE  C21419083   0.709   3.144   8.001  0.2744 -0.3385  0.1656
  169SOPE  H14R19084   0.717   3.172   7.893  1.1867 -0.4496  0.1985
  169SOPE  H14S19085   0.737   3.233   8.061 -2.5301  1.2940 -0.8900
  169SOPE  C21519086   0.564   3.109   8.028  0.8859  0.2976  0.0358
  169SOPE  H15R19087   0.556   3.101   8.138 -0.1470 -0.4846 -0.0944
  169SOPE  H15S19088   0.539   3.007   7.990  0.7323 -0.8675  3.1367
  169SOPE  C21619089   0.466   3.208   7.971  0.5637  0.4744 -0.3229
  169SOPE  H16R19090   0.468   3.205   7.860  0.1818 -1.3460 -0.3063
  169SOPE  H16S19091   0.489   3.309   8.009  0.4885  0.2318  0.3864
  169SOPE  C21719092   0.315   3.184   8.007 -0.6095  0.0817 -0.7853
  169SOPE  H17R19093   0.296   3.075   8.011  2.8102 -0.5694 -0.6178
  169SOPE  H17S19094   0.252   3.241   7.936 -0.2436  2.2486  0.5593
  169SOPE  C21819095   0.262   3.247   8.141 -0.0481  0.0845 -0.3762
  169SOPE  H18R19096   0.151   3.257   8.139 -0.0918 -0.0586  0.7901
  169SOPE  H18S19097   0.300   3.352   8.137 -0.9869  0.3593 -2.8954
  169SOPE  H18T19098   0.298   3.205   8.237 -0.6391  0.5224  0.0396
  169SOPE   C3319099   1.056   3.389   7.108 -0.5134 -0.1756 -0.5425
  169SOPE   H3X19100   1.029   3.281   7.116 -0.6541 -0.0721  0.5576
  169SOPE   H3Y19101   0.960   3.440   7.085 -0.7175  1.3221  3.1572
  169SOPE   C3419102   1.092   3.441   7.252 -0.3572 -0.2816  0.3401
  169SOPE   H4X19103   1.025   3.388   7.323 -2.0912 -0.6201 -1.4914
  169SOPE   H4Y19104   1.060   3.548   7.257  0.3881  0.0655 -1.7009
  169SOPE   C3519105   1.240   3.420   7.302  0.2170 -0.1112  0.0098
  169SOPE   H5X19106   1.321   3.455   7.235  1.3649  0.6866  1.7702
  169SOPE   H5Y19107   1.244   3.309   7.307 -1.3500 -0.1416  0.9801
  169SOPE   C3619108   1.254   3.489   7.435  0.3720  0.0601  0.3196
  169SOPE   H6X19109   1.191   3.580   7.425 -1.4251 -1.3892 -2.2198
  169SOPE   H6Y19110   1.360   3.517   7.453  1.3864 -1.8284 -2.4351
  169SOPE   C3719111   1.212   3.394   7.546 -0.1620  0.3141  0.6670
  169SOPE   H7X19112   1.277   3.304   7.549  1.2442  1.2355 -1.3666
  169SOPE   H7Y19113   1.104   3.372   7.532  0.0420  0.6342 -1.4702
  169SOPE   C3819114   1.236   3.461   7.692 -0.5278 -0.3495 -0.0827
  169SOPE   H8X19115   1.347   3.470   7.700 -0.3580 -1.6476 -0.7884
  169SOPE   H8Y19116   1.188   3.561   7.700  0.0112 -0.1839  1.2343
  169SOPE   C3919117   1.188   3.357   7.789  0.2078  0.6535 -0.4557
  169SOPE   H9X19118   1.242   3.263   7.764  1.2442  1.4341 -1.2259
  169SOPE   H9Y19119   1.080   3.340   7.774 -0.0292 -1.6326  3.0226
  169SOPE  C31019120   1.192   3.399   7.939  0.2596  0.0963 -0.1211
  169SOPE  H10X19121   1.167   3.317   8.009 -0.9178  0.3837 -0.2001
  169SOPE  H10Y19122   1.124   3.485   7.956 -1.5603 -1.1235 -1.1455
  169SOPE  C31119123   1.330   3.457   7.987  0.4169 -0.0126 -0.4573
  169SOPE  H11X19124   1.351   3.557   7.943 -0.6974  0.2978 -0.2858
  169SOPE  H11Y19125   1.411   3.388   7.954  1.8026  0.9420  0.8528
  169SOPE  C31219126   1.351   3.457   8.142  0.2038 -0.1665  0.1769
  169SOPE  H12X19127   1.247   3.463   8.183 -0.0110  4.9326 -0.8438
  169SOPE  H12Y19128   1.407   3.549   8.168  0.4437 -0.0365 -0.7769
  169SOPE  C31319129   1.419   3.337   8.194 -0.2995 -0.9741 -0.9682
  169SOPE  H13X19130   1.522   3.324   8.153 -0.3159 -1.5249 -0.8290
  169SOPE  H13Y19131   1.363   3.248   8.158  0.3133 -2.5767  1.8901
  169SOPE  C31419132   1.430   3.328   8.352  0.2708  0.4078 -0.7094
  169SOPE  H14X19133   1.487   3.237   8.382 -2.9495 -0.9832  1.4377
  169SOPE  H14Y19134   1.328   3.324   8.395 -0.5063  0.0998 -2.5304
  169SOPE  C31519135   1.503   3.446   8.421  0.2076 -0.8193  0.0706
  169SOPE  H15X19136   1.436   3.534   8.410  0.8457 -0.1257  1.5264
  169SOPE  H15Y19137   1.603   3.452   8.374  0.3642  2.2247  0.7250
  169SOPE  C31619138   1.523   3.434   8.573 -0.3560  0.7433  0.1005
  169SOPE  H16X19139   1.580   3.527   8.595 -0.6530  1.7193 -3.0373
  169SOPE  H16Y19140   1.583   3.341   8.582 -1.0053  0.1422 -1.5897
  169SOPE  C31719141   1.397   3.415   8.658 -0.9004  0.1417  0.7547
  169SOPE  H17X19142   1.428   3.385   8.760 -1.0069  2.9637  1.6520
  169SOPE  H17Y19143   1.331   3.331   8.627  0.2095  0.4722 -2.7600
  169SOPE  C31819144   1.324   3.545   8.681  0.4344 -0.4805 -0.0729
  169SOPE  H18X19145   1.394   3.625   8.712  0.4237 -1.8245  3.5798
  169SOPE  H18Y19146   1.249   3.541   8.762  2.1921  0.8195  1.6565
  169SOPE  H18Z19147   1.274   3.588   8.591 -1.9385 -1.8256  0.5504
  170SOPE     N19148   1.717   1.269   6.638  0.0769 -0.3753  0.1092
  170SOPE   HN119149   1.709   1.371   6.658 -0.9247 -0.2495 -0.9033
  170SOPE   HN219150   1.746   1.223   6.726 -0.4947  1.8367  1.4937
  170SOPE   HN319151   1.800   1.272   6.574 -0.9863  1.9635 -1.2314
  170SOPE   C1219152   1.594   1.220   6.565 -0.1766  0.1718  0.5169
  170SOPE  H12A19153   1.506   1.216   6.633  0.8982 -0.1580  1.9199
  170SOPE  H12B19154   1.620   1.113   6.547  3.6152  1.2094 -0.6470
  170SOPE   C1119155   1.558   1.298   6.439 -0.1652 -0.1038  0.4527
  170SOPE  H11A19156   1.481   1.240   6.383 -0.1925 -0.1550  0.5422
  170SOPE  H11B19157   1.651   1.310   6.380 -0.3807 -1.5447 -0.2212
  170SOPE     P19158   1.593   1.558   6.459 -0.0637 -0.0286  0.0537
  170SOPE   O1319159   1.502   1.677   6.460  0.0907 -1.0184 -0.3867
  170SOPE   O1419160   1.684   1.551   6.341  0.2535 -0.1907  0.5031
  170SOPE   O1219161   1.502   1.431   6.460 -0.7194  0.2682  0.1708
  170SOPE   O1119162   1.669   1.543   6.595 -0.3632  0.4253 -0.6492
  170SOPE    C119163   1.705   1.653   6.675  0.4721  0.0670 -0.1024
  170SOPE    HA19164   1.621   1.726   6.678 -1.1094 -1.7815  1.3906
  170SOPE    HB19165   1.799   1.698   6.636 -0.7087 -0.0704 -3.2586
  170SOPE    C219166   1.730   1.613   6.824  1.0630 -0.2754  0.5036
  170SOPE    HS19167   1.750   1.707   6.879  0.1132  0.1028  0.2164
  170SOPE   O2119168   1.834   1.515   6.845 -0.3193 -0.1799  0.5850
  170SOPE   C2119169   1.962   1.556   6.835 -0.9486 -0.0228 -0.4950
  170SOPE   O2219170   2.004   1.669   6.803 -0.0481  0.0313 -0.1966
  170SOPE   C2219171   2.053   1.433   6.861  1.0141 -0.0504  0.0141
  170SOPE   H2R19172   2.156   1.456   6.828  0.1481  1.7173 -1.5286
  170SOPE   H2S19173   2.014   1.351   6.796  0.4379 -0.1117  0.4355
  170SOPE    C319174   1.602   1.539   6.869 -0.5897  0.0380 -0.1243
  170SOPE    HX19175   1.585   1.454   6.800  0.7772  0.9093 -1.5733
  170SOPE    HY19176   1.515   1.609   6.864  0.7392  1.7584  0.2791
  170SOPE   O3119177   1.612   1.501   7.007  0.0691 -0.2678 -0.2035
  170SOPE   C3119178   1.613   1.368   7.036 -0.3733 -0.3895  0.0641
  170SOPE   O3219179   1.578   1.278   6.965 -0.5739  0.0649  0.3747
  170SOPE   C3219180   1.665   1.345   7.184  0.1506 -0.3891  0.3560
  170SOPE   H2X19181   1.599   1.411   7.244  0.7038  0.5744 -0.0711
  170SOPE   H2Y19182   1.764   1.395   7.173  0.0399 -0.5895 -1.8670
  170SOPE   C2319183   2.044   1.397   7.014  0.2887  0.0682  0.9914
  170SOPE   H3R19184   2.101   1.306   7.041  1.5697  0.3105 -0.8166
  170SOPE   H3S19185   1.938   1.377   7.040  0.3756 -1.7418 -0.0238
  170SOPE   C2419186   2.099   1.512   7.116  0.9998  0.3729  0.0485
  170SOPE   H4R19187   2.208   1.518   7.094  1.2810  1.2990  1.5874
  170SOPE   H4S19188   2.058   1.611   7.085  1.9759  1.1714  1.2768
  170SOPE   C2519189   2.061   1.483   7.262 -0.3711  0.4754 -0.7296
  170SOPE   H5R19190   1.954   1.459   7.275 -0.3256 -0.2646 -1.6184
  170SOPE   H5S19191   2.110   1.385   7.283  0.8041  1.2864  0.3448
  170SOPE   C2619192   2.092   1.596   7.359  0.4168  0.3983  0.8458
  170SOPE   H6R19193   2.199   1.627   7.359  0.7399 -0.6911  0.2391
  170SOPE   H6S19194   2.040   1.693   7.342  1.9947  0.7406 -2.4389
  170SOPE   C2719195   2.052   1.576   7.504  0.1940  0.5037 -0.5787
  170SOPE   H7R19196   1.945   1.546   7.496  0.3794 -1.9202  4.1548
  170SOPE   H7S19197   2.107   1.494   7.554  1.1545  1.3912 -0.1429
  170SOPE   C2819198   2.044   1.694   7.603  0.0152 -0.1108 -0.4180
  170SOPE   H8R19199   1.968   1.763   7.562  0.9075  0.1697 -1.5941
  170SOPE   H8S19200   2.007   1.656   7.702 -2.0819  0.2884 -1.0161
  170SOPE   C2919201   2.176   1.756   7.632 -0.3444  0.4739 -0.1204
  170SOPE   H9119202   2.229   1.785   7.541  0.4609 -3.0443 -0.8391
  170SOPE  C21019203   2.246   1.770   7.753  0.0805 -0.1473 -0.1121
  170SOPE  H10119204   2.330   1.840   7.746 -0.4234  0.7427  2.3220
  170SOPE  C21119205   2.198   1.727   7.893 -0.6391  0.6485  0.2466
  170SOPE  H11R19206   2.279   1.755   7.964 -0.5883  1.2141 -0.0338
  170SOPE  H11S19207   2.180   1.618   7.899 -0.3273  0.6154  0.6133
  170SOPE  C21219208   2.071   1.796   7.954 -0.1381 -0.1821 -0.5981
  170SOPE  H12R19209   1.988   1.803   7.881  0.7062  2.0477 -1.3970
  170SOPE  H12S19210   2.101   1.896   7.992  3.5639 -1.1117 -0.8607
  170SOPE  C21319211   2.042   1.727   8.090  0.4837  0.3917  0.6724
  170SOPE  H13R19212   2.134   1.734   8.152  1.4858 -1.0928 -0.6065
  170SOPE  H13S19213   2.018   1.618   8.082 -1.2768  0.7851  0.4622
  170SOPE  C21419214   1.939   1.810   8.167  0.7287  0.7758  0.2353
  170SOPE  H14R19215   1.843   1.828   8.114  0.8254  2.3415  0.5586
  170SOPE  H14S19216   1.987   1.910   8.178 -0.0968  1.2079 -0.0782
  170SOPE  C21519217   1.915   1.755   8.312 -0.0650  0.7693 -0.1725
  170SOPE  H15R19218   2.009   1.701   8.336 -1.6170 -0.8731  2.3426
  170SOPE  H15S19219   1.834   1.680   8.304 -0.6523  1.4678 -0.8225
  170SOPE  C21619220   1.882   1.867   8.416  0.5468  0.0845 -0.2097
  170SOPE  H16R19221   1.784   1.918   8.408  0.6154  0.0681 -1.1550
  170SOPE  H16S19222   1.960   1.946   8.411  0.4602  0.0481 -2.4832
  170SOPE  C21719223   1.868   1.799   8.548 -0.7931  0.8313  0.7732
  170SOPE  H17R19224   1.951   1.725   8.558  1.0889  2.6602 -0.9518
  170SOPE  H17S19225   1.775   1.740   8.531  0.1686 -1.2109  2.2611
  170SOPE  C21819226   1.864   1.890   8.679  0.0353  0.5940 -0.1343
  170SOPE  H18R19227   1.862   1.824   8.768 -0.6927 -0.6904 -1.0789
  170SOPE  H18S19228   1.781   1.961   8.664 -1.8293 -1.2234  1.3303
  170SOPE  H18T19229   1.964   1.939   8.674  0.4424 -0.1985  0.1376
  170SOPE   C3319230   1.691   1.202   7.235 -0.1591  0.1766 -0.3492
  170SOPE   H3X19231   1.725   1.141   7.148 -1.4074 -1.5997  0.3681
  170SOPE   H3Y19232   1.591   1.169   7.268  0.2651  0.3938  1.1917
  170SOPE   C3419233   1.794   1.188   7.350 -0.7707 -0.3604  0.6562
  170SOPE   H4X19234   1.897   1.218   7.320 -0.4763  0.5798  2.4860
  170SOPE   H4Y19235   1.786   1.080   7.375 -0.8067 -0.8208 -1.3077
  170SOPE   C3519236   1.748   1.259   7.483 -0.3110  0.0440  0.4333
  170SOPE   H5X19237   1.643   1.233   7.509  0.0651 -1.2249  0.7356
  170SOPE   H5Y19238   1.758   1.369   7.473  0.3347 -0.0148  0.4105
  170SOPE   C3619239   1.840   1.228   7.598  0.7101 -0.4072  0.4668
  170SOPE   H6X19240   1.933   1.284   7.575 -0.0829  0.6203 -0.2749
  170SOPE   H6Y19241   1.859   1.119   7.599  1.1653 -0.3493 -0.9459
  170SOPE   C3719242   1.788   1.272   7.734  0.7681 -0.3156  0.6397
  170SOPE   H7X19243   1.703   1.210   7.768  1.5280 -1.9335 -0.3647
  170SOPE   H7Y19244   1.745   1.374   7.740  1.0593 -0.2551  1.9246
  170SOPE   C3819245   1.888   1.266   7.854  0.6214  0.3994  0.3324
  170SOPE   H8X19246   1.983   1.315   7.826  1.0515  0.1885  1.4052
  170SOPE   H8Y19247   1.923   1.161   7.866 -2.1194 -0.7200 -1.0226
  170SOPE   C3919248   1.842   1.322   7.990  0.5602  0.2544 -0.4922
  170SOPE   H9X19249   1.759   1.270   8.042  1.5999 -0.1118  0.8248
  170SOPE   H9Y19250   1.805   1.426   7.975  3.2352  1.3582  0.3629
  170SOPE  C31019251   1.961   1.330   8.085 -0.4111  0.1869 -0.2118
  170SOPE  H10X19252   2.031   1.408   8.048  0.1573  0.7685  2.0290
  170SOPE  H10Y19253   1.989   1.224   8.100  0.3426  0.5379  0.9484
  170SOPE  C31119254   1.924   1.387   8.227 -0.7548  0.1545  0.5234
  170SOPE  H11X19255   1.833   1.335   8.265  0.9265 -0.8302  3.3489
  170SOPE  H11Y19256   1.900   1.495   8.216 -1.7606 -0.1381 -0.2658
  170SOPE  C31219257   2.037   1.363   8.324 -0.1387  0.6460  0.0200
  170SOPE  H12X19258   2.126   1.420   8.290  1.2511  0.0906  2.5530
  170SOPE  H12Y19259   2.066   1.256   8.318  1.5703  0.9139  2.7351
  170SOPE  C31319260   1.989   1.385   8.470 -0.3024 -1.4106  0.5257
  170SOPE  H13X19261   1.954   1.287   8.509  1.1154 -2.3625 -0.4925
  170SOPE  H13Y19262   1.902   1.453   8.473  0.3673 -0.5751  1.4529
  170SOPE  C31419263   2.101   1.443   8.554 -0.1624  0.0745 -0.6392
  170SOPE  H14X19264   2.124   1.547   8.523  1.4508  0.1273  0.6648
  170SOPE  H14Y19265   2.193   1.392   8.520 -0.5255 -0.5447 -0.7015
  170SOPE  C31519266   2.073   1.429   8.705 -0.4774  0.1049  0.4526
  170SOPE  H15X19267   2.087   1.323   8.732  2.6251  0.4182  0.2582
  170SOPE  H15Y19268   1.974   1.461   8.743 -0.6808  0.5792 -0.4480
  170SOPE  C31619269   2.175   1.514   8.787 -0.1194  0.0262 -0.2326
  170SOPE  H16X19270   2.158   1.490   8.894  2.9701  0.0316  0.3018
  170SOPE  H16Y19271   2.167   1.623   8.764  2.3689  0.2665 -0.0633
  170SOPE  C31719272   2.327   1.487   8.762 -0.2085  0.3103  0.4309
  170SOPE  H17X19273   2.384   1.533   8.846  1.0729 -1.3613  0.5035
  170SOPE  H17Y19274   2.352   1.517   8.658 -3.3930 -1.3058 -0.8476
  170SOPE  C31819275   2.367   1.343   8.773  0.4714 -0.1693 -0.3831
  170SOPE  H18X19276   2.473   1.317   8.752  0.6385 -0.1831  0.4337
  170SOPE  H18Y19277   2.319   1.292   8.687 -0.1723  0.0223 -0.1429
  170SOPE  H18Z19278   2.327   1.307   8.871  0.4944  3.7181  1.1208
  171SOPE     N19279   2.572   4.383   6.506  0.2556  0.1624  0.1819
  171SOPE   HN119280   2.515   4.301   6.535  0.3191  0.6341  1.6525
  171SOPE   HN219281   2.514   4.432   6.434  0.9076 -0.9086 -1.1006
  171SOPE   HN319282   2.658   4.347   6.462  0.6339  0.8554  0.3445
  171SOPE   C1219283   2.623   4.472   6.621  0.5273  0.6004  0.2848
  171SOPE  H12A19284   2.704   4.537   6.583  0.5367 -0.0916 -0.8963
  171SOPE  H12B19285   2.662   4.411   6.705 -1.8258  0.5784  1.4260
  171SOPE   C1119286   2.502   4.553   6.675 -0.3449  0.2534  0.4800
  171SOPE  H11A19287   2.537   4.611   6.763  1.9061 -1.0144  0.4620
  171SOPE  H11B19288   2.423   4.482   6.705 -0.2282  0.1236  0.4819
  171SOPE     P19289   2.487   4.786   6.551 -0.2545  0.0556 -0.0642
  171SOPE   O1319290   2.424   4.823   6.423 -0.8257  0.2599  0.0179
  171SOPE   O1419291   2.636   4.801   6.565  0.4721  0.1327  0.6034
  171SOPE   O1219292   2.455   4.634   6.567  0.6084 -0.3229  0.2137
  171SOPE   O1119293   2.420   4.859   6.675 -0.7733 -0.8289  0.1955
  171SOPE    C119294   2.288   4.902   6.651 -0.5019  0.3383  0.4307
  171SOPE    HA19295   2.221   4.815   6.636  1.0708 -0.5518 -1.5813
  171SOPE    HB19296   2.271   4.973   6.567  0.3612 -1.7851 -1.5816
  171SOPE    C219297   2.239   4.977   6.773 -0.1261  0.2543 -1.0824
  171SOPE    HS19298   2.133   4.998   6.749 -0.2939 -1.9698 -2.4023
  171SOPE   O2119299   2.312   5.101   6.783  0.4092  0.0757 -0.6296
  171SOPE   C2119300   2.252   5.187   6.859  0.8348 -0.2154  0.0624
  171SOPE   O2219301   2.137   5.192   6.891  0.1369  0.3576  0.0061
  171SOPE   C2219302   2.363   5.283   6.905 -0.1350  0.4708 -0.6266
  171SOPE   H2R19303   2.397   5.350   6.823  0.8043 -0.7303 -1.2234
  171SOPE   H2S19304   2.442   5.215   6.941  0.1177  0.6435 -0.8513
  171SOPE    C319305   2.262   4.891   6.901  0.1560 -0.2359 -0.1088
  171SOPE    HX19306   2.372   4.875   6.900  0.2757  0.1445  2.2718
  171SOPE    HY19307   2.213   4.792   6.887 -0.0062  0.2299 -3.2205
  171SOPE   O3119308   2.216   4.948   7.028  0.0434 -0.1703  0.5227
  171SOPE   C3119309   2.086   4.944   7.042  0.0736  0.2300  0.0814
  171SOPE   O3219310   2.000   4.922   6.961  0.6963  0.1987  0.3603
  171SOPE   C3219311   2.055   5.000   7.179 -0.0372 -0.1070 -0.3605
  171SOPE   H2X19312   1.950   5.035   7.171 -0.2696 -0.6080  0.3933
  171SOPE   H2Y19313   2.120   5.090   7.190  0.7582 -0.7863  0.5198
  171SOPE   C2319314   2.302   5.377   7.016  0.4164  0.3525  0.8045
  171SOPE   H3R19315   2.197   5.402   6.991  0.5615  0.1307 -0.0207
  171SOPE   H3S19316   2.357   5.474   7.008 -0.6466  1.0337  1.5301
  171SOPE   C2419317   2.323   5.336   7.161  0.7808  0.1602 -0.0668
  171SOPE   H4R19318   2.256   5.249   7.178  1.8807 -0.9143 -1.1358
  171SOPE   H4S19319   2.427   5.300   7.179  0.3192 -0.4360  1.5147
  171SOPE   C2519320   2.294   5.456   7.256 -0.2623 -0.2520 -0.0398
  171SOPE   H5R19321   2.363   5.541   7.236  0.2221 -0.0873  2.2657
  171SOPE   H5S19322   2.192   5.489   7.225 -0.4590  2.0156  2.8019
  171SOPE   C2619323   2.296   5.425   7.406  0.3407  0.1264  0.3274
  171SOPE   H6R19324   2.398   5.397   7.439 -0.7325 -2.3557  1.6339
  171SOPE   H6S19325   2.269   5.519   7.459  0.9100  1.0801 -1.0290
  171SOPE   C2719326   2.208   5.305   7.448  0.1207  0.3945  0.3229
  171SOPE   H7R19327   2.104   5.308   7.410  0.0716  1.2055  0.4974
  171SOPE   H7S19328   2.255   5.213   7.409 -0.0555 -0.2832  1.6945
  171SOPE   C2819329   2.199   5.288   7.602  1.2186 -0.1777  0.4473
  171SOPE   H8R19330   2.142   5.194   7.613  0.7972  0.1909  1.4010
  171SOPE   H8S19331   2.299   5.291   7.650  0.7943 -0.9020  1.3695
  171SOPE   C2919332   2.128   5.395   7.681 -0.2556 -0.2183 -0.7869
  171SOPE   H9119333   2.085   5.467   7.609  1.1683  2.3200  0.8278
  171SOPE  C21019334   2.105   5.391   7.813 -0.3674  0.6309 -0.4328
  171SOPE  H10119335   2.048   5.472   7.860  0.1711  1.7628 -1.6878
  171SOPE  C21119336   2.163   5.286   7.906 -0.1471  0.3823  0.2869
  171SOPE  H11R19337   2.227   5.212   7.855  0.4999  1.2865 -0.2325
  171SOPE  H11S19338   2.077   5.224   7.940 -0.0055  0.4248  0.7345
  171SOPE  C21219339   2.261   5.336   8.011  0.2605  0.0980  0.5014
  171SOPE  H12R19340   2.217   5.417   8.073 -0.6324  0.7551 -0.9650
  171SOPE  H12S19341   2.348   5.387   7.965  2.2636  0.6657  4.7430
  171SOPE  C21319342   2.294   5.216   8.107 -0.7188  0.7598 -0.0892
  171SOPE  H13R19343   2.341   5.139   8.043 -1.3977  2.5098 -2.7710
  171SOPE  H13S19344   2.193   5.191   8.146 -1.0085 -1.5543 -2.2546
  171SOPE  C21419345   2.387   5.273   8.217  0.2771 -0.3184 -0.1882
  171SOPE  H14R19346   2.324   5.346   8.273  1.4766 -0.0837  0.8815
  171SOPE  H14S19347   2.470   5.324   8.163  0.1007  0.3079  0.1273
  171SOPE  C21519348   2.443   5.162   8.307 -0.1036 -0.2145 -0.3242
  171SOPE  H15R19349   2.517   5.101   8.251  0.2702  1.1200 -1.2844
  171SOPE  H15S19350   2.359   5.098   8.343  0.1674 -0.5770 -0.3326
  171SOPE  C21619351   2.496   5.212   8.442 -0.2662  0.3524  0.8331
  171SOPE  H16R19352   2.426   5.287   8.483 -1.3344  0.0569 -0.4200
  171SOPE  H16S19353   2.595   5.259   8.427  0.5914 -1.8971 -0.7960
  171SOPE  C21719354   2.507   5.105   8.547 -0.6488  0.9646  0.8170
  171SOPE  H17R19355   2.403   5.078   8.573 -0.8113 -1.2877 -2.0307
  171SOPE  H17S19356   2.559   5.144   8.637  0.2129 -0.0105  0.7484
  171SOPE  C21819357   2.573   4.976   8.513 -0.0073 -0.2403  0.8822
  171SOPE  H18R19358   2.674   4.996   8.471 -0.1523  1.1652  1.1912
  171SOPE  H18S19359   2.514   4.922   8.436  1.4192  1.0697 -1.1895
  171SOPE  H18T19360   2.588   4.907   8.599  0.7929 -0.0157  0.9271
  171SOPE   C3319361   2.068   4.907   7.301  0.6206  0.2955 -0.4467
  171SOPE   H3X19362   2.175   4.875   7.308  0.7815  1.0159  0.3414
  171SOPE   H3Y19363   2.009   4.814   7.286 -1.1664  1.2088  0.8691
  171SOPE   C3419364   2.025   4.971   7.438 -0.6965  0.8771 -0.9564
  171SOPE   H4X19365   1.924   5.016   7.435 -1.4221 -0.5268  1.0926
  171SOPE   H4Y19366   2.086   5.060   7.462  3.8116 -3.0142  3.1838
  171SOPE   C3519367   2.019   4.866   7.554  0.7521  0.4913 -0.5627
  171SOPE   H5X19368   1.952   4.781   7.531 -0.4104  0.6329  2.0559
  171SOPE   H5Y19369   1.993   4.910   7.653 -2.0447  1.4412 -1.6609
  171SOPE   C3619370   2.160   4.808   7.574 -0.2810  0.4186 -1.0320
  171SOPE   H6X19371   2.226   4.896   7.587  1.0263 -0.5596 -0.9378
  171SOPE   H6Y19372   2.192   4.754   7.483  2.2584  0.1601 -0.0283
  171SOPE   C3719373   2.166   4.722   7.699 -0.8814  1.1032 -0.4472
  171SOPE   H7X19374   2.110   4.629   7.674 -1.1668  0.9912  0.5984
  171SOPE   H7Y19375   2.107   4.768   7.781  0.3486 -0.0597  1.1314
  171SOPE   C3819376   2.315   4.703   7.739  0.4391  0.2421 -0.1744
  171SOPE   H8X19377   2.335   4.799   7.793 -0.9207 -0.4725  1.6345
  171SOPE   H8Y19378   2.368   4.697   7.641  0.7142 -1.2576  0.0614
  171SOPE   C3919379   2.329   4.581   7.825  1.1852  0.1598 -0.2219
  171SOPE   H9X19380   2.436   4.563   7.850  1.3914 -1.3304 -2.0913
  171SOPE   H9Y19381   2.282   4.489   7.785  0.3237 -0.0037  1.1169
  171SOPE  C31019382   2.258   4.609   7.964  0.0695  0.9572 -0.3967
  171SOPE  H10X19383   2.258   4.516   8.025 -1.6467 -0.3126 -2.2258
  171SOPE  H10Y19384   2.152   4.635   7.944 -0.8529 -1.4617  1.0504
  171SOPE  C31119385   2.336   4.710   8.052  0.2419  0.3762  0.5728
  171SOPE  H11X19386   2.349   4.811   8.008 -1.0472  1.0405  1.6676
  171SOPE  H11Y19387   2.433   4.655   8.057  0.1352  0.2164  0.9335
  171SOPE  C31219388   2.278   4.722   8.197 -0.6998  0.9500  0.3340
  171SOPE  H12X19389   2.356   4.745   8.272  1.3573 -0.4138 -1.3185
  171SOPE  H12Y19390   2.237   4.624   8.228 -2.1632  0.9862 -1.3774
  171SOPE  C31319391   2.169   4.829   8.212  0.7895  0.2090 -0.0830
  171SOPE  H13X19392   2.207   4.922   8.166 -1.5122  1.1798 -0.1217
  171SOPE  H13Y19393   2.159   4.847   8.321 -1.4272  0.6070 -0.3270
  171SOPE  C31419394   2.037   4.788   8.148 -0.1562  0.2535  0.0274
  171SOPE  H14X19395   2.020   4.679   8.161  1.4277 -0.1451 -1.2204
  171SOPE  H14Y19396   2.039   4.806   8.038 -0.3715 -0.0570 -0.0288
  171SOPE  C31519397   1.917   4.867   8.219 -0.1828  0.1175  0.3849
  171SOPE  H15X19398   1.920   4.850   8.329  0.4707 -1.2786  0.1619
  171SOPE  H15Y19399   1.819   4.826   8.187  0.3341 -1.6770  1.0529
  171SOPE  C31619400   1.926   5.019   8.195  0.0880 -0.2570 -0.2710
  171SOPE  H16X19401   1.867   5.037   8.103 -0.3392 -1.0644 -0.1556
  171SOPE  H16Y19402   2.027   5.058   8.168  0.9170 -1.8805  0.4599
  171SOPE  C31719403   1.862   5.104   8.300 -0.0997  0.1599 -0.2689
  171SOPE  H17X19404   1.927   5.106   8.390 -0.6217  0.5852  0.1048
  171SOPE  H17Y19405   1.769   5.071   8.350  0.6968 -0.6545  0.6956
  171SOPE  C31819406   1.825   5.237   8.239  0.0365  0.4541 -0.1029
  171SOPE  H18X19407   1.748   5.220   8.161  0.7858 -0.1992 -0.7058
  171SOPE  H18Y19408   1.912   5.288   8.193  0.6842  0.6036  1.2725
  171SOPE  H18Z19409   1.791   5.307   8.318 -1.3254 -1.5089  1.1117
  172SOPE     N19410   2.611   0.269   6.534 -0.7756 -0.3474  0.3169
  172SOPE   HN119411   2.513   0.304   6.542 -0.7992 -0.2455 -0.3682
  172SOPE   HN219412   2.609   0.188   6.599 -3.2612 -0.8338 -0.3050
  172SOPE   HN319413   2.676   0.338   6.576 -2.6905  0.5225  1.9274
  172SOPE   C1219414   2.629   0.233   6.388 -0.3724  0.4337  1.0132
  172SOPE  H12A19415   2.735   0.202   6.376 -0.8098  0.3078 -3.4514
  172SOPE  H12B19416   2.610   0.325   6.328  0.2109  1.0772  1.8155
  172SOPE   C1119417   2.521   0.134   6.341  0.1769 -0.0347 -0.3540
  172SOPE  H11A19418   2.529   0.102   6.235  0.5891  2.4054 -1.1102
  172SOPE  H11B19419   2.425   0.189   6.353 -1.2681 -2.1224 -2.0110
  172SOPE     P19420   2.553  -0.126   6.396  0.3915  0.0762  0.1594
  172SOPE   O1319421   2.574  -0.144   6.253 -0.9652  0.1637  0.4954
  172SOPE   O1419422   2.447  -0.212   6.447  0.2052 -0.3640  0.5524
  172SOPE   O1219423   2.511   0.022   6.434 -0.1172  0.1519  0.2660
  172SOPE   O1119424   2.691  -0.149   6.469  0.3676  0.3371  0.6884
  172SOPE    C119425   2.704  -0.103   6.598 -0.7077  0.0708 -0.3254
  172SOPE    HA19426   2.608  -0.116   6.652 -0.6066  0.9337  0.0676
  172SOPE    HB19427   2.740   0.001   6.588  0.1402  0.0006  1.6222
  172SOPE    C219428   2.804  -0.190   6.676 -0.6162 -0.2764  0.3857
  172SOPE    HS19429   2.903  -0.150   6.646 -0.4439 -0.9756  0.0084
  172SOPE   O2119430   2.806  -0.328   6.648 -0.6173 -0.4809  0.1908
  172SOPE   C2119431   2.703  -0.400   6.680 -0.0341 -0.7097 -0.2054
  172SOPE   O2219432   2.591  -0.370   6.716  0.0072  0.5864 -0.2175
  172SOPE   C2219433   2.741  -0.549   6.647  0.3969 -0.5669  0.3180
  172SOPE   H2R19434   2.789  -0.544   6.546  1.0109 -0.1591  0.6203
  172SOPE   H2S19435   2.646  -0.605   6.640 -0.3454  0.6763  0.1935
  172SOPE    C319436   2.786  -0.162   6.833 -0.2101 -0.2673  0.1134
  172SOPE    HX19437   2.686  -0.200   6.864 -0.7145  0.8855 -0.0507
  172SOPE    HY19438   2.780  -0.052   6.845 -0.1328 -0.2217 -0.2638
  172SOPE   O3119439   2.886  -0.232   6.910  0.7692 -0.0630  0.0584
  172SOPE   C3119440   2.987  -0.158   6.956  0.1315  0.2825 -1.2492
  172SOPE   O3219441   3.011  -0.044   6.919 -0.2688  1.2586 -1.0501
  172SOPE   C3219442   3.076  -0.241   7.052 -0.9841 -0.0113 -0.0941
  172SOPE   H2X19443   3.179  -0.202   7.037 -0.6795 -0.5452  0.5864
  172SOPE   H2Y19444   3.083  -0.348   7.024  3.5420  0.0503  0.5060
  172SOPE   C2319445   2.843  -0.605   6.748  0.0820 -0.8347 -0.9339
  172SOPE   H3R19446   2.939  -0.551   6.731  0.1078 -0.9210 -1.0599
  172SOPE   H3S19447   2.858  -0.713   6.729 -0.7127 -1.5804  2.3472
  172SOPE   C2419448   2.790  -0.592   6.891  0.1179 -0.1757 -0.8992
  172SOPE   H4R19449   2.790  -0.484   6.918 -1.1498  0.2811 -2.6919
  172SOPE   H4S19450   2.686  -0.626   6.906 -0.0087  0.1395 -1.0686
  172SOPE   C2519451   2.863  -0.669   6.998 -0.0616  0.3515 -0.3725
  172SOPE   H5R19452   2.850  -0.778   6.985  1.8444  0.0890 -0.3284
  172SOPE   H5S19453   2.973  -0.659   6.983  0.5424 -2.6654  1.6375
  172SOPE   C2619454   2.814  -0.634   7.143  0.1851 -0.4285  0.0646
  172SOPE   H6R19455   2.857  -0.535   7.170  0.6614 -1.1159  1.9423
  172SOPE   H6S19456   2.703  -0.623   7.138  0.1673 -0.3107  0.5993
  172SOPE   C2719457   2.863  -0.747   7.228  0.2044  0.6190  0.4963
  172SOPE   H7R19458   2.806  -0.841   7.212 -0.0294  0.4565  2.1895
  172SOPE   H7S19459   2.970  -0.761   7.201 -0.2407  0.1726 -1.1261
  172SOPE   C2819460   2.874  -0.710   7.380  0.1273  0.7977  0.4635
  172SOPE   H8R19461   2.925  -0.612   7.392 -2.5063  2.0743  1.7665
  172SOPE   H8S19462   2.774  -0.689   7.423  0.0585 -0.5703  1.0145
  172SOPE   C2919463   2.937  -0.826   7.458 -0.4249 -0.0209 -0.0816
  172SOPE   H9119464   3.012  -0.885   7.403  0.8090  0.9166  0.5626
  172SOPE  C21019465   2.922  -0.855   7.589 -0.3415 -0.3995 -0.3319
  172SOPE  H10119466   2.974  -0.937   7.639  1.4012  0.7938 -0.1448
  172SOPE  C21119467   2.819  -0.781   7.677 -0.0162  0.3881 -0.1897
  172SOPE  H11R19468   2.718  -0.826   7.681  1.0214 -1.9539  0.2186
  172SOPE  H11S19469   2.800  -0.673   7.655 -0.3839  0.5476  0.8563
  172SOPE  C21219470   2.878  -0.791   7.820 -0.0044  0.1736 -0.6425
  172SOPE  H12R19471   2.974  -0.735   7.819  0.7660 -1.0671  1.7616
  172SOPE  H12S19472   2.910  -0.895   7.842  0.1637 -0.0609 -1.9417
  172SOPE  C21319473   2.792  -0.720   7.924  1.2862 -0.1157 -0.2136
  172SOPE  H13R19474   2.685  -0.746   7.915  0.9544  0.5369  1.5173
  172SOPE  H13S19475   2.797  -0.613   7.895  0.4315 -0.5950 -2.1516
  172SOPE  C21419476   2.835  -0.753   8.070 -0.2530  0.4614  0.1125
  172SOPE  H14R19477   2.946  -0.755   8.075 -0.2772  0.0737  0.4603
  172SOPE  H14S19478   2.796  -0.856   8.082  2.1343 -0.4306  0.4427
  172SOPE  C21519479   2.797  -0.655   8.185  0.2631 -0.3505  0.2790
  172SOPE  H15R19480   2.689  -0.631   8.172  0.4998  0.9835  0.6912
  172SOPE  H15S19481   2.845  -0.558   8.157 -0.1051 -0.1984  0.1712
  172SOPE  C21619482   2.853  -0.703   8.322  0.4469  0.8486 -0.0114
  172SOPE  H16R19483   2.963  -0.718   8.314  0.4723 -0.4160  2.3200
  172SOPE  H16S19484   2.805  -0.803   8.332  0.0318  0.9814 -0.6490
  172SOPE  C21719485   2.809  -0.615   8.439 -0.1082  0.3804 -0.3263
  172SOPE  H17R19486   2.700  -0.605   8.421 -0.5961 -3.2755  0.0460
  172SOPE  H17S19487   2.867  -0.522   8.428  1.5565 -0.4384  1.2728
  172SOPE  C21819488   2.837  -0.671   8.576  0.0287 -0.3450  0.6796
  172SOPE  H18R19489   2.943  -0.668   8.608 -0.0820  0.4998  1.0034
  172SOPE  H18S19490   2.794  -0.772   8.592 -0.4479 -0.2101  0.2866
  172SOPE  H18T19491   2.780  -0.605   8.646  1.7612  0.4792  1.3557
  172SOPE   C3319492   3.033  -0.219   7.201 -0.2213 -0.1408 -0.3206
  172SOPE   H3X19493   2.943  -0.282   7.214 -1.1202  1.6921  2.5834
  172SOPE   H3Y19494   3.003  -0.115   7.225 -0.8754 -0.4083  0.0457
  172SOPE   C3419495   3.143  -0.268   7.301  0.3857 -0.5214 -0.7387
  172SOPE   H4X19496   3.228  -0.199   7.287  0.9551 -1.1768 -0.5295
  172SOPE   H4Y19497   3.175  -0.367   7.260  0.0806 -1.4255  1.1580
  172SOPE   C3519498   3.083  -0.267   7.441  0.1330 -1.0344  0.2316
  172SOPE   H5X19499   2.972  -0.266   7.437  0.2260  0.8796 -3.3140
  172SOPE   H5Y19500   3.100  -0.179   7.507 -1.4608 -0.2641 -0.3600
  172SOPE   C3619501   3.132  -0.397   7.516 -0.0487  0.0137  0.2347
  172SOPE   H6X19502   3.228  -0.365   7.561  0.5909  0.9989 -1.7619
  172SOPE   H6Y19503   3.157  -0.474   7.440  1.1665  0.6862 -0.0480
  172SOPE   C3719504   3.035  -0.438   7.624  0.3636 -0.1235  0.0752
  172SOPE   H7X19505   3.086  -0.527   7.667  1.8554 -0.3677 -2.0804
  172SOPE   H7Y19506   2.945  -0.472   7.568 -1.0535  2.9132  0.4297
  172SOPE   C3819507   2.999  -0.336   7.737 -0.1386 -0.1573  0.7951
  172SOPE   H8X19508   2.906  -0.377   7.781 -1.1714  0.0061 -1.1627
  172SOPE   H8Y19509   2.965  -0.236   7.704  1.3892  0.7044  1.7888
  172SOPE   C3919510   3.102  -0.331   7.851  0.4471  0.4974 -0.0623
  172SOPE   H9X19511   3.084  -0.241   7.913 -0.0054  1.1416 -1.1125
  172SOPE   H9Y19512   3.201  -0.310   7.804  0.4036 -1.7565 -1.2317
  172SOPE  C31019513   3.100  -0.445   7.946 -0.0553  0.0174  0.4712
  172SOPE  H10X19514   3.108  -0.545   7.899 -2.7595 -0.3797  0.7363
  172SOPE  H10Y19515   3.000  -0.448   7.994 -0.4713 -2.0369 -0.4651
  172SOPE  C31119516   3.216  -0.426   8.050  0.1806  1.1209  0.0141
  172SOPE  H11X19517   3.206  -0.319   8.078  1.0608  0.6988  2.0486
  172SOPE  H11Y19518   3.315  -0.437   8.001 -0.8944  0.5927 -2.1127
  172SOPE  C31219519   3.201  -0.526   8.162  1.1491 -0.6184  0.4212
  172SOPE  H12X19520   3.150  -0.619   8.130 -0.2421  0.2879 -0.0418
  172SOPE  H12Y19521   3.133  -0.474   8.232 -0.2122 -1.3682 -0.3248
  172SOPE  C31319522   3.333  -0.548   8.237  0.4120 -0.1148 -0.8435
  172SOPE  H13X19523   3.363  -0.458   8.295 -0.6297  0.2711 -0.8777
  172SOPE  H13Y19524   3.410  -0.551   8.157  0.5381 -1.0208 -0.6847
  172SOPE  C31419525   3.338  -0.674   8.319  0.2813  0.3538 -1.0570
  172SOPE  H14X19526   3.442  -0.689   8.356 -0.3991 -2.5769 -0.2300
  172SOPE  H14Y19527   3.308  -0.754   8.248  0.4233  0.0216 -0.7431
  172SOPE  C31519528   3.248  -0.666   8.443 -0.2123 -0.4172  0.3238
  172SOPE  H15X19529   3.145  -0.638   8.412  0.0031 -1.7382 -1.7222
  172SOPE  H15Y19530   3.287  -0.585   8.508  0.8642  0.2960 -1.1804
  172SOPE  C31619531   3.248  -0.797   8.517 -0.2110  0.4816  0.5260
  172SOPE  H16X19532   3.231  -0.882   8.448  2.1334  1.1406 -0.9248
  172SOPE  H16Y19533   3.172  -0.803   8.598 -0.4900  1.9704  0.3763
  172SOPE  C31719534   3.387  -0.830   8.591 -0.3815  0.1970  0.6986
  172SOPE  H17X19535   3.396  -0.744   8.659  3.3127  0.4845 -0.0871
  172SOPE  H17Y19536   3.469  -0.844   8.517 -0.7411  0.9367  0.1496
  172SOPE  C31819537   3.381  -0.957   8.681 -0.5755 -0.5601  0.1305
  172SOPE  H18X19538   3.303  -0.959   8.760  0.1966 -0.6219  0.9045
  172SOPE  H18Y19539   3.475  -0.985   8.733 -0.5749  0.3038  0.6101
  172SOPE  H18Z19540   3.347  -1.041   8.617 -0.9102  0.8480 -1.5795
  173SAPI   C1219541   4.908   5.184  10.995 -0.7190  0.4468 -0.1432
  173SAPI    H219542   4.845   5.240  10.922 -0.5571  1.9609  0.8386
  173SAPI    O219543   5.008   5.118  10.924  0.1634 -0.0325  0.4384
  173SAPI   HO219544   4.996   5.023  10.928 -1.3529  0.1102 -0.4119
  173SAPI   C1319545   4.956   5.292  11.088  0.2576  0.9685  0.6745
  173SAPI    H319546   4.871   5.334  11.146 -0.2677  0.6534  0.1332
  173SAPI    O319547   5.019   5.406  11.018 -0.4850 -0.0667  0.2595
  173SAPI   HO319548   5.054   5.467  11.082  0.5812 -0.4910  0.0879
  173SAPI   C1419549   5.049   5.228  11.198  0.0863  0.1840 -0.6421
  173SAPI    H419550   5.130   5.192  11.132 -0.7597  1.5812 -2.4801
  173SAPI    O419551   5.099   5.323  11.287 -0.1892 -0.7194  0.5012
  173SAPI   HO419552   5.175   5.273  11.317 -0.3638 -0.2581  1.7492
  173SAPI   C1519553   4.972   5.118  11.267 -0.1233 -0.7765 -0.1013
  173SAPI    H519554   4.889   5.154  11.331  0.5389 -0.0839  0.3828
  173SAPI    O519555   5.066   5.040  11.352  0.2238  0.4773 -0.2480
  173SAPI   HO519556   5.147   5.006  11.312  0.3321  0.8401 -0.3373
  173SAPI   C1619557   4.896   5.022  11.175 -0.2544 -0.1679 -0.2676
  173SAPI    H619558   4.974   4.957  11.129  1.9190  2.0712  0.1304
  173SAPI    O619559   4.808   4.935  11.244 -0.3977  0.2744 -0.0296
  173SAPI   HO619560   4.764   4.875  11.183 -3.2260  0.6253  1.5562
  173SAPI   C1119561   4.817   5.092  11.072  0.1072 -0.3817 -0.3070
  173SAPI    H119562   4.734   5.144  11.125  1.2755  0.7959  0.3648
  173SAPI     P19563   4.615   5.009  10.904  0.1008  0.2652  0.1739
  173SAPI   O1319564   4.526   5.117  10.967 -0.1577  0.2550  0.2123
  173SAPI   O1419565   4.562   4.874  10.893 -0.3056  0.0200  0.1146
  173SAPI   O1219566   4.758   4.992  10.987 -0.4741  0.3423  0.0503
  173SAPI   O1119567   4.656   5.063  10.762 -0.0934  0.4357 -0.0945
  173SAPI    C119568   4.756   4.994  10.689  0.1312 -0.0089 -0.5237
  173SAPI    HA19569   4.842   4.965  10.754 -0.6321  0.0178  0.5195
  173SAPI    HB19570   4.718   4.909  10.628 -3.1106 -0.4748  1.9705
  173SAPI    C219571   4.803   5.097  10.577  0.4109  0.9873  0.0047
  173SAPI    HS19572   4.856   5.179  10.630 -1.5029  2.2168  0.0513
  173SAPI   O2119573   4.692   5.150  10.501 -0.1186 -0.1819  0.0852
  173SAPI   C2119574   4.720   5.251  10.434  0.0531 -0.1613 -0.3366
  173SAPI   O2219575   4.823   5.319  10.433 -0.0618 -0.2890  0.6859
  173SAPI   C2219576   4.603   5.296  10.345  0.1421  0.3784 -0.3238
  173SAPI   H2R19577   4.534   5.211  10.328 -3.5677  2.5726  2.9407
  173SAPI   H2S19578   4.545   5.360  10.415 -1.4643 -2.6321  1.1818
  173SAPI    C319579   4.911   5.025  10.478  0.6168  0.6684  0.1878
  173SAPI    HX19580   4.981   4.951  10.522  0.0118 -0.7386 -1.1698
  173SAPI    HY19581   4.980   5.110  10.460  1.8607  0.2225  2.6743
  173SAPI   O3119582   4.853   4.962  10.364  0.4932 -0.0475  0.4941
  173SAPI   C3119583   4.836   4.831  10.365  0.2013  0.7578  0.5648
  173SAPI   O3219584   4.852   4.755  10.459 -0.1455 -0.6814 -0.5458
  173SAPI   C3219585   4.783   4.795  10.227 -0.3341 -0.0860  0.3301
  173SAPI   H2X19586   4.838   4.862  10.158 -1.5125  2.1483  1.5001
  173SAPI   H2Y19587   4.679   4.832  10.233 -0.4501 -0.3286 -0.2532
  173SAPI   C2319588   4.645   5.365  10.219 -0.3657 -0.3870  0.7644
  173SAPI   H3R19589   4.736   5.429  10.228 -0.7496  0.0292  1.6706
  173SAPI   H3S19590   4.567   5.439  10.192 -0.7590 -1.4647 -1.1812
  173SAPI   C2419591   4.661   5.266  10.099  0.6728  0.1379 -0.0187
  173SAPI   H4R19592   4.576   5.196  10.080  0.6431  0.4521 -1.1189
  173SAPI   H4S19593   4.752   5.208  10.123  0.7909  0.1908 -0.3342
  173SAPI   C2519594   4.697   5.345   9.965 -0.5824 -0.0086 -0.3652
  173SAPI   H5R19595   4.648   5.442   9.953  0.3212  0.6428  1.0913
  173SAPI   C2619596   4.789   5.308   9.873 -0.1776  0.2265  1.4324
  173SAPI   H6R19597   4.810   5.373   9.787  5.1881  0.2543  2.5849
  173SAPI   C2719598   4.875   5.176   9.872 -0.0448  0.0809 -0.6491
  173SAPI   H7R19599   4.911   5.160   9.976  0.8078 -2.2181 -1.2894
  173SAPI   H7S19600   4.974   5.198   9.828  0.7309  0.8001  1.3839
  173SAPI   C2819601   4.797   5.060   9.814  0.0014  0.8579  0.4363
  173SAPI   H8R19602   4.730   5.012   9.887 -0.4436  0.3185 -0.3290
  173SAPI   C2919603   4.813   5.006   9.691 -0.5279  0.0680 -0.1249
  173SAPI   H9R19604   4.742   4.924   9.673 -0.7246  0.6341 -2.0924
  173SAPI  C21019605   4.897   5.066   9.581  0.4018 -0.4488 -0.3085
  173SAPI  H10R19606   5.003   5.038   9.598  0.6788  0.7268 -0.0688
  173SAPI  H10S19607   4.883   5.176   9.580  2.9124 -0.0932 -1.2787
  173SAPI  C21119608   4.868   5.001   9.448  0.0116 -0.2147 -0.1221
  173SAPI  H11R19609   4.860   4.891   9.445  0.6283 -0.2798  0.6953
  173SAPI  C21219610   4.832   5.056   9.329 -0.0617  0.2768 -0.1472
  173SAPI  H12R19611   4.809   4.993   9.241  2.5953 -1.1921  0.1528
  173SAPI  C21319612   4.840   5.202   9.294  0.6492  0.2084 -0.7815
  173SAPI  H13R19613   4.940   5.217   9.250  1.7121 -0.7075  1.2471
  173SAPI  H13S19614   4.832   5.260   9.389 -3.7615  1.8844 -2.0730
  173SAPI  C21419615   4.732   5.256   9.202  0.1933 -0.3160  0.6721
  173SAPI  H14R19616   4.631   5.219   9.228 -1.2909  1.6328 -1.9865
  173SAPI  C21519617   4.743   5.355   9.117 -0.6712  0.1341  0.0892
  173SAPI  H15R19618   4.656   5.385   9.056  0.1339 -0.7164 -1.5224
  173SAPI  C21619619   4.868   5.427   9.080 -0.6536  0.3552  0.6350
  173SAPI  H16R19620   4.932   5.455   9.167  0.1753 -1.7403  0.7286
  173SAPI  H16S19621   4.850   5.524   9.028 -0.6279  0.7840  1.4116
  173SAPI  C21719622   4.959   5.351   8.977 -0.3671 -0.0773 -0.5858
  173SAPI  H17R19623   5.011   5.258   9.010 -0.5710  0.3071  0.8606
  173SAPI  H17S19624   5.048   5.416   8.968 -1.0889  1.0566  0.2847
  173SAPI  C21819625   4.908   5.338   8.829  0.2109 -0.8352  0.2961
  173SAPI  H18R19626   4.852   5.431   8.808 -1.7193 -1.4039  2.7547
  173SAPI  H18S19627   4.841   5.250   8.826 -1.3175  0.2896  0.8964
  173SAPI  C21919628   5.026   5.318   8.733  0.4895 -0.3086 -0.5385
  173SAPI  H19R19629   5.087   5.234   8.774 -0.2062 -0.4918  0.1381
  173SAPI  H19S19630   5.093   5.406   8.731 -0.9053  0.7714 -0.0580
  173SAPI  C22019631   4.983   5.278   8.590  0.5817  0.2005 -0.6070
  173SAPI  H20R19632   4.896   5.340   8.560 -1.2906 -2.6827 -1.2913
  173SAPI  H20S19633   4.951   5.172   8.591 -0.3125  0.4582 -1.2398
  173SAPI  H20T19634   5.062   5.291   8.513 -0.6808 -0.2335 -2.0124
  173SAPI   C3319635   4.788   4.644  10.208 -0.0431  0.0451 -0.0595
  173SAPI   H3X19636   4.708   4.600  10.271 -1.4838  2.3076 -0.2148
  173SAPI   H3Y19637   4.889   4.605  10.232 -0.1908  0.5161  1.3453
  173SAPI   C3419638   4.736   4.596  10.070 -0.3629 -0.7605 -0.6010
  173SAPI   H4X19639   4.646   4.658  10.048 -0.9236 -1.9882 -1.8718
  173SAPI   H4Y19640   4.693   4.494  10.071 -0.3972 -0.8339 -3.4670
  173SAPI   C3519641   4.836   4.600   9.956 -0.0704 -0.1008  0.7501
  173SAPI   H5X19642   4.919   4.527   9.962  0.1415 -0.0841 -1.6334
  173SAPI   H5Y19643   4.876   4.703   9.954  0.5971 -0.3877 -0.8361
  173SAPI   C3619644   4.759   4.577   9.830  0.1470 -0.2943  0.3251
  173SAPI   H6X19645   4.675   4.649   9.818 -1.2376 -1.8565  0.4698
  173SAPI   H6Y19646   4.702   4.483   9.841  1.4318 -1.2240 -0.7611
  173SAPI   C3719647   4.850   4.564   9.705 -0.0631 -0.1600  0.0699
  173SAPI   H7X19648   4.906   4.469   9.720  1.3980  0.7521  0.4971
  173SAPI   H7Y19649   4.906   4.659   9.694  0.3522 -0.0303  2.9040
  173SAPI   C3819650   4.758   4.548   9.581  0.2754  1.0488  0.0745
  173SAPI   H8X19651   4.694   4.638   9.575  1.4747  1.9738  1.0051
  173SAPI   H8Y19652   4.686   4.464   9.588  0.4895  0.8244 -0.3912
  173SAPI   C3919653   4.831   4.515   9.446  0.1093 -0.2563 -0.3304
  173SAPI   H9X19654   4.901   4.432   9.469  0.3225 -0.0485 -0.2107
  173SAPI   H9Y19655   4.896   4.598   9.409 -0.7453 -0.0028 -1.2894
  173SAPI  C31019656   4.723   4.487   9.335  0.1165 -0.5280  0.1982
  173SAPI  H10X19657   4.680   4.584   9.303 -1.0838 -1.7357 -1.9886
  173SAPI  H10Y19658   4.650   4.416   9.380 -1.3061  1.2138  0.7097
  173SAPI  C31119659   4.793   4.423   9.212  0.3956  0.0673 -0.7592
  173SAPI  H11X19660   4.886   4.371   9.244 -0.8167 -0.7105  1.5630
  173SAPI  H11Y19661   4.824   4.511   9.150 -1.3332  0.2769 -1.3357
  173SAPI  C31219662   4.706   4.351   9.114  0.0214 -0.0461 -0.6793
  173SAPI  H12X19663   4.619   4.410   9.078 -1.2553 -1.5743 -0.1466
  173SAPI  H12Y19664   4.669   4.258   9.162 -1.4968 -0.0876 -1.8895
  173SAPI  C31319665   4.787   4.298   8.989 -0.0986 -0.2709 -0.3907
  173SAPI  H13X19666   4.869   4.232   9.022  0.8844  0.3647 -1.5026
  173SAPI  H13Y19667   4.832   4.386   8.936  0.3889 -1.2051 -1.5449
  173SAPI  C31419668   4.696   4.224   8.890 -0.6728 -0.5940 -0.2835
  173SAPI  H14X19669   4.622   4.295   8.848  0.1407 -0.2767 -1.1839
  173SAPI  H14Y19670   4.641   4.141   8.939  0.5074 -1.7746 -0.9310
  173SAPI  C31519671   4.791   4.166   8.776 -0.0859 -0.0788  0.2955
  173SAPI  H15X19672   4.817   4.062   8.808 -1.1140 -0.4199  0.0210
  173SAPI  H15Y19673   4.885   4.225   8.777  0.4005 -0.8524  0.9525
  173SAPI  C31619674   4.710   4.179   8.649  0.2294 -0.5198  0.2583
  173SAPI  H16X19675   4.732   4.280   8.608 -0.2205  0.2640  1.9456
  173SAPI  H16Y19676   4.600   4.173   8.663  0.0367  0.0718 -0.9124
  173SAPI  C31719677   4.740   4.067   8.546 -0.7601  0.0168  0.0853
  173SAPI  H17X19678   4.699   3.969   8.580 -0.0998 -0.3991 -0.3041
  173SAPI  H17Y19679   4.849   4.050   8.532 -0.5954  0.5572  0.7081
  173SAPI  C31819680   4.695   4.091   8.402  0.3981  0.9335  0.5357
  173SAPI  H18X19681   4.759   4.177   8.370  1.4323  0.0491  0.1764
  173SAPI  H18Y19682   4.590   4.125   8.404  0.2695  0.5254  0.7213
  173SAPI  H18Z19683   4.719   4.005   8.337  2.7025  2.9440 -1.3807
  174SAPI   C1219684   0.493   4.970  11.175 -0.6897  0.2708  0.2225
  174SAPI    H219685   0.557   5.061  11.176  0.7386 -0.5712 -4.0831
  174SAPI    O219686   0.561   4.870  11.251 -0.0085 -0.2883  0.5842
  174SAPI   HO219687   0.644   4.908  11.281  0.4837 -1.3220  0.5415
  174SAPI   C1319688   0.366   5.010  11.229  1.1558 -0.4650 -0.4233
  174SAPI    H319689   0.329   5.098  11.171  0.5795 -0.7721 -0.5255
  174SAPI    O319690   0.381   5.047  11.372  0.7886  0.6233 -0.3898
  174SAPI   HO319691   0.443   5.120  11.371  2.8458 -1.0951  0.2047
  174SAPI   C1419692   0.252   4.909  11.211 -0.4274 -0.7873  0.1997
  174SAPI    H419693   0.273   4.819  11.272  3.7319  0.1268  0.2796
  174SAPI    O419694   0.136   4.960  11.271  0.3949  0.4849 -0.5173
  174SAPI   HO419695   0.080   4.882  11.275  1.5639 -0.4814 -2.1581
  174SAPI   C1519696   0.240   4.861  11.063  0.4319  0.1972  0.4682
  174SAPI    H519697   0.201   4.948  11.007 -1.8986 -0.9968  0.1633
  174SAPI    O519698   0.136   4.761  11.059  0.2866  0.3080 -0.1452
  174SAPI   HO519699   0.061   4.805  11.018  2.0894  0.9762 -2.8877
  174SAPI   C1619700   0.375   4.814  11.015  0.8014 -0.3831 -0.1918
  174SAPI    H619701   0.402   4.723  11.072 -1.0925  0.6813  2.5031
  174SAPI    O619702   0.364   4.768  10.879  1.0683 -0.2127  0.4418
  174SAPI   HO619703   0.353   4.851  10.831 -2.3915 -0.7104  0.2420
  174SAPI   C1119704   0.479   4.922  11.034 -0.2999  0.0290  0.4640
  174SAPI    H119705   0.435   5.005  10.976 -1.9362 -1.4350 -0.4316
  174SAPI     P19706   0.715   4.984  10.922 -0.1107  0.3285 -0.2339
  174SAPI   O1319707   0.852   4.931  10.953  0.1073 -0.0296  0.1852
  174SAPI   O1419708   0.690   5.118  10.964  0.3404 -0.5800  0.5756
  174SAPI   O1219709   0.602   4.880  10.982  0.7261  0.2392 -0.2692
  174SAPI   O1119710   0.685   4.966  10.768  0.0312 -0.0274  0.0703
  174SAPI    C119711   0.588   5.052  10.695  0.0751  0.1471 -0.6060
  174SAPI    HA19712   0.487   5.034  10.735  1.0164 -0.6081  1.5043
  174SAPI    HB19713   0.630   5.153  10.715  2.3433 -1.2104  1.9164
  174SAPI    C219714   0.604   5.028  10.539 -0.0125 -0.5768 -0.2490
  174SAPI    HS19715   0.545   4.937  10.515  0.2672 -0.7616 -0.2417
  174SAPI   O2119716   0.740   5.003  10.491 -0.4229 -0.1701  0.6154
  174SAPI   C2119717   0.747   4.932  10.382 -0.3417  0.7020  0.0075
  174SAPI   O2219718   0.656   4.903  10.305 -0.0807 -0.1662  0.3146
  174SAPI   C2219719   0.894   4.887  10.361  0.6091 -0.2534 -0.0750
  174SAPI   H2R19720   0.962   4.943  10.429 -0.0083  0.2432  0.1400
  174SAPI   H2S19721   0.899   4.782  10.395 -1.1823 -0.6563 -1.0363
  174SAPI    C319722   0.542   5.141  10.452 -0.2423  0.3821 -0.5360
  174SAPI    HX19723   0.440   5.170  10.488 -0.9573  0.4571 -2.5866
  174SAPI    HY19724   0.509   5.101  10.354 -0.9254 -0.2348 -0.0678
  174SAPI   O3119725   0.626   5.262  10.449 -0.0522 -0.2286  0.1701
  174SAPI   C3119726   0.712   5.271  10.350  0.0867  0.2814 -0.1320
  174SAPI   O3219727   0.715   5.203  10.248 -0.1045 -0.4704 -0.1324
  174SAPI   C3219728   0.802   5.395  10.371  0.1338 -0.0643 -0.4788
  174SAPI   H2X19729   0.838   5.410  10.475  0.2802  0.5010 -0.6108
  174SAPI   H2Y19730   0.735   5.479  10.343 -2.1259 -1.2172  1.2328
  174SAPI   C2319731   0.938   4.919  10.217 -0.1097  0.0063  0.0028
  174SAPI   H3R19732   0.866   4.993  10.174 -0.6897 -0.3090  0.4357
  174SAPI   H3S19733   0.920   4.829  10.155 -0.5506 -0.8745  1.3898
  174SAPI   C2419734   1.083   4.964  10.204  1.1374 -0.5813 -0.0047
  174SAPI   H4R19735   1.092   5.049  10.275 -0.2329  0.5246 -1.1130
  174SAPI   H4S19736   1.091   5.006  10.101 -0.0003 -0.0182  0.1194
  174SAPI   C2519737   1.183   4.852  10.226 -0.2669  0.2290 -0.1185
  174SAPI   H5R19738   1.171   4.799  10.321 -0.4696 -0.2829 -0.4292
  174SAPI   C2619739   1.272   4.808  10.141 -0.6592  0.0399  0.0614
  174SAPI   H6R19740   1.333   4.721  10.169  1.7821  1.2036 -1.4141
  174SAPI   C2719741   1.316   4.863  10.000  0.5069  0.1395 -0.1327
  174SAPI   H7R19742   1.420   4.834   9.977 -0.4181 -3.5967  0.0035
  174SAPI   H7S19743   1.306   4.973  10.005  1.5964  0.3563 -2.5485
  174SAPI   C2819744   1.235   4.822   9.879 -0.0327 -0.0276 -0.0628
  174SAPI   H8R19745   1.144   4.766   9.904  0.4228  0.7041  3.3911
  174SAPI   C2919746   1.267   4.853   9.750  0.7260 -0.1022 -0.6184
  174SAPI   H9R19747   1.203   4.816   9.668  0.9910 -2.1919  0.0942
  174SAPI  C21019748   1.385   4.940   9.708 -0.1523  0.2931  0.5396
  174SAPI  H10R19749   1.470   4.869   9.700 -0.5936 -0.3080  1.0794
  174SAPI  H10S19750   1.416   5.014   9.784  0.8825 -0.3509  0.7553
  174SAPI  C21119751   1.372   5.012   9.571 -0.5608  0.3207 -0.5528
  174SAPI  H11R19752   1.339   5.117   9.582 -2.4556 -0.1559 -1.4769
  174SAPI  C21219753   1.401   4.961   9.452 -0.4499  0.5011  0.0817
  174SAPI  H12R19754   1.401   5.030   9.366 -1.0035 -0.1115 -0.4198
  174SAPI  C21319755   1.453   4.824   9.412 -0.4324 -0.0618 -0.1328
  174SAPI  H13R19756   1.482   4.773   9.507  3.0935 -1.5235 -1.9285
  174SAPI  H13S19757   1.544   4.828   9.349 -1.2820 -1.8141 -1.4974
  174SAPI  C21419758   1.338   4.757   9.342 -0.0132  0.1040  0.5617
  174SAPI  H14R19759   1.239   4.803   9.349 -1.3860 -2.8407  1.1476
  174SAPI  C21519760   1.354   4.653   9.256  0.3235 -0.2513 -0.8746
  174SAPI  H15R19761   1.271   4.620   9.191 -0.5108 -1.1670  0.6377
  174SAPI  C21619762   1.479   4.585   9.203 -0.2557  0.1064 -0.4282
  174SAPI  H16R19763   1.495   4.490   9.258  1.4115  1.0646  0.7966
  174SAPI  H16S19764   1.576   4.637   9.217 -0.8472  1.1440 -0.1188
  174SAPI  C21719765   1.475   4.565   9.051  0.1635 -0.3119  0.4025
  174SAPI  H17R19766   1.386   4.504   9.027  0.8192 -1.6199  1.2261
  174SAPI  H17S19767   1.566   4.509   9.022  1.1163  1.5389 -0.2602
  174SAPI  C21819768   1.463   4.699   8.976  0.0035  0.1157 -0.4676
  174SAPI  H18R19769   1.551   4.767   8.979 -0.8350  1.1608  1.6817
  174SAPI  H18S19770   1.381   4.761   9.019  0.5208 -0.7220  1.7851
  174SAPI  C21919771   1.422   4.689   8.826 -0.3742 -0.3294 -0.1494
  174SAPI  H19R19772   1.492   4.627   8.766  2.6509  1.0245  1.8975
  174SAPI  H19S19773   1.425   4.788   8.776  1.3820  1.1934  2.8593
  174SAPI  C22019774   1.292   4.626   8.792 -0.2202  0.3429 -0.6381
  174SAPI  H20R19775   1.213   4.704   8.786  0.3179  1.1358  1.8030
  174SAPI  H20S19776   1.265   4.547   8.865  2.0282 -3.2959 -3.5501
  174SAPI  H20T19777   1.286   4.566   8.699 -2.4701  1.5574 -1.3036
  174SAPI   C3319778   0.917   5.412  10.263 -0.2661  0.0418  0.3072
  174SAPI   H3X19779   0.879   5.436  10.161 -1.1212 -3.5610 -0.3105
  174SAPI   H3Y19780   0.960   5.310  10.258  1.5144  0.8179 -0.7410
  174SAPI   C3419781   1.036   5.502  10.313  0.2690  0.1612 -0.0645
  174SAPI   H4X19782   1.114   5.514  10.235 -0.0247  1.5336 -0.1658
  174SAPI   H4Y19783   1.083   5.460  10.404  1.7321 -2.0822 -1.8107
  174SAPI   C3519784   0.993   5.649  10.358 -0.6157  0.0963  0.3604
  174SAPI   H5X19785   1.085   5.711  10.357  0.3608 -1.3416 -1.6223
  174SAPI   H5Y19786   0.941   5.641  10.456 -3.1355 -1.4233 -1.0547
  174SAPI   C3619787   0.900   5.719  10.253  0.0819  0.3941  0.2962
  174SAPI   H6X19788   0.888   5.827  10.274  1.4084  0.6963 -0.4518
  174SAPI   H6Y19789   0.796   5.681  10.248  1.0306 -2.5544  1.6159
  174SAPI   C3719790   0.966   5.732  10.112  0.0514 -0.6169  0.3560
  174SAPI   H7X19791   0.951   5.630  10.072 -0.0497  0.0164 -1.2388
  174SAPI   H7Y19792   1.067   5.778  10.104 -0.5719  0.5193 -1.1772
  174SAPI   C3819793   0.899   5.820  10.008 -0.2003  0.4352  0.3753
  174SAPI   H8X19794   0.922   5.925  10.038  0.2885  0.3439  0.3160
  174SAPI   H8Y19795   0.788   5.814  10.013 -0.2707 -0.3902 -1.6355
  174SAPI   C3919796   0.951   5.779   9.865 -0.6490  0.8402  0.0580
  174SAPI   H9X19797   0.919   5.677   9.834  0.0020  0.2311  1.3401
  174SAPI   H9Y19798   1.060   5.763   9.878 -0.7677 -1.6335 -1.6156
  174SAPI  C31019799   0.924   5.871   9.749 -0.2662  0.1468  0.1647
  174SAPI  H10X19800   0.945   5.977   9.777 -0.7600 -0.1457  1.7052
  174SAPI  H10Y19801   0.814   5.873   9.731  0.1790 -0.9989 -2.9589
  174SAPI  C31119802   0.981   5.821   9.617 -0.6675  0.6524  1.3256
  174SAPI  H11X19803   0.949   5.716   9.599  0.8400  0.4632 -0.4592
  174SAPI  H11Y19804   1.092   5.828   9.618 -0.5861  1.4879 -2.9180
  174SAPI  C31219805   0.934   5.903   9.486 -0.6556 -0.3346 -0.1847
  174SAPI  H12X19806   0.954   6.011   9.505 -0.1455 -0.3445 -0.6592
  174SAPI  H12Y19807   0.824   5.891   9.476 -0.5899  0.2981 -1.9221
  174SAPI  C31319808   1.001   5.855   9.360 -0.2897  0.8757  0.1635
  174SAPI  H13X19809   0.999   5.747   9.336  3.5639  0.7627  0.1432
  174SAPI  H13Y19810   1.109   5.879   9.352 -0.6333  2.3662 -0.0934
  174SAPI  C31419811   0.922   5.911   9.240 -0.5218  0.5207  0.5085
  174SAPI  H14X19812   0.931   6.021   9.241  2.2752  0.4282 -3.5978
  174SAPI  H14Y19813   0.814   5.887   9.253 -0.6139  0.4779 -0.2931
  174SAPI  C31519814   0.991   5.881   9.104 -0.3110  0.0648 -0.0006
  174SAPI  H15X19815   1.102   5.877   9.113 -0.3605 -2.4389 -0.0422
  174SAPI  H15Y19816   0.971   5.959   9.028  1.1669  2.1928  1.7147
  174SAPI  C31619817   0.945   5.746   9.047  0.5288 -0.1775 -0.2255
  174SAPI  H16X19818   0.926   5.686   9.138 -1.3398  0.1605 -0.3880
  174SAPI  H16Y19819   1.030   5.693   8.999  1.0230  0.5204 -0.1344
  174SAPI  C31719820   0.818   5.752   8.960 -0.7647  0.1153 -0.4930
  174SAPI  H17X19821   0.825   5.671   8.884 -0.1966 -0.0915 -0.2287
  174SAPI  H17Y19822   0.834   5.848   8.908 -1.1181 -0.4793 -1.7085
  174SAPI  C31819823   0.690   5.723   9.034 -0.0982  0.2581  0.5533
  174SAPI  H18X19824   0.707   5.621   9.073 -0.5039 -0.2041 -0.4508
  174SAPI  H18Y19825   0.600   5.725   8.969  2.5569  2.9250 -3.3009
  174SAPI  H18Z19826   0.677   5.788   9.123  1.7656  0.9850  0.3195
  175SAPI   C1219827   3.206   3.592   6.297  0.0542  0.5828 -0.3036
  175SAPI    H219828   3.303   3.640   6.274  0.2802  0.1018 -0.3505
  175SAPI    O219829   3.147   3.663   6.410 -0.4905 -0.3438  0.0607
  175SAPI   HO219830   3.221   3.667   6.470 -2.0278  0.1369  1.9532
  175SAPI   C1319831   3.122   3.582   6.178  0.7840  0.9438 -0.1529
  175SAPI    H319832   3.183   3.523   6.106 -0.9828 -0.0150 -0.8845
  175SAPI    O319833   3.094   3.710   6.113  0.2515  0.5013  0.3849
  175SAPI   HO319834   3.018   3.748   6.160 -1.6157 -0.8177 -1.4978
  175SAPI   C1419835   2.993   3.499   6.212 -0.0503 -0.3433  0.2937
  175SAPI    H419836   2.937   3.558   6.286  0.0604 -0.4918  0.4960
  175SAPI    O419837   2.907   3.489   6.101 -0.8348  0.0316  0.0146
  175SAPI   HO419838   2.837   3.552   6.119  0.1269  0.6110  1.8664
  175SAPI   C1519839   3.029   3.359   6.267  0.0726  0.5877 -0.9350
  175SAPI    H519840   3.075   3.306   6.181  0.4973 -0.1129 -0.2891
  175SAPI    O519841   2.906   3.290   6.306  0.3677  0.4276 -0.4473
  175SAPI   HO519842   2.931   3.207   6.347  2.2250  0.9584 -0.4507
  175SAPI   C1619843   3.123   3.375   6.385 -0.2433 -0.2377 -0.5575
  175SAPI    H619844   3.072   3.422   6.471 -1.6448  1.3897 -2.2268
  175SAPI    O619845   3.160   3.243   6.426 -0.2771 -0.3673  0.3076
  175SAPI   HO619846   3.109   3.234   6.507 -0.1504 -2.6086  0.1749
  175SAPI   C1119847   3.248   3.461   6.349  0.3844 -0.3074 -0.0664
  175SAPI    H119848   3.284   3.398   6.265 -0.9634 -1.3235  0.1006
  175SAPI     P19849   3.487   3.494   6.442  0.2940 -0.0455 -0.0262
  175SAPI   O1319850   3.510   3.639   6.456  0.2079  0.4363 -0.0927
  175SAPI   O1419851   3.540   3.425   6.320 -0.3865  0.2609 -0.0116
  175SAPI   O1219852   3.337   3.460   6.464 -0.4580 -1.1771  0.0076
  175SAPI   O1119853   3.556   3.420   6.561 -0.1431  0.1219 -0.3334
  175SAPI    C119854   3.514   3.306   6.629  0.3155  0.1604  0.0515
  175SAPI    HA19855   3.429   3.258   6.576  0.3355  0.3223 -0.1261
  175SAPI    HB19856   3.592   3.229   6.613  0.4284  0.2572  0.1317
  175SAPI    C219857   3.489   3.342   6.773 -0.0382 -0.4767 -0.4978
  175SAPI    HS19858   3.461   3.250   6.828 -0.0490  0.8359  1.7346
  175SAPI   O2119859   3.392   3.440   6.788  0.0221 -0.1088 -0.5994
  175SAPI   C2119860   3.261   3.410   6.768  0.0404  0.7180 -0.8770
  175SAPI   O2219861   3.219   3.298   6.740  0.5444 -0.0065  0.2249
  175SAPI   C2219862   3.176   3.531   6.787  0.4484  0.6365  0.1347
  175SAPI   H2R19863   3.186   3.565   6.893 -2.6985 -1.1127  1.0725
  175SAPI   H2S19864   3.222   3.614   6.732  2.0240 -1.4792 -1.8116
  175SAPI    C319865   3.616   3.394   6.848 -0.2623 -0.6422  0.5761
  175SAPI    HX19866   3.645   3.488   6.797 -0.9059  0.0456  1.4655
  175SAPI    HY19867   3.708   3.334   6.833  0.1515 -0.6673  2.9348
  175SAPI   O3119868   3.584   3.411   6.986 -0.9284 -0.5715 -0.3738
  175SAPI   C3119869   3.537   3.537   7.022  0.0215 -0.1331  0.0650
  175SAPI   O3219870   3.541   3.635   6.956 -0.0536 -0.3565  0.3804
  175SAPI   C3219871   3.500   3.539   7.171 -0.4676  0.3574 -0.8963
  175SAPI   H2X19872   3.538   3.447   7.220 -0.7381  1.8978  2.3232
  175SAPI   H2Y19873   3.389   3.549   7.179 -0.4737 -0.9680  0.9854
  175SAPI   C2319874   3.027   3.523   6.756  0.2273  0.7302 -0.6328
  175SAPI   H3R19875   2.992   3.419   6.771 -3.0728  1.5504 -1.9962
  175SAPI   H3S19876   3.010   3.545   6.648 -0.2134  1.1577 -0.4779
  175SAPI   C2419877   2.925   3.620   6.830 -0.3104 -0.5693  0.1118
  175SAPI   H4R19878   2.941   3.589   6.935 -0.3219  0.3962  0.4077
  175SAPI   H4S19879   2.824   3.596   6.789 -0.6330  1.6184 -0.4677
  175SAPI   C2519880   2.950   3.767   6.811 -0.3800  0.6270 -0.0306
  175SAPI   H5R19881   2.931   3.814   6.714  1.5651  0.4548 -0.5086
  175SAPI   C2619882   3.004   3.848   6.910 -0.3653  0.8796 -0.3831
  175SAPI   H6R19883   3.019   3.951   6.878 -2.6242  0.8334 -1.7010
  175SAPI   C2719884   3.054   3.807   7.049 -0.1487  0.3412 -0.3956
  175SAPI   H7R19885   3.143   3.869   7.072 -0.2618  0.6904 -0.8981
  175SAPI   H7S19886   3.100   3.706   7.048 -1.3764 -0.2620  2.1813
  175SAPI   C2819887   2.948   3.828   7.162  0.4416  0.2525  0.6591
  175SAPI   H8R19888   2.845   3.843   7.128  0.5704 -0.5729 -0.1201
  175SAPI   C2919889   2.984   3.832   7.294 -0.1648 -0.5461 -0.0759
  175SAPI   H9R19890   2.904   3.834   7.369 -0.0894  1.6861 -0.0205
  175SAPI  C21019891   3.126   3.804   7.342  0.1591 -0.2142  0.0774
  175SAPI  H10R19892   3.156   3.892   7.402  2.6671  0.1888 -1.6793
  175SAPI  H10S19893   3.196   3.802   7.256  0.8798  0.3360  0.6501
  175SAPI  C21119894   3.125   3.668   7.400 -0.0784  0.3059  0.3465
  175SAPI  H11R19895   3.141   3.583   7.332 -3.2150 -1.0097  1.1613
  175SAPI  C21219896   3.089   3.638   7.529  0.0013 -0.0689 -0.0115
  175SAPI  H12R19897   3.095   3.535   7.568  1.9747 -0.2977 -0.9004
  175SAPI  C21319898   3.049   3.741   7.632 -0.2018  0.0056 -0.1357
  175SAPI  H13R19899   3.047   3.847   7.597 -0.8881  0.0139 -0.0764
  175SAPI  H13S19900   3.131   3.744   7.706 -0.7401  0.2972  0.4515
  175SAPI  C21419901   2.921   3.715   7.708  0.8773 -0.0729  0.1571
  175SAPI  H14R19902   2.825   3.745   7.663 -0.0105 -2.3033  0.4919
  175SAPI  C21519903   2.916   3.637   7.817  0.2564 -0.3574  0.3152
  175SAPI  H15R19904   2.821   3.621   7.869 -0.4560 -1.3848 -1.2579
  175SAPI  C21619905   3.027   3.566   7.891 -0.0281 -0.2070  0.7828
  175SAPI  H16R19906   3.109   3.532   7.824 -0.1968 -0.2120  0.5791
  175SAPI  H16S19907   2.985   3.474   7.938 -1.9927 -0.1911 -0.8532
  175SAPI  C21719908   3.076   3.652   8.012 -0.1277  0.2343 -0.2947
  175SAPI  H17R19909   3.001   3.649   8.094  1.7421  0.4191  1.4566
  175SAPI  H17S19910   3.090   3.753   7.969 -0.9630  0.2106 -0.6351
  175SAPI  C21819911   3.201   3.603   8.074  0.5462  0.9172 -0.7919
  175SAPI  H18R19912   3.282   3.599   7.997 -0.5459  2.5251 -2.0453
  175SAPI  H18S19913   3.198   3.495   8.103 -0.5339  0.5861 -2.0868
  175SAPI  C21919914   3.248   3.689   8.191  0.0711  0.1200 -0.1953
  175SAPI  H19R19915   3.350   3.667   8.228 -0.5140  2.1064  2.8069
  175SAPI  H19S19916   3.181   3.692   8.280  1.1871 -1.6294  0.7361
  175SAPI  C22019917   3.260   3.833   8.156 -0.0276 -0.4118  1.0310
  175SAPI  H20R19918   3.159   3.871   8.131  0.9124  1.0077 -0.8594
  175SAPI  H20S19919   3.321   3.834   8.063 -1.4796  0.3173  0.0653
  175SAPI  H20T19920   3.311   3.891   8.236  0.7564  0.3791 -0.0098
  175SAPI   C3319921   3.580   3.657   7.237 -0.3381 -0.2932 -0.9848
  175SAPI   H3X19922   3.564   3.751   7.180  3.9424  0.8728 -0.4570
  175SAPI   H3Y19923   3.688   3.632   7.234  0.0441  1.2518 -0.5265
  175SAPI   C3419924   3.528   3.703   7.371  0.2456  0.5108 -0.6888
  175SAPI   H4X19925   3.423   3.738   7.368 -0.6556 -1.8745  1.2898
  175SAPI   H4Y19926   3.587   3.792   7.399 -2.5927  1.9689  0.7934
  175SAPI   C3519927   3.545   3.605   7.485  0.2019  0.0744  1.0152
  175SAPI   H5X19928   3.653   3.578   7.486  0.4083  0.8174 -0.1252
  175SAPI   H5Y19929   3.497   3.508   7.457 -1.2470  0.4722  2.0779
  175SAPI   C3619930   3.514   3.663   7.621  0.3861 -0.0697  0.2454
  175SAPI   H6X19931   3.407   3.692   7.621  0.5490  0.5435 -0.5934
  175SAPI   H6Y19932   3.583   3.748   7.640  1.2971 -0.9047  0.7023
  175SAPI   C3719933   3.515   3.562   7.737 -0.0509 -0.6682 -0.1859
  175SAPI   H7X19934   3.420   3.507   7.720 -0.2380 -1.0915  2.1322
  175SAPI   H7Y19935   3.512   3.611   7.836  1.7867 -1.3617  0.2360
  175SAPI   C3819936   3.626   3.453   7.747  0.0281  0.6265  0.2229
  175SAPI   H8X19937   3.719   3.509   7.769  0.7333 -0.1545 -0.6881
  175SAPI   H8Y19938   3.628   3.400   7.649 -0.3178 -0.5677  0.8481
  175SAPI   C3919939   3.593   3.357   7.862 -0.1551  0.6585  0.4350
  175SAPI   H9X19940   3.665   3.272   7.857  0.6839  1.4860 -2.2662
  175SAPI   H9Y19941   3.499   3.307   7.831 -0.9037  1.3718  1.5159
  175SAPI  C31019942   3.600   3.409   8.005 -0.7619 -0.8259  0.1746
  175SAPI  H10X19943   3.523   3.488   8.021 -0.4691 -1.3670  5.0868
  175SAPI  H10Y19944   3.699   3.455   8.025 -1.8248  1.8336 -0.4125
  175SAPI  C31119945   3.555   3.303   8.108  0.8209  0.4014  0.5459
  175SAPI  H11X19946   3.506   3.212   8.068  2.4438 -0.1796 -0.1724
  175SAPI  H11Y19947   3.479   3.342   8.179  1.2187  1.5724  0.3381
  175SAPI  C31219948   3.665   3.247   8.197  0.0258 -0.2740 -0.4009
  175SAPI  H12X19949   3.703   3.334   8.254 -1.1041  1.4751 -2.2173
  175SAPI  H12Y19950   3.743   3.203   8.131 -0.9887  0.1028 -1.8871
  175SAPI  C31319951   3.630   3.140   8.291 -0.5438  0.4319 -0.6480
  175SAPI  H13X19952   3.557   3.179   8.365 -0.6126  0.6847 -0.8466
  175SAPI  H13Y19953   3.714   3.110   8.356 -1.9022 -0.6126  0.6697
  175SAPI  C31419954   3.586   3.012   8.220  0.2153  0.9123 -0.0084
  175SAPI  H14X19955   3.632   2.990   8.122  0.7244 -1.0583  0.6392
  175SAPI  H14Y19956   3.478   3.026   8.200  0.5409  2.0892 -0.9735
  175SAPI  C31519957   3.595   2.891   8.307  0.4936 -0.1368 -0.3318
  175SAPI  H15X19958   3.512   2.903   8.380  0.2228 -3.6877  0.0435
  175SAPI  H15Y19959   3.689   2.895   8.367  1.0559 -0.8290 -1.1622
  175SAPI  C31619960   3.590   2.754   8.238 -0.3823  0.0110  0.0157
  175SAPI  H16X19961   3.580   2.680   8.320  0.9193  0.4536  0.5828
  175SAPI  H16Y19962   3.683   2.760   8.177 -1.1887  0.2182 -1.2228
  175SAPI  C31719963   3.469   2.731   8.142 -0.0999 -0.3387 -0.4423
  175SAPI  H17X19964   3.493   2.651   8.069 -0.1783 -1.2877  0.5544
  175SAPI  H17Y19965   3.443   2.829   8.097 -0.9249  0.6779  2.1613
  175SAPI  C31819966   3.337   2.684   8.209  0.3255 -0.5380  0.2383
  175SAPI  H18X19967   3.274   2.664   8.119  0.2513 -0.4632  0.2733
  175SAPI  H18Y19968   3.287   2.758   8.274 -0.0254 -0.1438 -0.4734
  175SAPI  H18Z19969   3.341   2.595   8.276 -0.6368 -0.6501  0.1547
  176SAPI   C1219970   3.393   2.496   6.299 -0.7612 -0.1537 -0.4366
  176SAPI    H219971   3.287   2.489   6.333 -0.1082 -1.3374  1.4320
  176SAPI    O219972   3.402   2.443   6.168 -0.1130  0.5758 -0.0865
  176SAPI   HO219973   3.314   2.407   6.159 -0.0473 -0.2405  2.0257
  176SAPI   C1319974   3.466   2.636   6.306  0.7151  0.0932 -0.2739
  176SAPI    H319975   3.439   2.683   6.403  0.0544  0.2879 -0.5479
  176SAPI    O319976   3.405   2.727   6.210 -0.2040 -0.6789 -0.1245
  176SAPI   HO319977   3.406   2.678   6.127 -0.6354 -1.4249  0.3112
  176SAPI   C1419978   3.613   2.627   6.289 -0.1724  0.8700 -0.1687
  176SAPI    H419979   3.621   2.591   6.184  1.2445 -0.0173  0.2099
  176SAPI    O419980   3.674   2.751   6.291  0.1978  0.2381  0.5950
  176SAPI   HO419981   3.633   2.799   6.218  3.5737  2.0674 -0.2031
  176SAPI   C1519982   3.677   2.522   6.383  0.4295  0.1432 -0.0350
  176SAPI    H519983   3.653   2.568   6.482  0.2218 -0.9638  0.4376
  176SAPI    O519984   3.812   2.519   6.383 -0.4911 -0.2657 -0.3014
  176SAPI   HO519985   3.842   2.531   6.473 -1.2732  2.3450 -0.3571
  176SAPI   C1619986   3.609   2.385   6.380  0.2686  0.0622 -0.5743
  176SAPI    H619987   3.627   2.340   6.279  0.8266 -0.1228 -0.3975
  176SAPI    O619988   3.667   2.295   6.471 -0.4173 -0.4854 -0.5780
  176SAPI   HO619989   3.649   2.315   6.563  1.0766 -1.0560 -0.1375
  176SAPI   C1119990   3.460   2.399   6.405 -0.7933  0.3197 -0.3963
  176SAPI    H119991   3.436   2.443   6.504  0.1767  1.7848 -0.8135
  176SAPI     P19992   3.263   2.234   6.494 -0.0238 -0.3941 -0.0286
  176SAPI   O1319993   3.221   2.105   6.445  0.2298  0.5195  0.3519
  176SAPI   O1419994   3.169   2.350   6.499 -0.4581 -0.6013  0.4717
  176SAPI   O1219995   3.398   2.273   6.398 -0.3699  0.1743  0.3603
  176SAPI   O1119996   3.342   2.217   6.631 -0.1549  0.1782 -0.4967
  176SAPI    C119997   3.408   2.106   6.678 -0.1357  0.1318 -0.4301
  176SAPI    HA19998   3.479   2.067   6.602 -0.2830  1.4318 -1.2502
  176SAPI    HB19999   3.474   2.135   6.763  2.0055  1.9976 -2.6536
  176SAPI    C220000   3.318   1.991   6.745 -0.2109 -0.1043  0.2705
  176SAPI    HS20001   3.241   1.960   6.670  0.5308  0.3031 -0.6702
  176SAPI   O2120002   3.274   2.036   6.878  0.5906 -0.3822 -0.0666
  176SAPI   C2120003   3.152   2.005   6.912  0.0681  0.0492 -0.0705
  176SAPI   O2220004   3.069   1.941   6.844  0.3015 -0.5415  0.0385
  176SAPI   C2220005   3.134   2.052   7.056 -0.4712  0.7964  0.2790
  176SAPI   H2R20006   3.232   2.027   7.102 -1.8859 -2.5834  1.6614
  176SAPI   H2S20007   3.131   2.163   7.057 -1.3358  0.7756 -0.2181
  176SAPI    C320008   3.410   1.869   6.753 -0.0435  0.2380 -0.4360
  176SAPI    HX20009   3.513   1.901   6.781 -0.0657 -1.0170  1.1693
  176SAPI    HY20010   3.435   1.821   6.656 -0.6936  0.2647 -0.6184
  176SAPI   O3120011   3.369   1.768   6.847 -0.1363  0.3676  0.0155
  176SAPI   C3120012   3.281   1.685   6.798 -0.5516 -0.4710 -0.3013
  176SAPI   O3220013   3.242   1.683   6.685  0.4999  0.3283  0.6828
  176SAPI   C3220014   3.241   1.578   6.906  0.1134  0.3707 -0.0244
  176SAPI   H2X20015   3.320   1.503   6.927 -0.1115  0.0726 -0.2396
  176SAPI   H2Y20016   3.154   1.524   6.863 -0.1993  2.1933 -1.7195
  176SAPI   C2320017   2.993   1.998   7.101  0.2311  0.8056  0.2694
  176SAPI   H3R20018   2.990   1.887   7.100 -1.9892  0.8323  1.3512
  176SAPI   H3S20019   2.922   2.056   7.037 -0.9078 -0.1505  0.6459
  176SAPI   C2420020   2.959   2.034   7.247 -0.0270  0.1205 -0.1393
  176SAPI   H4R20021   3.027   1.970   7.307 -0.0337  0.9055  0.7019
  176SAPI   H4S20022   2.857   1.993   7.263 -0.2467  0.5636 -0.3792
  176SAPI   C2520023   2.969   2.177   7.301 -0.1039 -0.0189 -0.1014
  176SAPI   H5R20024   2.902   2.252   7.255 -0.5694 -1.4621 -1.8635
  176SAPI   C2620025   3.038   2.224   7.408  0.4625  1.1338 -0.1385
  176SAPI   H6R20026   3.030   2.333   7.421  1.7277  0.9078  2.8869
  176SAPI   C2720027   3.128   2.152   7.502 -0.2916 -0.4481 -0.3796
  176SAPI   H7R20028   3.200   2.089   7.446  2.3296  1.6039  0.5405
  176SAPI   H7S20029   3.073   2.088   7.574 -0.0272 -0.9299 -0.6090
  176SAPI   C2820030   3.215   2.253   7.574  0.2713  0.8875  0.0510
  176SAPI   H8R20031   3.283   2.307   7.508 -2.5367  3.8379 -0.5498
  176SAPI   C2920032   3.222   2.272   7.708  0.1270 -0.3841  0.2264
  176SAPI   H9R20033   3.293   2.348   7.744 -0.4013  0.3924 -0.3640
  176SAPI  C21020034   3.144   2.200   7.814  0.6426  0.1404 -0.0496
  176SAPI  H10R20035   3.093   2.107   7.779 -0.2426  1.0661 -1.2256
  176SAPI  H10S20036   3.064   2.267   7.851 -0.0782 -0.4057 -0.6067
  176SAPI  C21120037   3.221   2.161   7.931  0.6055  0.7936  0.7474
  176SAPI  H11R20038   3.329   2.184   7.933  0.4947  1.3713  0.1754
  176SAPI  C21220039   3.163   2.112   8.045  0.6544 -0.2700 -0.3885
  176SAPI  H12R20040   3.236   2.087   8.124  1.0550 -0.1010 -0.7072
  176SAPI  C21320041   3.023   2.101   8.079  0.7113  0.3982 -0.0197
  176SAPI  H13R20042   2.994   1.997   8.103 -1.6494  1.5538  2.3489
  176SAPI  H13S20043   2.954   2.133   7.998  0.4838  2.0224  0.7896
  176SAPI  C21420044   3.000   2.196   8.197 -0.2041  0.1054 -0.4195
  176SAPI  H14R20045   3.001   2.304   8.176  0.3056  0.5173  1.6621
  176SAPI  C21520046   2.997   2.150   8.327  0.2054  0.5590 -0.0261
  176SAPI  H15R20047   2.979   2.225   8.406  1.6224 -1.0978  1.9319
  176SAPI  C21620048   3.012   2.007   8.378  0.5606 -0.2227 -0.4663
  176SAPI  H16R20049   2.986   1.926   8.307 -0.9720 -1.3669  1.3617
  176SAPI  H16S20050   2.926   2.009   8.448  1.9152 -1.3693  1.2741
  176SAPI  C21720051   3.131   1.971   8.455 -0.0043  0.0720 -0.7428
  176SAPI  H17R20052   3.220   1.973   8.389  0.3925 -2.0011 -0.3224
  176SAPI  H17S20053   3.125   1.863   8.484 -1.6097  0.1382 -0.7554
  176SAPI  C21820054   3.163   2.051   8.579 -0.1944 -0.6098 -0.2451
  176SAPI  H18R20055   3.079   2.056   8.652 -0.8769 -2.9813 -0.8394
  176SAPI  H18S20056   3.180   2.159   8.560  0.0248 -0.8795 -1.6492
  176SAPI  C21920057   3.291   2.015   8.661  0.0565  0.4292 -0.3842
  176SAPI  H19R20058   3.381   2.013   8.597  0.6821 -2.4206  0.4950
  176SAPI  H19S20059   3.274   1.910   8.695  2.0035  0.6883  1.5261
  176SAPI  C22020060   3.316   2.104   8.782 -0.4082  0.0050 -0.2349
  176SAPI  H20R20061   3.407   2.065   8.832 -0.6781  1.0648  1.1080
  176SAPI  H20S20062   3.236   2.104   8.860  1.6600 -1.5034  1.9458
  176SAPI  H20T20063   3.334   2.209   8.751 -3.4246  0.1681 -1.6535
  176SAPI   C3320064   3.189   1.639   7.040  0.0291  0.2837  0.2773
  176SAPI   H3X20065   3.123   1.559   7.080 -0.4396  1.0363  1.0330
  176SAPI   H3Y20066   3.131   1.733   7.025  0.7061  0.3778 -1.9444
  176SAPI   C3420067   3.301   1.661   7.149  0.0677  0.2232 -0.3731
  176SAPI   H4X20068   3.390   1.715   7.110  0.6197 -0.1551  0.3362
  176SAPI   H4Y20069   3.335   1.558   7.173  0.8430  0.6507  0.4025
  176SAPI   C3520070   3.243   1.733   7.271 -0.1801 -1.0048  0.5709
  176SAPI   H5X20071   3.136   1.706   7.280 -1.2539  2.7048 -0.4025
  176SAPI   H5Y20072   3.254   1.843   7.261  1.0673 -1.2486 -1.0195
  176SAPI   C3620073   3.325   1.696   7.391  0.4088 -0.3271 -0.4057
  176SAPI   H6X20074   3.432   1.727   7.384  0.1784  0.7595  0.6790
  176SAPI   H6Y20075   3.321   1.586   7.402  1.0353 -0.3034  0.0816
  176SAPI   C3720076   3.279   1.770   7.521 -0.5583  0.3338  0.0471
  176SAPI   H7X20077   3.168   1.777   7.526 -0.5191  0.5062  0.8019
  176SAPI   H7Y20078   3.317   1.874   7.513  3.4154 -1.1192 -1.4493
  176SAPI   C3820079   3.342   1.705   7.645 -0.7578 -0.2175  0.1266
  176SAPI   H8X20080   3.451   1.701   7.621 -0.7864 -1.0229  0.1326
  176SAPI   H8Y20081   3.303   1.601   7.645  0.2937 -0.6617  2.9273
  176SAPI   C3920082   3.308   1.771   7.785 -0.7218  0.6988 -0.6819
  176SAPI   H9X20083   3.203   1.746   7.811 -0.3251  0.4130  0.6824
  176SAPI   H9Y20084   3.323   1.881   7.786  3.1173  0.2463 -0.0982
  176SAPI  C31020085   3.406   1.722   7.895  0.2874  0.2589  0.3304
  176SAPI  H10X20086   3.500   1.707   7.838  0.4570 -0.8807  0.8979
  176SAPI  H10Y20087   3.369   1.623   7.931  3.3035 -0.4384  1.6808
  176SAPI  C31120088   3.417   1.818   8.015 -0.3525  0.2480  1.0576
  176SAPI  H11X20089   3.317   1.857   8.041 -0.8658 -0.4366  0.1472
  176SAPI  H11Y20090   3.470   1.907   7.975  2.3740 -1.1827  1.3131
  176SAPI  C31220091   3.496   1.754   8.125  0.3459 -0.2873 -0.3862
  176SAPI  H12X20092   3.599   1.720   8.100  0.2769 -1.7817  1.2399
  176SAPI  H12Y20093   3.446   1.667   8.174  0.2344 -0.0146 -0.0128
  176SAPI  C31320094   3.502   1.860   8.234  0.5413  0.4955  0.1816
  176SAPI  H13X20095   3.404   1.909   8.252  1.3941  2.1381  0.4771
  176SAPI  H13Y20096   3.561   1.946   8.195 -0.7789  1.0944 -0.4913
  176SAPI  C31420097   3.553   1.821   8.377 -0.1404  0.2368 -0.4881
  176SAPI  H14X20098   3.489   1.743   8.424  0.2620  0.7932  0.9994
  176SAPI  H14Y20099   3.545   1.912   8.439  0.9789  0.0922 -0.1338
  176SAPI  C31520100   3.698   1.765   8.385  0.4786  0.1916  0.0650
  176SAPI  H15X20101   3.757   1.847   8.339 -1.9929  1.2301 -1.3882
  176SAPI  H15Y20102   3.701   1.676   8.318  3.0524  0.2271  0.0832
  176SAPI  C31620103   3.753   1.733   8.526  0.0704 -0.0380 -0.1573
  176SAPI  H16X20104   3.674   1.669   8.570 -1.2404  1.3439 -0.4695
  176SAPI  H16Y20105   3.766   1.828   8.583 -0.2576  1.2556 -2.1904
  176SAPI  C31720106   3.891   1.668   8.526 -0.6821  0.2391  0.2544
  176SAPI  H17X20107   3.889   1.593   8.444 -0.4684 -1.4704  1.8064
  176SAPI  H17Y20108   3.906   1.627   8.628  0.2760 -1.1512 -0.4340
  176SAPI  C31820109   4.011   1.763   8.518 -0.1328 -0.4742 -0.4709
  176SAPI  H18X20110   4.029   1.807   8.417  1.8250  0.1368  0.1238
  176SAPI  H18Y20111   4.102   1.716   8.560  1.0561  0.2847 -2.1636
  176SAPI  H18Z20112   3.996   1.859   8.572  1.6977 -0.2904 -0.2725
  177SLPC     N20113   2.578   6.413  11.427  0.3365  0.0084 -0.0471
  177SLPC   C1320114   2.706   6.450  11.364 -0.1336  0.4084 -0.1691
  177SLPC  H13A20115   2.791   6.464  11.429 -1.2339 -1.7041  1.7854
  177SLPC  H13B20116   2.740   6.378  11.291  0.5582  0.7871 -0.2264
  177SLPC  H13C20117   2.688   6.545  11.315  0.3737  0.1148 -0.9355
  177SLPC   C1420118   2.550   6.512  11.540 -0.0769  0.2698  1.2436
  177SLPC  H14A20119   2.526   6.605  11.491 -1.3440 -0.6873  0.0011
  177SLPC  H14B20120   2.465   6.482  11.600  0.7227 -2.3460  1.1443
  177SLPC  H14C20121   2.635   6.533  11.604  1.5261  0.9611 -1.0721
  177SLPC   C1520122   2.602   6.282  11.483  1.2251  0.7021  0.3562
  177SLPC  H15A20123   2.634   6.219  11.400 -1.6400 -0.1783 -0.1193
  177SLPC  H15B20124   2.683   6.270  11.553  0.0592 -0.5874  1.5054
  177SLPC  H15C20125   2.518   6.236  11.531  1.5296 -0.8901 -0.5773
  177SLPC   C1220126   2.466   6.416  11.321  0.3632  0.7077  0.1154
  177SLPC  H12A20127   2.475   6.510  11.268  1.2820  1.1225  0.9674
  177SLPC  H12B20128   2.376   6.435  11.377  1.2377  1.7774  1.2080
  177SLPC   C1120129   2.453   6.296  11.227  0.6633 -0.1564 -0.3129
  177SLPC  H11A20130   2.355   6.291  11.175 -1.5761  0.1767  3.6810
  177SLPC  H11B20131   2.457   6.201  11.286 -1.1339  0.6440  1.1380
  177SLPC     P20132   2.648   6.194  11.073  0.2043 -0.4025 -0.3686
  177SLPC   O1320133   2.767   6.258  11.016  1.0642 -0.2240 -0.2607
  177SLPC   O1420134   2.664   6.086  11.172 -0.3764 -0.0328 -0.4456
  177SLPC   O1220135   2.556   6.310  11.137 -0.1223  0.0329 -0.8365
  177SLPC   O1120136   2.556   6.142  10.951  0.7390 -0.1019  0.1906
  177SLPC    C120137   2.623   6.063  10.854  0.1526  0.1185  0.3994
  177SLPC    HA20138   2.729   6.083  10.827 -0.3158 -0.8498 -2.2668
  177SLPC    HB20139   2.616   5.954  10.874 -2.8433 -0.1488 -1.8651
  177SLPC    C220140   2.550   6.083  10.713 -0.2442 -0.6565 -0.3953
  177SLPC    HS20141   2.611   6.024  10.641 -1.1040 -3.2149  0.9062
  177SLPC   O2120142   2.515   6.221  10.680  0.1184  0.2203  0.2041
  177SLPC   C2120143   2.621   6.302  10.669  0.1321  0.3763 -0.1592
  177SLPC   O2220144   2.736   6.268  10.663  0.2660 -0.3961 -0.8014
  177SLPC   C2220145   2.565   6.440  10.648 -0.1556 -0.0300  0.0906
  177SLPC   H2R20146   2.474   6.430  10.585  0.9847 -2.4172 -1.2481
  177SLPC   H2S20147   2.530   6.480  10.745 -1.4488  0.4703 -0.5701
  177SLPC    C320148   2.410   6.009  10.711 -0.0752  0.6239  0.1248
  177SLPC    HX20149   2.332   6.073  10.758 -0.6003  0.2037 -0.1695
  177SLPC    HY20150   2.417   5.928  10.786  0.2633  1.6528  1.2105
  177SLPC   O3120151   2.389   5.966  10.573 -0.3794  0.2805  0.5360
  177SLPC   C3120152   2.348   5.838  10.562  0.1619  0.1021 -0.9161
  177SLPC   O3220153   2.326   5.763  10.656  0.3813  0.0036 -0.7530
  177SLPC   C3220154   2.359   5.796  10.417  0.5708 -0.2219  0.2364
  177SLPC   H2X20155   2.311   5.696  10.411  2.1817 -0.9739 -0.4599
  177SLPC   H2Y20156   2.465   5.773  10.391  0.9002  1.0221  0.4232
  177SLPC   C2320157   2.661   6.538  10.592 -0.1538 -0.1891 -0.4278
  177SLPC   H3R20158   2.759   6.529  10.643  0.4232 -0.7393 -1.6037
  177SLPC   H3S20159   2.628   6.642  10.615  0.4072 -0.1228  0.0971
  177SLPC   C2420160   2.701   6.530  10.444 -0.4892 -0.2326  0.1636
  177SLPC   H4R20161   2.617   6.559  10.377 -2.4048 -1.2291  2.1050
  177SLPC   H4S20162   2.731   6.426  10.422  1.0027 -0.1778  1.8293
  177SLPC   C2520163   2.822   6.618  10.400 -0.3244  0.2997 -0.4145
  177SLPC   H5R20164   2.920   6.570  10.423  0.1167  1.0985 -0.6122
  177SLPC   H5S20165   2.836   6.712  10.457  1.5152  1.1420 -2.1764
  177SLPC   C2620166   2.832   6.631  10.252  0.0622 -0.7653  0.4511
  177SLPC   H6R20167   2.885   6.725  10.226 -1.1821  0.1277  1.0725
  177SLPC   H6S20168   2.730   6.647  10.211  0.3687  1.2136  0.4112
  177SLPC   C2720169   2.895   6.511  10.172  0.0378  0.6785  0.5263
  177SLPC   H7R20170   2.846   6.416  10.202  0.1947  0.6711  0.7667
  177SLPC   H7S20171   2.999   6.498  10.210  1.0010  0.0423 -2.2104
  177SLPC   C2820172   2.897   6.534  10.022 -0.6371 -0.1804 -0.2104
  177SLPC   H8R20173   2.981   6.472   9.983 -0.3656 -0.3868  0.7019
  177SLPC   H8S20174   2.914   6.643  10.014 -0.4274 -0.2445 -0.6782
  177SLPC   C2920175   2.767   6.505   9.952 -0.2434 -0.1288 -0.8221
  177SLPC   H9R20176   2.680   6.514  10.019  0.1206 -1.8028 -0.0869
  177SLPC  C21020177   2.761   6.464   9.829 -0.1878  0.3543 -0.1675
  177SLPC  H10R20178   2.663   6.434   9.790  0.3497 -1.3735 -0.2149
  177SLPC  C21120179   2.867   6.434   9.735 -0.3438  0.3046  0.0513
  177SLPC  H11R20180   2.922   6.524   9.701  0.5378 -1.0048 -2.1492
  177SLPC  H11S20181   2.948   6.381   9.789 -0.5656  0.3217  0.4000
  177SLPC  C21220182   2.843   6.342   9.623  0.0194  0.0463  0.6258
  177SLPC  H12R20183   2.856   6.236   9.649 -1.2684 -0.3399 -0.2938
  177SLPC  C21320184   2.804   6.379   9.498  0.8938  0.6880 -0.5721
  177SLPC  H13R20185   2.774   6.303   9.424 -0.0434  1.3057 -0.8283
  177SLPC  C21420186   2.770   6.518   9.447  0.0347 -0.4390  0.5124
  177SLPC  H14R20187   2.803   6.590   9.525 -1.4846 -1.3813  2.0491
  177SLPC  H14S20188   2.659   6.528   9.446 -0.1966 -2.8417  0.0243
  177SLPC  C21520189   2.841   6.566   9.320  0.4575 -0.5799 -0.6621
  177SLPC  H15R20190   2.790   6.516   9.236  1.2543 -2.1368 -0.2327
  177SLPC  H15S20191   2.948   6.540   9.331 -0.3565 -4.3032 -0.7981
  177SLPC  C21620192   2.810   6.716   9.286  0.0130  0.2934 -0.3338
  177SLPC  H16R20193   2.705   6.736   9.316 -0.0065 -3.6709  2.6530
  177SLPC  H16S20194   2.834   6.740   9.180 -0.2566  0.6688 -0.3072
  177SLPC  C21720195   2.890   6.813   9.374 -0.2117 -0.0392 -0.3778
  177SLPC  H17R20196   2.996   6.780   9.362  0.7032  1.5069  2.8516
  177SLPC  H17S20197   2.871   6.805   9.483 -0.5412 -1.9429 -0.5550
  177SLPC  C21820198   2.891   6.960   9.316  0.0884  0.3675 -0.0115
  177SLPC  H18R20199   2.972   7.013   9.371  2.7872 -2.2751 -1.3364
  177SLPC  H18S20200   2.789   7.000   9.338 -0.1112  0.0438 -0.3621
  177SLPC  H18T20201   2.912   6.967   9.208  2.8089  0.9544  0.5203
  177SLPC   C3320202   2.289   5.893  10.316 -0.1749  0.0087 -0.5325
  177SLPC   H3X20203   2.358   5.981  10.313 -2.9287  2.3170  1.3680
  177SLPC   H3Y20204   2.193   5.926  10.360  0.1902  1.0518 -0.4834
  177SLPC   C3420205   2.251   5.839  10.177  0.8735  0.8325 -0.9510
  177SLPC   H4X20206   2.165   5.902  10.147 -1.1924 -1.6187 -0.3595
  177SLPC   H4Y20207   2.202   5.739  10.183 -0.1751  1.4242  0.5193
  177SLPC   C3520208   2.373   5.829  10.085  0.6181 -0.3126  0.2026
  177SLPC   H5X20209   2.456   5.771  10.131  2.0647 -1.6342 -3.8262
  177SLPC   H5Y20210   2.410   5.934  10.086  0.7973 -0.2762 -3.3808
  177SLPC   C3620211   2.353   5.770   9.946 -0.2058 -0.2858 -0.4613
  177SLPC   H6X20212   2.264   5.827   9.910 -1.2673 -1.0216  0.9691
  177SLPC   H6Y20213   2.343   5.660   9.951  0.2175 -0.2797  0.6564
  177SLPC   C3720214   2.468   5.808   9.849 -0.1684  0.0342 -0.4291
  177SLPC   H7X20215   2.562   5.751   9.866  0.8685  1.4403 -1.3301
  177SLPC   H7Y20216   2.502   5.912   9.867 -0.6342  0.0335  0.4388
  177SLPC   C3820217   2.424   5.788   9.705  0.0191 -0.1913 -0.2837
  177SLPC   H8X20218   2.337   5.854   9.685  0.8658  0.7133 -1.0395
  177SLPC   H8Y20219   2.394   5.689   9.665  1.2412 -0.3638 -0.7962
  177SLPC   C3920220   2.532   5.844   9.612  0.0284 -0.7497 -0.7246
  177SLPC   H9X20221   2.632   5.813   9.649  0.4834  0.3941 -0.9615
  177SLPC   H9Y20222   2.530   5.955   9.625  0.2858 -0.4758 -2.9453
  177SLPC  C31020223   2.511   5.803   9.469 -0.1534 -0.1572 -0.7378
  177SLPC  H10X20224   2.414   5.844   9.436 -0.4014  0.7602  1.0539
  177SLPC  H10Y20225   2.495   5.695   9.451  1.5935 -0.5239 -0.1974
  177SLPC  C31120226   2.622   5.859   9.372  0.1254  0.1392  0.9608
  177SLPC  H11X20227   2.700   5.781   9.362 -0.4536 -0.5337  1.6269
  177SLPC  H11Y20228   2.679   5.941   9.421  1.2311 -0.5839  0.8929
  177SLPC  C31220229   2.569   5.914   9.244  0.1902  0.6386 -0.6061
  177SLPC  H12X20230   2.497   5.990   9.280 -0.6048 -0.3539 -0.0518
  177SLPC  H12Y20231   2.517   5.838   9.182  0.8914 -0.1185 -0.2733
  177SLPC  C31320232   2.670   5.995   9.160 -0.2005  0.6120 -0.1385
  177SLPC  H13X20233   2.742   6.045   9.228 -0.6358  1.7255 -0.4823
  177SLPC  H13Y20234   2.626   6.086   9.112 -1.8402 -0.8825 -1.5432
  177SLPC  C31420235   2.743   5.903   9.062  0.2401 -0.2605  0.0967
  177SLPC  H14X20236   2.677   5.886   8.975 -0.0738  0.4463  0.1957
  177SLPC  H14Y20237   2.771   5.802   9.099  0.1648 -0.2130  0.2828
  177SLPC  C31520238   2.874   5.969   9.008  0.9145 -0.2513  0.3875
  177SLPC  H15X20239   2.936   5.999   9.096 -0.5548  0.4663  1.1948
  177SLPC  H15Y20240   2.843   6.065   8.961 -0.0012  0.1686  1.8178
  177SLPC  C31620241   2.949   5.877   8.909 -0.1791 -0.2844  1.0873
  177SLPC  H16X20242   3.021   5.804   8.953 -1.8945 -0.2297  4.1444
  177SLPC  H16Y20243   3.016   5.942   8.849  1.4059 -3.2991 -0.5928
  177SLPC  C31720244   2.858   5.805   8.815 -0.1153 -0.0220  0.1449
  177SLPC  H17X20245   2.779   5.876   8.781  0.5256 -0.5248 -2.5030
  177SLPC  H17Y20246   2.813   5.721   8.872  0.8305 -0.1791  0.6620
  177SLPC  C31820247   2.930   5.762   8.684  0.4969  0.1215 -0.2561
  177SLPC  H18X20248   2.854   5.709   8.622  0.9483  0.7265 -1.3480
  177SLPC  H18Y20249   3.018   5.696   8.699 -0.4467 -0.5490  2.4271
  177SLPC  H18Z20250   2.972   5.844   8.621  0.4491 -0.7442 -1.4475
  178SLPC     N20251   4.331   1.719  11.318  0.0845 -0.1113 -0.1968
  178SLPC   C1320252   4.456   1.782  11.265 -0.5615  0.2644  0.4590
  178SLPC  H13A20253   4.512   1.722  11.195 -0.7186  2.4416 -1.6138
  178SLPC  H13B20254   4.422   1.866  11.206 -0.7048 -1.4565 -1.9869
  178SLPC  H13C20255   4.521   1.827  11.339  0.6527  0.0871 -0.4794
  178SLPC   C1420256   4.267   1.814  11.411 -0.6290 -0.1585 -0.6645
  178SLPC  H14A20257   4.164   1.787  11.430 -0.6115  1.0442  1.2452
  178SLPC  H14B20258   4.314   1.828  11.507 -1.9843 -0.1141  0.0070
  178SLPC  H14C20259   4.271   1.910  11.363  2.1198  1.2135  2.1447
  178SLPC   C1520260   4.370   1.592  11.385  0.1944 -0.0683 -0.3247
  178SLPC  H15A20261   4.440   1.604  11.466 -0.0381 -0.8228 -0.0114
  178SLPC  H15B20262   4.283   1.536  11.417 -0.7157  0.7076 -1.4005
  178SLPC  H15C20263   4.422   1.526  11.316 -1.1902 -0.7632 -0.7253
  178SLPC   C1220264   4.242   1.684  11.199  0.1638 -0.5262  0.4247
  178SLPC  H12A20265   4.213   1.768  11.139 -0.1431 -0.3002  0.8841
  178SLPC  H12B20266   4.152   1.642  11.242 -1.6336  3.3940  0.6173
  178SLPC   C1120267   4.293   1.586  11.096 -0.8481  0.0010  0.4675
  178SLPC  H11A20268   4.207   1.575  11.026 -0.5388  2.0314 -0.2601
  178SLPC  H11B20269   4.313   1.492  11.151  2.0484  0.7077  0.6860
  178SLPC     P20270   4.390   1.742  10.915  0.2475  0.1584  0.3248
  178SLPC   O1320271   4.304   1.848  10.969  0.5410  0.0152 -0.0191
  178SLPC   O1420272   4.528   1.770  10.877 -0.2199 -0.3825  0.2427
  178SLPC   O1220273   4.407   1.628  11.021  0.0273  0.1078 -0.3563
  178SLPC   O1120274   4.316   1.669  10.794  0.4698 -0.0218 -0.6419
  178SLPC    C120275   4.259   1.746  10.688 -0.1343  0.1999 -0.5437
  178SLPC    HA20276   4.161   1.702  10.658  0.5877 -0.3871 -2.1003
  178SLPC    HB20277   4.226   1.846  10.723 -0.3524 -0.4309  1.1196
  178SLPC    C220278   4.349   1.759  10.554  0.2019 -0.2422 -0.6459
  178SLPC    HS20279   4.383   1.658  10.523 -0.3341 -0.7374  0.3427
  178SLPC   O2120280   4.460   1.846  10.587 -0.8665 -0.3492 -0.0351
  178SLPC   C2120281   4.584   1.817  10.541 -0.1148 -0.5139  0.2702
  178SLPC   O2220282   4.618   1.729  10.461 -0.5069  0.9709 -0.4333
  178SLPC   C2220283   4.669   1.932  10.588 -0.1429  0.3383 -0.5130
  178SLPC   H2R20284   4.655   1.950  10.696  0.0278 -1.0154 -0.2642
  178SLPC   H2S20285   4.777   1.906  10.586 -0.1240  0.3528  0.4787
  178SLPC    C320286   4.266   1.828  10.444 -0.4944  0.0240  0.3719
  178SLPC    HX20287   4.270   1.938  10.458 -1.0090  0.1199 -0.1969
  178SLPC    HY20288   4.163   1.801  10.474 -0.2218  0.2561  1.5219
  178SLPC   O3120289   4.293   1.781  10.307 -0.2328 -0.2256  0.1159
  178SLPC   C3120290   4.370   1.862  10.237 -0.0211  0.0798  0.4954
  178SLPC   O3220291   4.411   1.966  10.274 -0.6352  0.1356 -0.5544
  178SLPC   C3220292   4.384   1.808  10.095  0.8010 -0.0849 -0.3622
  178SLPC   H2X20293   4.299   1.844  10.033 -0.6363 -2.4091  0.1958
  178SLPC   H2Y20294   4.367   1.700  10.112 -0.3285  0.3943  1.7520
  178SLPC   C2320295   4.643   2.056  10.504  0.2806 -0.4303 -0.2529
  178SLPC   H3R20296   4.693   2.145  10.548 -0.7412  0.9635 -1.8677
  178SLPC   H3S20297   4.537   2.082  10.485 -0.0228 -0.8561  0.8523
  178SLPC   C2420298   4.701   2.043  10.364  0.2371  0.2978 -0.3128
  178SLPC   H4R20299   4.663   1.956  10.308  0.5589 -1.5766  2.2869
  178SLPC   H4S20300   4.810   2.024  10.373 -0.1061 -0.5667  2.4270
  178SLPC   C2520301   4.667   2.167  10.277 -0.2354 -0.0291 -0.5546
  178SLPC   H5R20302   4.693   2.265  10.323 -1.4942 -0.9036  2.1231
  178SLPC   H5S20303   4.556   2.174  10.272 -0.2812  0.1774  0.6609
  178SLPC   C2620304   4.728   2.171  10.140 -0.5883  0.1499  0.6752
  178SLPC   H6R20305   4.694   2.084  10.079 -0.5759  1.9267 -1.9444
  178SLPC   H6S20306   4.839   2.171  10.145 -0.5542 -2.8191  0.7467
  178SLPC   C2720307   4.698   2.291  10.067 -0.0944  0.5102 -0.1579
  178SLPC   H7R20308   4.727   2.375  10.134 -2.6610  0.3100  1.2686
  178SLPC   H7S20309   4.587   2.301  10.060  0.1820  3.1681 -1.2937
  178SLPC   C2820310   4.757   2.316   9.927 -0.4640  0.5005  0.0409
  178SLPC   H8R20311   4.733   2.421   9.900 -0.5673  0.6239  0.5975
  178SLPC   H8S20312   4.718   2.245   9.851  0.1642  1.0048 -0.7634
  178SLPC   C2920313   4.909   2.318   9.930  0.2628  0.7972 -0.1430
  178SLPC   H9R20314   4.944   2.364  10.023  0.3426 -0.2621  0.3572
  178SLPC  C21020315   5.000   2.286   9.836 -0.4620  0.1684 -0.0596
  178SLPC  H10R20316   5.106   2.296   9.865 -0.6081 -1.8413  1.2539
  178SLPC  C21120317   4.962   2.220   9.699 -0.7011  0.1713 -0.3465
  178SLPC  H11R20318   4.947   2.309   9.634  1.0964  0.3187 -0.5714
  178SLPC  H11S20319   4.862   2.171   9.701 -0.8440  0.4284 -1.3305
  178SLPC  C21220320   5.044   2.107   9.641 -0.2696 -0.3445  0.5672
  178SLPC  H12R20321   5.060   2.113   9.532  0.5690 -1.2612  0.6319
  178SLPC  C21320322   5.095   1.997   9.694 -0.3409  0.4336 -0.1334
  178SLPC  H13R20323   5.157   1.930   9.632  1.8574  1.0839  1.2859
  178SLPC  C21420324   5.069   1.964   9.842 -0.2688 -0.0431  0.6050
  178SLPC  H14R20325   4.982   2.017   9.885 -0.0903  0.7478  0.0059
  178SLPC  H14S20326   5.166   1.990   9.889  1.0249 -0.9744 -1.4866
  178SLPC  C21520327   5.055   1.811   9.866 -0.0493  0.2276  0.2436
  178SLPC  H15R20328   5.134   1.759   9.809 -1.2348  0.6974 -1.8580
  178SLPC  H15S20329   4.962   1.761   9.830  0.0500 -0.6230  1.1204
  178SLPC  C21620330   5.066   1.773  10.016 -0.1997  0.1675 -0.2767
  178SLPC  H16R20331   5.175   1.781  10.037 -0.3191  0.5647  0.2123
  178SLPC  H16S20332   5.030   1.668  10.021  1.7401 -0.5773 -1.3387
  178SLPC  C21720333   4.975   1.864  10.101 -0.2504  0.4646 -0.1062
  178SLPC  H17R20334   4.884   1.893  10.045 -0.8111  0.1199  0.6133
  178SLPC  H17S20335   5.040   1.952  10.119 -1.5918  1.0441  2.0874
  178SLPC  C21820336   4.944   1.792  10.232 -1.0816 -0.8070 -0.4576
  178SLPC  H18R20337   4.997   1.699  10.261  0.1481 -0.2497 -0.8719
  178SLPC  H18S20338   4.838   1.758  10.228 -1.3970  0.0631  0.2279
  178SLPC  H18T20339   4.962   1.861  10.317  0.4616 -0.3135 -1.1789
  178SLPC   C3320340   4.518   1.838  10.035  0.7224 -0.3828 -0.4203
  178SLPC   H3X20341   4.600   1.772  10.071  1.7733 -0.1627 -2.3271
  178SLPC   H3Y20342   4.549   1.941  10.064  0.6316 -0.4421 -0.1110
  178SLPC   C3420343   4.498   1.832   9.878  0.2317  0.6947 -1.0217
  178SLPC   H4X20344   4.410   1.894   9.848 -0.3683  0.5516  0.4379
  178SLPC   H4Y20345   4.479   1.724   9.863  1.2403  0.4488 -0.5386
  178SLPC   C3520346   4.620   1.894   9.810  0.7153 -0.1102 -0.2873
  178SLPC   H5X20347   4.720   1.857   9.842  1.1099  1.0155 -0.1950
  178SLPC   H5Y20348   4.600   2.002   9.826 -2.8068 -0.7626  0.1313
  178SLPC   C3620349   4.611   1.866   9.661  0.3888 -0.1372 -0.0542
  178SLPC   H6X20350   4.506   1.880   9.628 -0.5075 -0.6421  2.4307
  178SLPC   H6Y20351   4.627   1.756   9.654  0.9842 -0.3703  3.6485
  178SLPC   C3720352   4.717   1.939   9.577  0.7490  0.6719 -0.2637
  178SLPC   H7X20353   4.821   1.917   9.607  0.8164  3.7623  1.9939
  178SLPC   H7Y20354   4.703   2.047   9.598  3.3953  1.0820 -0.4520
  178SLPC   C3820355   4.715   1.895   9.425  0.0854  0.2854  0.0425
  178SLPC   H8X20356   4.623   1.934   9.377 -0.1244  1.2517  1.2293
  178SLPC   H8Y20357   4.710   1.785   9.408  0.7754  0.2933 -0.2337
  178SLPC   C3920358   4.836   1.944   9.350 -0.0771  0.1964  0.2829
  178SLPC   H9X20359   4.917   1.949   9.426 -0.2659 -1.0802  0.5860
  178SLPC   H9Y20360   4.811   2.044   9.308  0.8798 -0.2175 -1.2895
  178SLPC  C31020361   4.879   1.848   9.242  0.0084 -0.1244  0.6438
  178SLPC  H10X20362   4.804   1.852   9.160  0.8747  1.0671 -0.1021
  178SLPC  H10Y20363   4.896   1.747   9.286 -1.0319 -0.2174  0.8476
  178SLPC  C31120364   5.022   1.883   9.187 -0.5616  0.1279  0.2330
  178SLPC  H11X20365   5.086   1.903   9.276  1.1934 -1.8451 -0.5148
  178SLPC  H11Y20366   5.018   1.959   9.107  1.0732 -0.2442 -0.2375
  178SLPC  C31220367   5.076   1.759   9.125  0.5631 -0.5025  0.4487
  178SLPC  H12X20368   5.061   1.677   9.197 -1.0129 -0.4453  0.2062
  178SLPC  H12Y20369   5.185   1.773   9.105  0.4052 -1.1953 -1.0219
  178SLPC  C31320370   5.014   1.728   8.987  0.2467  0.2747 -0.0730
  178SLPC  H13X20371   5.045   1.809   8.918 -2.8087 -0.9389 -2.9891
  178SLPC  H13Y20372   4.903   1.726   8.993  0.1814 -1.2142 -1.5199
  178SLPC  C31420373   5.068   1.595   8.930  0.6781 -1.1416 -0.2581
  178SLPC  H14X20374   5.068   1.522   9.014 -1.0983  0.3942  1.1361
  178SLPC  H14Y20375   5.173   1.608   8.899  1.0428 -0.5447  1.1750
  178SLPC  C31520376   4.967   1.553   8.824 -0.3761  0.6163 -0.2730
  178SLPC  H15X20377   4.875   1.528   8.881 -1.0462 -1.1334 -2.0384
  178SLPC  H15Y20378   4.933   1.641   8.765 -1.9574 -0.2043 -0.6272
  178SLPC  C31620379   5.004   1.428   8.749  0.1256  0.4595  0.2215
  178SLPC  H16X20380   5.075   1.365   8.808 -0.6813 -0.1381  0.5641
  178SLPC  H16Y20381   5.072   1.466   8.670 -0.8207 -0.4824 -1.0498
  178SLPC  C31720382   4.893   1.355   8.685 -0.1635  0.3722 -0.4417
  178SLPC  H17X20383   4.820   1.423   8.635 -0.8306 -0.2907 -0.3795
  178SLPC  H17Y20384   4.855   1.287   8.764  2.8007 -0.4073  0.3683
  178SLPC  C31820385   4.951   1.254   8.582  0.6247  0.0170  0.4283
  178SLPC  H18X20386   5.025   1.197   8.642  1.7542  0.8128 -0.2001
  178SLPC  H18Y20387   4.999   1.304   8.496 -1.7249 -0.0240 -0.9545
  178SLPC  H18Z20388   4.871   1.186   8.545 -0.1974 -0.6003  3.2050
  179SLPC     N20389   6.059   4.296  10.696  0.2177 -0.3779 -0.2019
  179SLPC   C1320390   5.980   4.270  10.813  0.3534 -0.0984 -0.4324
  179SLPC  H13A20391   5.881   4.231  10.795  1.0463 -2.0624 -0.2156
  179SLPC  H13B20392   6.026   4.193  10.874 -2.2269 -1.8918 -0.6879
  179SLPC  H13C20393   5.967   4.356  10.876 -1.0085  0.7485 -1.8666
  179SLPC   C1420394   6.098   4.171  10.629  0.6103  0.2283 -0.7941
  179SLPC  H14A20395   6.008   4.118  10.598  0.4300 -0.1973  0.4542
  179SLPC  H14B20396   6.157   4.197  10.543  0.7469 -1.4761 -1.2370
  179SLPC  H14C20397   6.159   4.101  10.684 -0.1216 -0.3179 -0.6627
  179SLPC   C1520398   6.177   4.372  10.741 -0.1467  0.2051 -0.4187
  179SLPC  H15A20399   6.230   4.410  10.655  0.4496 -2.0580 -1.0873
  179SLPC  H15B20400   6.157   4.456  10.806 -0.3376 -0.1546 -0.0103
  179SLPC  H15C20401   6.248   4.309  10.793 -0.8036  0.3693  0.7046
  179SLPC   C1220402   5.980   4.388  10.604 -0.1859  0.5399 -0.1708
  179SLPC  H12A20403   5.940   4.470  10.662  0.0467  0.2697  0.3730
  179SLPC  H12B20404   5.901   4.324  10.568 -2.1383  2.9447 -0.2420
  179SLPC   C1120405   6.054   4.447  10.487 -0.1119 -0.5932  0.3978
  179SLPC  H11A20406   5.984   4.469  10.403  0.3168 -0.5059  0.0654
  179SLPC  H11B20407   6.123   4.383  10.428 -0.4557 -0.0116 -0.6506
  179SLPC     P20408   6.056   4.704  10.522 -0.0477 -0.3472  0.1131
  179SLPC   O1320409   5.918   4.697  10.584  0.1684  0.4519 -0.0577
  179SLPC   O1420410   6.153   4.806  10.573  0.0708  0.3529 -0.5086
  179SLPC   O1220411   6.129   4.561  10.524  0.1686 -0.7547 -0.8892
  179SLPC   O1120412   6.045   4.734  10.376 -0.4013  0.1690  0.4179
  179SLPC    C120413   6.159   4.785  10.302 -0.0934 -0.1066  0.1388
  179SLPC    HA20414   6.228   4.852  10.358  2.0572 -0.3784 -2.1030
  179SLPC    HB20415   6.206   4.695  10.257 -3.2901 -0.5109 -2.5807
  179SLPC    C220416   6.126   4.873  10.181 -0.1208 -0.1513  0.3813
  179SLPC    HS20417   6.088   4.974  10.208  1.9322  0.4457  1.0799
  179SLPC   O2120418   6.033   4.798  10.100  0.0964 -0.2208  0.3139
  179SLPC   C2120419   5.903   4.811  10.132  0.1395  0.3559 -0.3503
  179SLPC   O2220420   5.863   4.886  10.218  0.2974  0.3170  0.5797
  179SLPC   C2220421   5.814   4.713  10.057  0.1962  0.3637 -0.1274
  179SLPC   H2R20422   5.874   4.636  10.003 -1.5853  0.6403 -2.5938
  179SLPC   H2S20423   5.747   4.663  10.130  0.1649  1.2080  0.4199
  179SLPC    C320424   6.253   4.910  10.098  0.0995 -0.0104  0.2307
  179SLPC    HX20425   6.334   4.840  10.127  1.4299  1.4124 -0.0059
  179SLPC    HY20426   6.281   5.013  10.130  2.6230 -0.6489  0.1496
  179SLPC   O3120427   6.219   4.918   9.956  0.2783  0.0066  0.5319
  179SLPC   C3120428   6.148   5.019   9.905  0.0599  0.2074 -0.6800
  179SLPC   O3220429   6.096   5.110   9.963  0.3511 -0.6132 -0.9782
  179SLPC   C3220430   6.137   4.978   9.758  0.0824  0.1435  0.7451
  179SLPC   H2X20431   6.035   4.937   9.741 -0.5661  2.0023  0.0651
  179SLPC   H2Y20432   6.221   4.912   9.727 -0.3129  0.0567 -0.1654
  179SLPC   C2320433   5.696   4.769   9.977 -1.1038 -0.1177  0.9464
  179SLPC   H3R20434   5.644   4.842  10.042 -0.3026  1.6411 -0.3480
  179SLPC   H3S20435   5.634   4.688   9.931 -2.3801  1.0509  0.5708
  179SLPC   C2420436   5.757   4.854   9.856  0.1338  0.3553  0.2207
  179SLPC   H4R20437   5.852   4.809   9.820  0.7947  1.9972 -0.1281
  179SLPC   H4S20438   5.769   4.957   9.895  3.1859  0.3649 -0.6204
  179SLPC   C2520439   5.665   4.849   9.740 -0.1036 -1.0078 -0.3440
  179SLPC   H5R20440   5.561   4.871   9.773  0.4292  0.4293  0.3663
  179SLPC   H5S20441   5.651   4.748   9.694 -1.6421 -1.4968  1.1231
  179SLPC   C2620442   5.704   4.962   9.644 -0.2248 -0.0855  0.2936
  179SLPC   H6R20443   5.814   4.965   9.630 -0.2219  1.0766  0.4852
  179SLPC   H6S20444   5.666   5.055   9.692 -1.6295 -0.4674 -0.0589
  179SLPC   C2720445   5.622   4.961   9.517 -0.2100 -0.2777 -0.9599
  179SLPC   H7R20446   5.521   4.964   9.563  1.0542  0.2574  1.8720
  179SLPC   H7S20447   5.642   4.863   9.467  0.6097 -0.6644  0.1258
  179SLPC   C2820448   5.634   5.084   9.423 -0.4017  0.4136 -0.5286
  179SLPC   H8R20449   5.619   5.179   9.478 -0.1353 -0.0510  0.3663
  179SLPC   H8S20450   5.549   5.079   9.352 -0.3844  1.7751 -0.6430
  179SLPC   C2920451   5.768   5.081   9.349  0.1233  0.1694 -0.4399
  179SLPC   H9R20452   5.854   5.132   9.395  1.0805 -2.5372  0.9074
  179SLPC  C21020453   5.788   5.004   9.238  1.0401 -0.2289 -0.1253
  179SLPC  H10R20454   5.879   5.018   9.178  0.0768  4.0494 -0.7389
  179SLPC  C21120455   5.693   4.902   9.182 -0.5696  0.2215 -0.9936
  179SLPC  H11R20456   5.605   4.894   9.250  0.7007 -0.9991  0.5298
  179SLPC  H11S20457   5.734   4.800   9.196 -0.7808  0.2885  0.1861
  179SLPC  C21220458   5.651   4.927   9.042  0.2190  0.1905  0.0950
  179SLPC  H12R20459   5.610   5.027   9.023  2.6323  1.1849 -0.0368
  179SLPC  C21320460   5.654   4.840   8.936 -0.5579  0.2440  0.1252
  179SLPC  H13R20461   5.607   4.861   8.839  1.9714  0.9088 -0.9926
  179SLPC  C21420462   5.713   4.703   8.919  0.5213 -0.3576  0.1655
  179SLPC  H14R20463   5.632   4.630   8.898 -1.0056  1.3099  0.1072
  179SLPC  H14S20464   5.769   4.669   9.009 -3.0043 -4.1259  1.0600
  179SLPC  C21520465   5.797   4.718   8.790  0.2876  0.5641  0.1605
  179SLPC  H15R20466   5.893   4.765   8.823 -0.9621  2.3183  1.4115
  179SLPC  H15S20467   5.759   4.776   8.704  1.9394 -0.3086 -1.1917
  179SLPC  C21620468   5.832   4.580   8.730 -0.3986 -0.4977  0.1942
  179SLPC  H16R20469   5.746   4.549   8.667 -0.6936  1.1930 -0.2469
  179SLPC  H16S20470   5.861   4.498   8.799  2.7818 -0.1250 -0.6150
  179SLPC  C21720471   5.962   4.584   8.644  0.6931  0.3753  0.6627
  179SLPC  H17R20472   6.031   4.650   8.701  1.4014 -0.4068  0.7123
  179SLPC  H17S20473   5.933   4.630   8.547  1.4596 -0.3735  0.0733
  179SLPC  C21820474   6.040   4.454   8.623 -0.8372 -0.0305 -0.1022
  179SLPC  H18R20475   5.970   4.379   8.580 -1.6446  0.9379 -0.4970
  179SLPC  H18S20476   6.064   4.412   8.723 -1.3337 -1.1842 -0.4579
  179SLPC  H18T20477   6.126   4.469   8.555 -2.2322 -0.8085 -2.0937
  179SLPC   C3320478   6.151   5.103   9.675 -0.4819 -0.4028  0.7519
  179SLPC   H3X20479   6.240   5.159   9.711 -0.6277 -0.1414  0.7105
  179SLPC   H3Y20480   6.074   5.181   9.693 -1.8487 -0.8777 -2.5870
  179SLPC   C3420481   6.166   5.077   9.524 -0.6868 -0.2528  0.0149
  179SLPC   H4X20482   6.081   5.011   9.497 -1.9135  0.4500  2.0556
  179SLPC   H4Y20483   6.263   5.025   9.511  0.0615  0.8806  0.9009
  179SLPC   C3520484   6.155   5.204   9.440 -0.7812  0.6652  0.0089
  179SLPC   H5X20485   6.157   5.302   9.492  0.7282 -0.1444  1.5389
  179SLPC   H5Y20486   6.052   5.188   9.403 -0.9179 -2.1999  1.4463
  179SLPC   C3620487   6.243   5.199   9.315  0.0402  0.4711 -0.1818
  179SLPC   H6X20488   6.243   5.097   9.270 -1.9020  0.8604 -1.0934
  179SLPC   H6Y20489   6.345   5.230   9.348  0.7978  0.0059 -2.0080
  179SLPC   C3720490   6.202   5.290   9.195  0.5983 -0.2258 -0.2995
  179SLPC   H7X20491   6.220   5.395   9.226 -1.2156  0.3573 -1.1276
  179SLPC   H7Y20492   6.094   5.278   9.170  0.7099 -0.9665 -0.4393
  179SLPC   C3820493   6.291   5.254   9.073 -0.0322  0.1197  0.0441
  179SLPC   H8X20494   6.315   5.146   9.064  1.5231  0.5863 -1.7281
  179SLPC   H8Y20495   6.388   5.300   9.104 -0.5387  0.4215  1.2178
  179SLPC   C3920496   6.238   5.313   8.936 -0.1241  0.1568 -0.2342
  179SLPC   H9X20497   6.217   5.422   8.948  0.2658  0.1049  0.9860
  179SLPC   H9Y20498   6.137   5.269   8.919  0.6374 -0.2123 -4.4014
  179SLPC  C31020499   6.328   5.263   8.821 -0.1055  0.4208 -0.1089
  179SLPC  H10X20500   6.337   5.152   8.823  0.4106  0.4799  1.3019
  179SLPC  H10Y20501   6.432   5.298   8.835  1.3762 -2.5878 -2.8848
  179SLPC  C31120502   6.283   5.293   8.682 -0.3323 -0.2510 -0.0497
  179SLPC  H11X20503   6.180   5.255   8.666  0.2800 -2.4008  0.9733
  179SLPC  H11Y20504   6.348   5.239   8.610 -1.3855 -0.5539 -0.7799
  179SLPC  C31220505   6.303   5.441   8.651 -0.1134 -1.0290  0.5981
  179SLPC  H12X20506   6.413   5.451   8.660  0.0043 -1.2121 -0.6123
  179SLPC  H12Y20507   6.264   5.502   8.736 -1.2166  0.1809 -0.7367
  179SLPC  C31320508   6.274   5.490   8.507  0.0564 -0.4879  0.1972
  179SLPC  H13X20509   6.165   5.485   8.487  0.2467 -2.2838 -0.4891
  179SLPC  H13Y20510   6.322   5.419   8.437  0.5945  1.4110 -1.3980
  179SLPC  C31420511   6.335   5.633   8.495  0.2516 -0.0001 -1.0923
  179SLPC  H14X20512   6.318   5.666   8.390  1.8726  1.7816 -0.8145
  179SLPC  H14Y20513   6.444   5.627   8.513  0.5186  1.1471 -2.2777
  179SLPC  C31520514   6.284   5.724   8.601  0.9791 -0.7348 -0.2837
  179SLPC  H15X20515   6.324   5.687   8.698  0.3376  1.7334  0.9613
  179SLPC  H15Y20516   6.173   5.727   8.606  0.9572 -0.2597 -0.9697
  179SLPC  C31620517   6.329   5.864   8.576 -1.0740  0.1866 -0.2631
  179SLPC  H16X20518   6.440   5.861   8.567 -0.8996  2.6919  0.6703
  179SLPC  H16Y20519   6.307   5.932   8.661 -0.9414 -1.7382  1.3432
  179SLPC  C31720520   6.273   5.933   8.449 -0.0343  0.7004 -0.3139
  179SLPC  H17X20521   6.167   5.900   8.444  0.2400 -0.2459  0.1457
  179SLPC  H17Y20522   6.314   5.901   8.351  0.5790  1.5039 -0.3228
  179SLPC  C31820523   6.291   6.088   8.449  0.9159 -0.3739 -0.4738
  179SLPC  H18X20524   6.395   6.124   8.437 -0.0816  3.4846  1.6688
  179SLPC  H18Y20525   6.248   6.132   8.541  2.3266 -0.5362  0.2602
  179SLPC  H18Z20526   6.236   6.136   8.364  0.3937  0.9435  0.5915
  180SLPC     N20527   0.210   3.513  10.599  0.3477 -0.3231  0.2262
  180SLPC   C1320528   0.092   3.428  10.631 -0.1224  0.0069  0.5571
  180SLPC  H13A20529   0.000   3.475  10.601  0.1192 -0.0299 -0.2560
  180SLPC  H13B20530   0.090   3.329  10.588 -1.0559 -0.7044  2.1795
  180SLPC  H13C20531   0.091   3.415  10.738  4.6823 -1.4897  0.5239
  180SLPC   C1420532   0.207   3.640  10.683  0.4173 -0.6867 -0.6427
  180SLPC  H14A20533   0.128   3.707  10.654  0.4995 -0.8878 -1.3532
  180SLPC  H14B20534   0.216   3.621  10.789  3.5759  2.2325 -0.2979
  180SLPC  H14C20535   0.295   3.696  10.654  1.4859 -0.5644  2.6404
  180SLPC   C1520536   0.213   3.549  10.447 -0.2486 -0.2154 -0.2115
  180SLPC  H15A20537   0.238   3.456  10.397  1.6615 -0.9901  2.0894
  180SLPC  H15B20538   0.124   3.595  10.407 -0.5318 -1.6486 -1.2722
  180SLPC  H15C20539   0.288   3.621  10.417 -0.5423  0.9494  1.7958
  180SLPC   C1220540   0.341   3.432  10.635  0.1199  0.6105  0.0161
  180SLPC  H12A20541   0.432   3.482  10.606  0.9601 -1.2214 -0.5760
  180SLPC  H12B20542   0.340   3.338  10.581 -3.8232  0.9433 -0.6393
  180SLPC   C1120543   0.362   3.388  10.784  0.2152 -0.0124 -0.2335
  180SLPC  H11A20544   0.373   3.484  10.838 -2.0887  0.6968 -0.9917
  180SLPC  H11B20545   0.461   3.336  10.787 -0.4453 -1.3327 -0.5549
  180SLPC     P20546   0.241   3.151  10.813  0.4529  0.3773 -0.3708
  180SLPC   O1320547   0.378   3.095  10.801  0.0816 -0.3287  0.2797
  180SLPC   O1420548   0.164   3.084  10.919  0.0778  0.1832 -0.0165
  180SLPC   O1220549   0.259   3.305  10.846  0.1337 -0.0614 -0.3544
  180SLPC   O1120550   0.171   3.141  10.666  0.3210  0.6483 -0.0296
  180SLPC    C120551   0.131   3.013  10.609 -0.1988 -0.0032 -0.8868
  180SLPC    HA20552   0.164   2.920  10.660 -0.1480  0.6907  0.3824
  180SLPC    HB20553   0.020   3.024  10.605 -0.1305  1.2535  0.2176
  180SLPC    C220554   0.185   2.993  10.467 -0.8921 -0.0270  0.6409
  180SLPC    HS20555   0.296   3.004  10.471 -0.7803 -0.2985 -1.3494
  180SLPC   O2120556   0.119   3.087  10.384  0.0191  0.6347  0.0391
  180SLPC   C2120557   0.188   3.160  10.298 -0.4424 -0.4371 -0.1815
  180SLPC   O2220558   0.312   3.166  10.294 -0.1630 -0.2712  0.1171
  180SLPC   C2220559   0.087   3.237  10.209  0.1582  0.6108  0.9897
  180SLPC   H2R20560  -0.007   3.224  10.266 -0.0720  1.1275  0.7318
  180SLPC   H2S20561   0.104   3.347  10.219  0.8809  0.8012 -1.9255
  180SLPC    C320562   0.160   2.851  10.407  0.1976 -0.0907  1.0232
  180SLPC    HX20563   0.055   2.825  10.382  0.6808 -1.4973  0.4077
  180SLPC    HY20564   0.195   2.772  10.476 -0.7406 -0.6685  0.8490
  180SLPC   O3120565   0.230   2.838  10.278  0.0006 -0.3920  0.0430
  180SLPC   C3120566   0.359   2.817  10.284 -0.1596 -0.5050 -0.3509
  180SLPC   O3220567   0.433   2.826  10.382 -0.2551 -0.0688  0.5662
  180SLPC   C3220568   0.408   2.789  10.145  0.6341 -1.0338  0.3696
  180SLPC   H2X20569   0.347   2.716  10.087  1.2651  0.5638 -2.4246
  180SLPC   H2Y20570   0.499   2.728  10.160  0.9935 -0.7707 -0.6643
  180SLPC   C2320571   0.081   3.189  10.068  0.6769  0.1814  0.4189
  180SLPC   H3R20572  -0.006   3.233  10.015 -1.6428 -1.5058  2.6930
  180SLPC   H3S20573   0.085   3.079  10.052 -2.3580  0.0809  0.1050
  180SLPC   C2420574   0.201   3.254   9.987  0.1820 -0.8970 -0.4940
  180SLPC   H4R20575   0.291   3.209  10.035  0.1932  1.5335  1.8685
  180SLPC   H4S20576   0.197   3.362  10.010 -1.2366 -0.9282 -0.5751
  180SLPC   C2520577   0.203   3.247   9.834 -0.3207 -0.2479  0.0135
  180SLPC   H5R20578   0.138   3.325   9.788  1.9662  1.1485 -0.9645
  180SLPC   H5S20579   0.153   3.156   9.795  0.4546 -1.5165  1.9092
  180SLPC   C2620580   0.337   3.265   9.774  0.4939 -0.3766 -0.8152
  180SLPC   H6R20581   0.393   3.181   9.819  1.5613 -1.0154 -3.2252
  180SLPC   H6S20582   0.381   3.359   9.813  0.3285 -0.6319 -0.0068
  180SLPC   C2720583   0.349   3.255   9.616  0.5181  0.4317 -0.5561
  180SLPC   H7R20584   0.299   3.158   9.597  0.1443 -0.3853  4.0168
  180SLPC   H7S20585   0.451   3.230   9.579  0.7980  0.3172  0.2649
  180SLPC   C2820586   0.276   3.372   9.544 -0.8884  0.5453  0.8479
  180SLPC   H8R20587   0.169   3.379   9.574 -1.2856  0.6160 -0.5376
  180SLPC   H8S20588   0.272   3.351   9.435 -2.0581 -0.8838  1.1524
  180SLPC   C2920589   0.342   3.499   9.570 -1.2511 -0.1469  0.2850
  180SLPC   H9R20590   0.313   3.536   9.669 -1.4066  1.3124 -0.3002
  180SLPC  C21020591   0.430   3.570   9.493  0.2169 -0.2947 -0.1927
  180SLPC  H10R20592   0.461   3.671   9.523  2.0684 -0.7758 -0.4567
  180SLPC  C21120593   0.486   3.527   9.361 -0.0577  0.4916 -0.3249
  180SLPC  H11R20594   0.555   3.604   9.320  1.7490 -0.2280  1.2588
  180SLPC  H11S20595   0.401   3.529   9.290  0.8293 -1.3555 -1.4779
  180SLPC  C21220596   0.552   3.389   9.346  0.2461  0.0585 -0.3842
  180SLPC  H12R20597   0.632   3.374   9.420  1.1741  1.5894 -1.0555
  180SLPC  C21320598   0.518   3.300   9.247  1.3111  0.0900  0.6079
  180SLPC  H13R20599   0.578   3.209   9.233  2.8000  1.3280 -1.3067
  180SLPC  C21420600   0.397   3.309   9.152  0.1500 -0.3428 -0.0048
  180SLPC  H14R20601   0.377   3.414   9.123  1.5848  0.0420  0.3682
  180SLPC  H14S20602   0.305   3.273   9.203  0.8425  0.8907  2.1555
  180SLPC  C21520603   0.408   3.230   9.021 -0.1450  0.0537  0.0432
  180SLPC  H15R20604   0.339   3.274   8.947  0.6517  2.9163  0.9629
  180SLPC  H15S20605   0.378   3.124   9.042 -0.5708  0.0179 -0.7298
  180SLPC  C21620606   0.535   3.244   8.944  0.2935  0.5114 -0.7929
  180SLPC  H16R20607   0.623   3.224   9.008  0.3337  0.5493 -0.8373
  180SLPC  H16S20608   0.541   3.351   8.914  2.2175  0.9156  0.9296
  180SLPC  C21720609   0.542   3.148   8.825 -0.4464  0.3488  0.6977
  180SLPC  H17R20610   0.452   3.152   8.761  1.5430 -1.2349 -2.3200
  180SLPC  H17S20611   0.540   3.055   8.886  1.8345 -0.2659 -0.1258
  180SLPC  C21820612   0.661   3.151   8.737  0.3203 -0.2093 -0.3845
  180SLPC  H18R20613   0.657   3.236   8.665 -1.7486 -0.9691 -1.2076
  180SLPC  H18S20614   0.663   3.059   8.675 -2.7985 -0.9744  0.5423
  180SLPC  H18T20615   0.758   3.155   8.791 -0.6950 -0.6212  1.5220
  180SLPC   C3320616   0.432   2.911  10.054 -0.2977  0.1053 -0.0680
  180SLPC   H3X20617   0.534   2.952  10.072 -0.6249  0.0394  2.1437
  180SLPC   H3Y20618   0.363   2.994  10.082 -1.2085  0.9180 -4.4030
  180SLPC   C3420619   0.401   2.884   9.907 -0.6935  0.6099  0.8948
  180SLPC   H4X20620   0.385   2.981   9.855  2.8926  0.4306 -0.6903
  180SLPC   H4Y20621   0.310   2.822   9.893 -0.5103  0.9531 -2.2092
  180SLPC   C3520622   0.523   2.824   9.833 -0.5004 -0.2963  0.5908
  180SLPC   H5X20623   0.542   2.722   9.873  2.2069  0.4008  1.1400
  180SLPC   H5Y20624   0.611   2.885   9.863 -2.5542  2.0669  1.9980
  180SLPC   C3620625   0.514   2.823   9.676  0.0172 -0.5357  0.4306
  180SLPC   H6X20626   0.409   2.795   9.650 -0.9125  2.2102  1.0638
  180SLPC   H6Y20627   0.582   2.748   9.630 -2.0678 -1.0163 -1.9680
  180SLPC   C3720628   0.558   2.960   9.616 -0.3209  0.1090 -0.1213
  180SLPC   H7X20629   0.666   2.985   9.620 -0.3576  0.3567 -0.6326
  180SLPC   H7Y20630   0.513   3.041   9.677  1.2334  1.3604 -0.6141
  180SLPC   C3820631   0.523   2.959   9.471 -0.1373 -0.6743  0.2360
  180SLPC   H8X20632   0.542   3.061   9.432 -1.0691 -0.3586  0.5905
  180SLPC   H8Y20633   0.415   2.942   9.453 -0.2288  0.7357 -0.6434
  180SLPC   C3920634   0.606   2.858   9.385 -0.2317 -0.4402 -0.3304
  180SLPC   H9X20635   0.546   2.765   9.385 -0.5127 -0.2599  0.6134
  180SLPC   H9Y20636   0.706   2.839   9.431 -1.1227 -0.8272  1.4773
  180SLPC  C31020637   0.633   2.905   9.240 -0.7171  0.2281 -0.1978
  180SLPC  H10X20638   0.714   2.981   9.227 -1.4385  1.3288  1.5837
  180SLPC  H10Y20639   0.540   2.935   9.187 -0.3629 -3.1380 -2.8664
  180SLPC  C31120640   0.686   2.785   9.152  0.1309  0.2124  0.7717
  180SLPC  H11X20641   0.592   2.728   9.137  1.3586 -2.1850  1.9377
  180SLPC  H11Y20642   0.753   2.717   9.208  1.4603  1.3428  0.5863
  180SLPC  C31220643   0.732   2.827   9.017 -0.3485  0.2204 -0.1372
  180SLPC  H12X20644   0.842   2.840   9.019 -0.2497 -0.5171 -0.6283
  180SLPC  H12Y20645   0.684   2.922   8.987 -1.8304 -0.8389 -1.1842
  180SLPC  C31320646   0.695   2.724   8.901  0.2859  0.0583 -0.0133
  180SLPC  H13X20647   0.602   2.762   8.852  1.4454  0.9758 -1.5441
  180SLPC  H13Y20648   0.673   2.628   8.952  0.1802 -1.3594 -2.6488
  180SLPC  C31420649   0.811   2.694   8.798  0.4831 -1.0408  0.1557
  180SLPC  H14X20650   0.902   2.693   8.863  1.4620  1.0952 -1.1307
  180SLPC  H14Y20651   0.814   2.788   8.738  1.1091 -3.0286 -3.0300
  180SLPC  C31520652   0.808   2.571   8.710 -0.2824 -0.6776 -0.3899
  180SLPC  H15X20653   0.730   2.597   8.635  0.6797  0.7458 -0.9230
  180SLPC  H15Y20654   0.765   2.489   8.772 -0.1295  0.7406  1.6255
  180SLPC  C31620655   0.946   2.551   8.646  0.7689  0.1755  0.0313
  180SLPC  H16X20656   1.018   2.514   8.723  0.6444  0.4628  0.2890
  180SLPC  H16Y20657   1.002   2.641   8.614 -1.5545  1.9283  0.7574
  180SLPC  C31720658   0.923   2.461   8.527  0.3311  0.1921  0.2192
  180SLPC  H17X20659   1.020   2.459   8.473  0.0591 -1.4125 -0.2430
  180SLPC  H17Y20660   0.848   2.512   8.463  0.2742  0.9185  0.8634
  180SLPC  C31820661   0.888   2.319   8.566 -0.3282 -0.0579 -0.3987
  180SLPC  H18X20662   0.794   2.306   8.623  0.0409  0.3762  0.3271
  180SLPC  H18Y20663   0.973   2.277   8.625 -0.7304 -1.0222 -0.4909
  180SLPC  H18Z20664   0.869   2.256   8.476 -2.8054 -2.6318  1.8083
  181SLPC     N20665   4.209   6.018  10.971  0.2791  0.4798  0.1547
  181SLPC   C1320666   4.133   6.100  10.869 -0.0366 -0.1873  0.0330
  181SLPC  H13A20667   4.172   6.084  10.769  0.8495 -0.2486  0.3851
  181SLPC  H13B20668   4.027   6.078  10.869  0.0535 -0.7221 -1.7312
  181SLPC  H13C20669   4.152   6.202  10.897 -0.7972 -0.1973  0.5945
  181SLPC   C1420670   4.355   6.061  10.968 -0.0909 -0.0695  0.2721
  181SLPC  H14A20671   4.420   6.012  11.039  0.2572  0.8145  0.5689
  181SLPC  H14B20672   4.409   6.060  10.874 -0.4296  1.9921  0.0377
  181SLPC  H14C20673   4.358   6.162  11.007 -4.1248  1.0625 -1.9673
  181SLPC   C1520674   4.209   5.871  10.936 -0.2986 -0.3809  0.2846
  181SLPC  H15A20675   4.271   5.816  11.005 -0.4078 -0.2056  0.5254
  181SLPC  H15B20676   4.108   5.843  10.962  0.0159 -0.4018  1.4820
  181SLPC  H15C20677   4.237   5.841  10.836 -0.7965  0.2453 -0.0480
  181SLPC   C1220678   4.154   6.051  11.112  0.0026  0.1491  0.6511
  181SLPC  H12A20679   4.205   5.989  11.184 -1.5761 -2.0486 -0.0675
  181SLPC  H12B20680   4.050   6.021  11.115 -0.0043  0.2720  2.1125
  181SLPC   C1120681   4.160   6.194  11.166  0.4385  0.2495  1.1076
  181SLPC  H11A20682   4.264   6.234  11.169  1.1737 -1.5940  1.1264
  181SLPC  H11B20683   4.135   6.199  11.274 -2.3498  2.3286  0.4235
  181SLPC     P20684   3.921   6.265  11.109  0.0534 -0.1270  0.3487
  181SLPC   O1320685   3.872   6.170  11.002  0.2740 -0.6826 -0.4732
  181SLPC   O1420686   3.900   6.224  11.250 -0.9438  0.4028  0.1167
  181SLPC   O1220687   4.080   6.287  11.093 -0.1897 -0.7164 -0.4548
  181SLPC   O1120688   3.863   6.412  11.088 -0.3018 -0.3199  0.3477
  181SLPC    C120689   3.882   6.469  10.953 -0.5659 -0.0817  0.1491
  181SLPC    HA20690   3.992   6.471  10.935 -0.1072 -1.2375  2.5666
  181SLPC    HB20691   3.838   6.402  10.876 -1.6193 -0.3923  1.0187
  181SLPC    C220692   3.818   6.605  10.944  0.1637 -0.2299 -0.1226
  181SLPC    HS20693   3.871   6.674  11.014 -1.3260 -1.8392  2.7208
  181SLPC   O2120694   3.679   6.595  10.981  0.4927  0.1896 -0.6685
  181SLPC   C2120695   3.614   6.702  11.009  0.3748 -0.0500 -0.6263
  181SLPC   O2220696   3.662   6.816  11.023 -0.0966 -0.5813 -0.5548
  181SLPC   C2220697   3.460   6.684  11.011 -0.1440  0.2938 -0.5305
  181SLPC   H2R20698   3.442   6.589  11.065  3.8036 -0.1089  0.2214
  181SLPC   H2S20699   3.430   6.764  11.083 -0.3203  1.7664 -2.2228
  181SLPC    C320700   3.824   6.658  10.798 -0.4121 -0.0074 -1.2350
  181SLPC    HX20701   3.923   6.705  10.782 -0.9500  1.0412 -1.4964
  181SLPC    HY20702   3.761   6.749  10.798 -0.6092 -0.1384 -0.4182
  181SLPC   O3120703   3.774   6.574  10.692  0.1777  0.3537  1.0352
  181SLPC   C3120704   3.773   6.648  10.575  0.0079 -0.9326 -0.4410
  181SLPC   O3220705   3.787   6.770  10.564 -0.1410  0.9583  0.1727
  181SLPC   C3220706   3.751   6.547  10.458  0.1564  0.2146  0.3962
  181SLPC   H2X20707   3.653   6.499  10.479 -0.7980  1.6124 -0.7243
  181SLPC   H2Y20708   3.836   6.476  10.464  0.3847  0.4786  0.2750
  181SLPC   C2320709   3.396   6.688  10.872  0.1884  0.4622  0.0240
  181SLPC   H3R20710   3.420   6.782  10.818  2.6631 -0.5146 -0.6508
  181SLPC   H3S20711   3.285   6.688  10.882  0.3153  0.8561  1.4743
  181SLPC   C2420712   3.429   6.572  10.787 -0.4189 -0.2866  0.6175
  181SLPC   H4R20713   3.414   6.475  10.837  1.4228 -0.1776  1.4144
  181SLPC   H4S20714   3.540   6.584  10.780 -0.4935  0.1083  0.0325
  181SLPC   C2520715   3.371   6.576  10.640  0.2091  0.1525  0.6749
  181SLPC   H5R20716   3.261   6.566  10.644 -0.0448  2.4683  0.1170
  181SLPC   H5S20717   3.404   6.491  10.576 -0.5096  0.6932 -0.4221
  181SLPC   C2620718   3.412   6.697  10.553  0.0660  0.9741  0.0378
  181SLPC   H6R20719   3.519   6.720  10.575 -0.5996  1.5035  2.9438
  181SLPC   H6S20720   3.370   6.797  10.580  1.1166  1.5361 -0.3489
  181SLPC   C2720721   3.393   6.681  10.402 -0.4817 -0.0047 -0.2325
  181SLPC   H7R20722   3.467   6.613  10.354 -1.7580 -1.7146  0.1963
  181SLPC   H7S20723   3.401   6.782  10.357  2.3464  0.5267  1.3047
  181SLPC   C2820724   3.263   6.608  10.355 -0.3353 -0.0207  0.3632
  181SLPC   H8R20725   3.190   6.647  10.429  2.9728  0.4178  3.5014
  181SLPC   H8S20726   3.269   6.500  10.381  1.5704  0.0711  0.3743
  181SLPC   C2920727   3.238   6.651  10.213 -0.2023 -0.8021  0.4017
  181SLPC   H9R20728   3.206   6.754  10.191 -2.7820 -1.5234  0.5394
  181SLPC  C21020729   3.265   6.566  10.109  0.8109  0.3415 -0.0150
  181SLPC  H10R20730   3.262   6.600  10.005 -0.2477 -0.2453 -0.1810
  181SLPC  C21120731   3.305   6.421  10.098 -0.1739  0.6922 -0.8844
  181SLPC  H11R20732   3.320   6.376  10.199 -2.6746  2.2695  0.2376
  181SLPC  H11S20733   3.413   6.419  10.069  0.2164  0.0600  0.5142
  181SLPC  C21220734   3.221   6.339  10.007 -0.2432  0.0403 -0.0505
  181SLPC  H12R20735   3.136   6.294  10.059  0.1593 -0.4138  0.2193
  181SLPC  C21320736   3.231   6.326   9.870  0.4039 -1.0090 -0.1908
  181SLPC  H13R20737   3.149   6.277   9.816  1.5868  0.0554 -3.0709
  181SLPC  C21420738   3.328   6.398   9.776  0.2374 -1.0386 -0.2111
  181SLPC  H14R20739   3.388   6.334   9.707  2.4570  1.8690 -1.1133
  181SLPC  H14S20740   3.409   6.451   9.831  0.2505 -0.1885 -1.0316
  181SLPC  C21520741   3.245   6.482   9.675  0.3728  0.3604 -0.8505
  181SLPC  H15R20742   3.194   6.562   9.732  0.6469 -1.2031  1.6499
  181SLPC  H15S20743   3.167   6.417   9.631 -1.1446 -1.2513  3.9444
  181SLPC  C21620744   3.337   6.558   9.567  0.5249  0.4544 -0.2449
  181SLPC  H16R20745   3.401   6.489   9.508 -1.4903 -2.3665  0.7659
  181SLPC  H16S20746   3.406   6.627   9.620 -1.0758  3.1803 -1.6249
  181SLPC  C21720747   3.267   6.640   9.459 -0.2919 -0.2607 -0.0257
  181SLPC  H17R20748   3.215   6.722   9.514 -2.0569 -1.0233 -0.5118
  181SLPC  H17S20749   3.185   6.577   9.418  0.1116 -2.2073  2.0361
  181SLPC  C21820750   3.363   6.715   9.362 -0.2936 -0.0850 -0.0372
  181SLPC  H18R20751   3.428   6.650   9.299  2.1258  1.9618  0.2476
  181SLPC  H18S20752   3.414   6.786   9.432 -0.7282 -2.2715  2.5779
  181SLPC  H18T20753   3.310   6.781   9.290  1.2201  3.9271  2.3488
  181SLPC   C3320754   3.752   6.612  10.312 -0.8364 -0.7320  0.2084
  181SLPC   H3X20755   3.846   6.669  10.301 -0.5564 -1.1022  0.6561
  181SLPC   H3Y20756   3.662   6.676  10.301 -0.3947 -0.2776 -0.7944
  181SLPC   C3420757   3.745   6.508  10.202  0.5154  0.0336  0.1466
  181SLPC   H4X20758   3.653   6.448  10.217 -0.4080  1.6107  0.9655
  181SLPC   H4Y20759   3.835   6.443  10.197 -0.7896 -2.0112  2.3318
  181SLPC   C3520760   3.745   6.572  10.061  0.8976  0.6705 -0.4523
  181SLPC   H5X20761   3.842   6.626  10.047  1.7124 -0.0336  2.1692
  181SLPC   H5Y20762   3.660   6.643  10.062  1.9804  1.9993 -0.3894
  181SLPC   C3620763   3.734   6.469   9.944  0.4782 -0.1734 -0.4184
  181SLPC   H6X20764   3.626   6.445   9.936  0.5966 -0.9452  0.1865
  181SLPC   H6Y20765   3.792   6.377   9.969  3.6177  1.7133 -0.5458
  181SLPC   C3720766   3.764   6.528   9.807 -0.0956 -0.2395 -0.1483
  181SLPC   H7X20767   3.867   6.568   9.818 -1.0424  2.1433  0.3392
  181SLPC   H7Y20768   3.696   6.611   9.779 -0.3124 -0.9505 -1.8477
  181SLPC   C3820769   3.756   6.423   9.694 -0.2550 -0.1484  0.2150
  181SLPC   H8X20770   3.668   6.355   9.705 -1.6376  1.2967 -1.7387
  181SLPC   H8Y20771   3.843   6.354   9.688 -0.3580 -0.3796  1.2004
  181SLPC   C3920772   3.736   6.477   9.547 -0.2501 -0.6811  0.7334
  181SLPC   H9X20773   3.829   6.524   9.508 -0.9903 -0.5950 -0.9855
  181SLPC   H9Y20774   3.658   6.556   9.556 -0.3091 -0.6372 -0.0994
  181SLPC  C31020775   3.694   6.375   9.444 -0.5166  0.2360 -0.5738
  181SLPC  H10X20776   3.609   6.307   9.467  0.4752 -0.1364  2.1560
  181SLPC  H10Y20777   3.786   6.318   9.421  0.5544  2.1663 -1.2067
  181SLPC  C31120778   3.651   6.437   9.308  0.0285  0.8244 -0.4229
  181SLPC  H11X20779   3.726   6.518   9.295  0.9286 -0.4214 -3.5885
  181SLPC  H11Y20780   3.549   6.480   9.311  0.8628  2.9991 -1.7110
  181SLPC  C31220781   3.658   6.343   9.193 -0.6291 -0.7844  0.4267
  181SLPC  H12X20782   3.585   6.263   9.221 -1.8065 -0.2893 -1.2107
  181SLPC  H12Y20783   3.756   6.292   9.183  0.2814  0.7565  1.3367
  181SLPC  C31320784   3.620   6.412   9.063 -0.9361 -0.7323  0.0240
  181SLPC  H13X20785   3.676   6.506   9.042  1.7599 -2.2470  0.1412
  181SLPC  H13Y20786   3.518   6.452   9.078 -1.6370 -2.0077 -1.1707
  181SLPC  C31420787   3.607   6.315   8.941  0.0528 -0.0455 -0.7037
  181SLPC  H14X20788   3.538   6.359   8.866 -2.2084  0.5358  1.6609
  181SLPC  H14Y20789   3.562   6.216   8.958 -0.3944  0.0318 -1.4238
  181SLPC  C31520790   3.744   6.287   8.869 -0.0507  0.2609  0.1782
  181SLPC  H15X20791   3.808   6.243   8.949  1.3997  3.0942  0.6355
  181SLPC  H15Y20792   3.799   6.380   8.846  2.8967 -1.8346 -1.7217
  181SLPC  C31620793   3.746   6.188   8.751  0.5299  0.1711 -0.3588
  181SLPC  H16X20794   3.847   6.185   8.703  1.3202 -0.1923  1.2844
  181SLPC  H16Y20795   3.685   6.215   8.662  0.1430  1.9148  0.4211
  181SLPC  C31720796   3.719   6.047   8.791  0.3166  0.0549 -0.1700
  181SLPC  H17X20797   3.618   6.032   8.835  0.6886 -1.6739  0.1425
  181SLPC  H17Y20798   3.789   6.027   8.875  0.1811 -0.8524 -0.2591
  181SLPC  C31820799   3.733   5.934   8.684  0.1651  0.9462 -0.2816
  181SLPC  H18X20800   3.840   5.933   8.653 -0.1162  1.5843 -1.2759
  181SLPC  H18Y20801   3.680   5.967   8.593 -1.4206 -1.1309 -0.1359
  181SLPC  H18Z20802   3.689   5.838   8.718 -0.8388  1.0322 -1.3168
  182SLPC     N20803   0.802   0.478  11.097  0.0350  0.1857  0.1959
  182SLPC   C1320804   0.676   0.564  11.099 -0.7351  0.9343  0.1340
  182SLPC  H13A20805   0.593   0.502  11.070  0.1094 -0.3587  0.4327
  182SLPC  H13B20806   0.655   0.608  11.195 -0.7689  2.4330 -0.5449
  182SLPC  H13C20807   0.683   0.638  11.021  0.1292 -0.4505 -1.1348
  182SLPC   C1420808   0.803   0.400  10.969 -0.1521  0.1298  0.1880
  182SLPC  H14A20809   0.802   0.469  10.886  0.0692 -0.1768 -0.0681
  182SLPC  H14B20810   0.885   0.330  10.974  0.1952  0.2251 -3.4471
  182SLPC  H14C20811   0.717   0.337  10.951  0.4418 -1.0329  1.3229
  182SLPC   C1520812   0.780   0.379  11.203 -0.5576  0.5458  0.4448
  182SLPC  H15A20813   0.857   0.304  11.199 -2.3073 -1.3438  0.8884
  182SLPC  H15B20814   0.794   0.426  11.299  0.7472  1.1406 -0.0339
  182SLPC  H15C20815   0.684   0.329  11.195  1.1085 -2.5280 -1.4100
  182SLPC   C1220816   0.931   0.556  11.124 -0.3590 -0.4131 -0.1877
  182SLPC  H12A20817   0.928   0.597  11.224  2.4420  1.3001 -0.7584
  182SLPC  H12B20818   0.930   0.630  11.046 -0.3741 -1.4285 -1.1753
  182SLPC   C1120819   1.057   0.467  11.111 -0.8896  0.7826 -0.0964
  182SLPC  H11A20820   1.045   0.379  11.178  0.6723 -0.8689 -1.9172
  182SLPC  H11B20821   1.145   0.527  11.141 -0.9839  2.3716 -2.8733
  182SLPC     P20822   1.219   0.415  10.917  0.1238  0.0934  0.2299
  182SLPC   O1320823   1.314   0.359  11.018 -0.8610  0.1749  0.4180
  182SLPC   O1420824   1.220   0.366  10.782 -0.3291 -0.4477  0.8956
  182SLPC   O1220825   1.076   0.414  10.978  0.1489  0.1569  0.4182
  182SLPC   O1120826   1.254   0.570  10.910 -0.1549 -0.1272 -0.1842
  182SLPC    C120827   1.164   0.660  10.850  0.5741  0.2865 -0.7571
  182SLPC    HA20828   1.068   0.613  10.821  0.5777 -0.5245  0.5343
  182SLPC    HB20829   1.148   0.738  10.928  0.1822 -1.9739  1.5059
  182SLPC    C220830   1.218   0.728  10.720 -0.2176 -0.7944 -0.0309
  182SLPC    HS20831   1.132   0.788  10.683 -0.0625  0.8264  2.1031
  182SLPC   O2120832   1.269   0.637  10.630 -0.3315 -0.2118  0.1231
  182SLPC   C2120833   1.175   0.560  10.571  0.3488 -0.1504 -0.2372
  182SLPC   O2220834   1.059   0.564  10.589  0.3775  0.5293 -0.1979
  182SLPC   C2220835   1.243   0.475  10.464  0.5989  0.2101 -0.4405
  182SLPC   H2R20836   1.353   0.487  10.468  0.5091  0.8352  0.1560
  182SLPC   H2S20837   1.204   0.371  10.472 -2.0314  1.2715  1.0272
  182SLPC    C320838   1.330   0.833  10.760  0.6720  0.2610  1.0575
  182SLPC    HX20839   1.409   0.772  10.811 -0.9258 -0.2170  3.0203
  182SLPC    HY20840   1.278   0.899  10.832 -3.1771 -2.2973  0.7543
  182SLPC   O3120841   1.393   0.898  10.644 -0.2253  0.1261  0.0690
  182SLPC   C3120842   1.324   1.002  10.602  0.4471  1.0645 -0.2241
  182SLPC   O3220843   1.220   1.039  10.662 -0.1293  0.1316 -0.0950
  182SLPC   C3220844   1.389   1.062  10.473 -0.7538 -0.2207 -0.0208
  182SLPC   H2X20845   1.499   1.070  10.492 -1.1554  3.0942  1.2042
  182SLPC   H2Y20846   1.344   1.163  10.466 -0.7877 -0.0797  2.1590
  182SLPC   C2320847   1.203   0.518  10.316 -0.1346 -0.2389 -0.2731
  182SLPC   H3R20848   1.166   0.622  10.308  1.1578  0.2800  0.2264
  182SLPC   H3S20849   1.116   0.451  10.297  0.7901 -1.1384 -1.4880
  182SLPC   C2420850   1.300   0.484  10.207  0.0453  0.3053 -0.0837
  182SLPC   H4R20851   1.332   0.378  10.216 -0.4314  0.1998  0.3904
  182SLPC   H4S20852   1.387   0.552  10.216 -1.9967  3.1283 -1.0819
  182SLPC   C2520853   1.246   0.482  10.064  0.4755  0.1160  0.6910
  182SLPC   H5R20854   1.211   0.585  10.040 -1.8372 -0.5946  0.8821
  182SLPC   H5S20855   1.153   0.421  10.064  0.0734  0.7002 -0.6950
  182SLPC   C2620856   1.327   0.413   9.951 -0.4293  0.1914  0.5809
  182SLPC   H6R20857   1.266   0.401   9.859 -2.4459  0.3723  1.8870
  182SLPC   H6S20858   1.342   0.309   9.986 -2.2635 -0.9250 -1.8595
  182SLPC   C2720859   1.450   0.494   9.907  1.1574 -0.7585 -0.8775
  182SLPC   H7R20860   1.531   0.487   9.982  0.9643  0.6852 -0.5153
  182SLPC   H7S20861   1.422   0.602   9.908  1.6203 -0.6451  1.0095
  182SLPC   C2820862   1.513   0.461   9.772  0.4225  1.0686  0.6802
  182SLPC   H8R20863   1.421   0.449   9.710  0.8848  0.7620  0.0413
  182SLPC   H8S20864   1.559   0.360   9.781 -0.3200  0.7013  0.4015
  182SLPC   C2920865   1.606   0.571   9.715  0.4409 -0.7362  0.1773
  182SLPC   H9R20866   1.637   0.645   9.789  3.8658 -1.2806 -0.6557
  182SLPC  C21020867   1.653   0.588   9.591 -0.2784  0.1725 -0.1578
  182SLPC  H10R20868   1.727   0.668   9.575  0.9835 -0.9551 -0.0052
  182SLPC  C21120869   1.621   0.500   9.474 -0.0279  0.4612 -0.1913
  182SLPC  H11R20870   1.575   0.403   9.505 -0.4996  1.1243  1.2266
  182SLPC  H11S20871   1.715   0.459   9.431  1.7137  0.3201  3.5454
  182SLPC  C21220872   1.528   0.565   9.366 -0.1485 -1.1000  1.0456
  182SLPC  H12R20873   1.421   0.561   9.393 -1.3296  0.4054 -3.0698
  182SLPC  C21320874   1.566   0.610   9.246 -0.4813 -0.4160 -0.1185
  182SLPC  H13R20875   1.491   0.658   9.180 -0.5179 -1.1873 -0.6515
  182SLPC  C21420876   1.715   0.619   9.208 -1.1506  0.8610  0.4642
  182SLPC  H14R20877   1.772   0.650   9.297  1.6141 -1.2361 -0.5060
  182SLPC  H14S20878   1.719   0.697   9.129  0.3539  0.1930 -0.1404
  182SLPC  C21520879   1.754   0.481   9.141  0.5467 -0.4310  0.2999
  182SLPC  H15R20880   1.689   0.484   9.051 -0.7025  1.4090  1.2288
  182SLPC  H15S20881   1.735   0.396   9.211 -0.4544  0.9123  1.6927
  182SLPC  C21620882   1.898   0.484   9.093  0.1299  0.6012  0.2265
  182SLPC  H16R20883   1.966   0.462   9.178  1.5449  1.3794 -0.7030
  182SLPC  H16S20884   1.931   0.581   9.051  0.1700  0.9214  0.9846
  182SLPC  C21720885   1.933   0.378   8.992 -0.4015  0.5402 -0.0374
  182SLPC  H17R20886   2.024   0.415   8.940 -0.0577 -2.8247 -2.0314
  182SLPC  H17S20887   1.845   0.382   8.924 -0.8098  2.7913  0.6095
  182SLPC  C21820888   1.968   0.239   9.045 -0.2233  0.6230 -0.2589
  182SLPC  H18R20889   1.898   0.220   9.129 -0.6021  0.0964 -0.6908
  182SLPC  H18S20890   2.064   0.219   9.097 -0.8471 -1.7211  0.0174
  182SLPC  H18T20891   1.942   0.163   8.969 -1.7898  0.5890  0.2909
  182SLPC   C3320892   1.353   0.963  10.354  0.4145  0.0997  0.7897
  182SLPC   H3X20893   1.246   0.932  10.360  0.9936 -2.1400 -0.1191
  182SLPC   H3Y20894   1.412   0.870  10.367 -1.9951 -1.7219 -0.8613
  182SLPC   C3420895   1.379   1.023  10.218 -0.1410  0.6396  0.1478
  182SLPC   H4X20896   1.485   1.056  10.220 -0.2404  0.9718  3.6747
  182SLPC   H4Y20897   1.317   1.115  10.208  0.2421  0.7343 -1.6080
  182SLPC   C3520898   1.339   0.923  10.107 -0.2407  0.5395 -0.5168
  182SLPC   H5X20899   1.242   0.870  10.125  0.7956 -1.6351 -1.1983
  182SLPC   H5Y20900   1.412   0.840  10.100 -1.1784 -0.0289 -5.1209
  182SLPC   C3620901   1.336   0.988   9.971  0.9025  0.1220  0.3294
  182SLPC   H6X20902   1.426   1.054   9.967 -0.7431  2.3944 -0.5743
  182SLPC   H6Y20903   1.258   1.066   9.958  1.0572  0.5326  1.7597
  182SLPC   C3720904   1.319   0.887   9.857 -0.3345  0.0348 -0.4316
  182SLPC   H7X20905   1.220   0.837   9.866  0.8546 -1.9116  2.3544
  182SLPC   H7Y20906   1.410   0.824   9.864 -0.7263 -0.4990 -0.0805
  182SLPC   C3820907   1.332   0.958   9.723 -0.0116 -0.5664 -0.5576
  182SLPC   H8X20908   1.431   1.010   9.720  0.9958 -2.2589  1.9295
  182SLPC   H8Y20909   1.259   1.037   9.697  0.0004 -1.0024 -1.9876
  182SLPC   C3920910   1.308   0.861   9.604  0.5804 -0.5942  0.4045
  182SLPC   H9X20911   1.205   0.822   9.609  0.2517  0.0890 -0.8875
  182SLPC   H9Y20912   1.378   0.777   9.622  2.2230  0.6699  0.1048
  182SLPC  C31020913   1.339   0.922   9.467  0.3895 -0.3479 -0.1463
  182SLPC  H10X20914   1.280   1.015   9.450  2.7806  1.1478 -0.5867
  182SLPC  H10Y20915   1.311   0.848   9.389 -1.3553  2.0146 -1.8422
  182SLPC  C31120916   1.484   0.956   9.424  0.1342 -0.1822 -0.3307
  182SLPC  H11X20917   1.548   0.869   9.451  1.9046  1.0636 -0.4162
  182SLPC  H11Y20918   1.519   1.041   9.486  0.7777 -1.2429  0.7864
  182SLPC  C31220919   1.489   0.978   9.273 -0.4460 -1.1790  0.7992
  182SLPC  H12X20920   1.402   1.048   9.264  0.6395  0.0212 -0.6067
  182SLPC  H12Y20921   1.484   0.889   9.208  1.9295 -0.0641 -0.9743
  182SLPC  C31320922   1.605   1.062   9.226 -0.5707 -0.3726  0.0900
  182SLPC  H13X20923   1.615   1.147   9.296 -1.5955 -0.2767  0.1342
  182SLPC  H13Y20924   1.588   1.107   9.126 -0.8126  3.8605  1.9182
  182SLPC  C31420925   1.724   0.967   9.220 -0.2579 -1.1149 -0.0511
  182SLPC  H14X20926   1.686   0.880   9.162 -0.6617 -0.7247 -0.3803
  182SLPC  H14Y20927   1.755   0.940   9.323  0.7620  0.8656  0.1855
  182SLPC  C31520928   1.851   1.029   9.154 -0.0265  0.2482 -0.3032
  182SLPC  H15X20929   1.932   0.961   9.190  0.5668  0.9364 -0.3167
  182SLPC  H15Y20930   1.874   1.132   9.188  0.1914 -0.0992  0.5940
  182SLPC  C31620931   1.834   1.029   9.005 -0.1004  0.1232 -0.1770
  182SLPC  H16X20932   1.792   1.124   8.966  0.7848  0.5189 -0.1793
  182SLPC  H16Y20933   1.768   0.942   8.981  1.5148 -0.3222 -3.1989
  182SLPC  C31720934   1.965   0.996   8.924 -0.6845  0.0822  0.3464
  182SLPC  H17X20935   2.050   1.055   8.963 -0.8197 -0.4041  1.3873
  182SLPC  H17Y20936   1.945   1.021   8.817 -2.2750  0.8531  0.8122
  182SLPC  C31820937   2.001   0.848   8.936  0.0413  0.0846 -0.8530
  182SLPC  H18X20938   2.107   0.830   8.908  0.7535  3.3419 -0.4421
  182SLPC  H18Y20939   1.937   0.779   8.878 -1.6939  1.2251 -0.3593
  182SLPC  H18Z20940   1.989   0.818   9.042 -3.0554  1.9901 -0.5812
  183SLPC     N20941   2.910   1.414  11.037 -0.4690 -1.0604 -0.1451
  183SLPC   C1320942   2.834   1.326  11.128 -1.0413 -0.6988 -0.2602
  183SLPC  H13A20943   2.849   1.341  11.234 -0.3442  0.2631 -0.4880
  183SLPC  H13B20944   2.730   1.354  11.115 -1.0799 -0.6508  0.1507
  183SLPC  H13C20945   2.840   1.221  11.103  1.4609  0.2084 -3.8693
  183SLPC   C1420946   2.933   1.551  11.105 -0.1898  0.5616  0.2716
  183SLPC  H14A20947   3.002   1.612  11.047  2.3319  0.1734  2.7506
  183SLPC  H14B20948   2.844   1.612  11.108 -0.0472  0.8373 -0.8023
  183SLPC  H14C20949   2.973   1.546  11.205  2.0801 -1.0654 -0.6585
  183SLPC   C1520950   2.842   1.427  10.907  0.0926  0.4016  0.8244
  183SLPC  H15A20951   2.827   1.336  10.850  1.0058  0.8875 -0.2234
  183SLPC  H15B20952   2.746   1.476  10.919 -2.0325 -2.8768 -1.8712
  183SLPC  H15C20953   2.903   1.484  10.837 -0.3897  0.9648  0.8525
  183SLPC   C1220954   3.045   1.343  11.018  0.9240  0.2031 -0.5012
  183SLPC  H12A20955   3.033   1.254  10.958  0.3698  0.6969 -1.1387
  183SLPC  H12B20956   3.079   1.311  11.115  0.1604 -0.1282 -0.3357
  183SLPC   C1120957   3.164   1.422  10.954 -0.3894 -0.7042 -0.6418
  183SLPC  H11A20958   3.257   1.364  10.941  0.2745 -0.0219  0.9840
  183SLPC  H11B20959   3.186   1.513  11.014  0.4864 -0.7936 -0.8309
  183SLPC     P20960   3.166   1.594  10.767 -0.3302  0.2814  0.2036
  183SLPC   O1320961   3.116   1.698  10.861  0.0979  0.2928  0.2431
  183SLPC   O1420962   3.314   1.587  10.747  0.3311  0.1777 -0.4005
  183SLPC   O1220963   3.136   1.447  10.816  0.1642 -0.0620 -0.0775
  183SLPC   O1120964   3.089   1.600  10.627 -0.8850 -0.1657 -1.4328
  183SLPC    C120965   3.034   1.485  10.559  0.7098 -0.4668  0.4812
  183SLPC    HA20966   3.050   1.391  10.616  1.2648 -1.0329 -0.5826
  183SLPC    HB20967   2.924   1.495  10.550  0.6173 -1.5359  0.3548
  183SLPC    C220968   3.103   1.459  10.421  0.1041 -1.1834 -0.6712
  183SLPC    HS20969   3.046   1.378  10.370 -1.4541  0.4955 -1.6578
  183SLPC   O2120970   3.244   1.433  10.440  0.3126  0.5912 -0.1339
  183SLPC   C2120971   3.277   1.313  10.488  0.3960  0.4391  0.8710
  183SLPC   O2220972   3.203   1.221  10.511  0.1298  0.6582  0.1378
  183SLPC   C2220973   3.426   1.306  10.527  0.8465  0.6497  0.0619
  183SLPC   H2R20974   3.448   1.383  10.603  1.5391  1.1689 -0.6525
  183SLPC   H2S20975   3.435   1.202  10.564 -1.4375  0.5302  0.4013
  183SLPC    C320976   3.088   1.586  10.330 -0.0626  0.3708 -0.1342
  183SLPC    HX20977   3.120   1.681  10.378 -1.5542  0.1643  1.3053
  183SLPC    HY20978   2.978   1.597  10.327 -0.4810 -1.9883  3.4802
  183SLPC   O3120979   3.139   1.559  10.197  0.1924  0.2622  0.2575
  183SLPC   C3120980   3.272   1.570  10.178  0.3980  0.9606  1.0167
  183SLPC   O3220981   3.350   1.611  10.257 -0.5955  0.0174 -0.5558
  183SLPC   C3220982   3.301   1.509  10.042 -0.0189  0.7629 -0.0878
  183SLPC   H2X20983   3.230   1.558   9.973 -2.5786 -0.4856  1.5695
  183SLPC   H2Y20984   3.278   1.401  10.056  0.1184  0.5114 -1.6748
  183SLPC   C2320985   3.522   1.328  10.403  0.4161 -0.2355  0.0812
  183SLPC   H3R20986   3.622   1.298  10.440  0.8641  0.8444 -0.2293
  183SLPC   H3S20987   3.532   1.436  10.378 -0.6827  0.2599  1.6580
  183SLPC   C2420988   3.488   1.252  10.274 -0.0806  0.2812 -0.1965
  183SLPC   H4R20989   3.568   1.275  10.200 -0.3408 -0.3489 -0.6804
  183SLPC   H4S20990   3.397   1.305  10.237 -0.6309 -0.1373  0.5673
  183SLPC   C2520991   3.473   1.099  10.274 -0.1544  0.1375  0.3480
  183SLPC   H5R20992   3.379   1.057  10.315 -0.6810 -0.3455 -1.3418
  183SLPC   H5S20993   3.556   1.057  10.336  1.8273 -0.9198 -2.8834
  183SLPC   C2620994   3.497   1.038  10.132 -0.2699 -0.3786 -0.2392
  183SLPC   H6R20995   3.560   0.947  10.146 -1.6392 -0.9922  2.1377
  183SLPC   H6S20996   3.552   1.104  10.061  3.1489 -3.0123 -0.1641
  183SLPC   C2720997   3.363   0.989  10.067  0.8745 -0.0774 -0.5660
  183SLPC   H7R20998   3.317   0.927  10.147  0.4211  0.8615 -0.0948
  183SLPC   H7S20999   3.384   0.933   9.973  3.9163  1.2342 -0.7255
  183SLPC   C2821000   3.266   1.108  10.047  0.1362  0.3142  0.2186
  183SLPC   H8R21001   3.317   1.190   9.991  2.0863 -0.5401  0.7104
  183SLPC   H8S21002   3.242   1.158  10.143 -2.7177 -0.2952 -0.1516
  183SLPC   C2921003   3.140   1.069   9.980 -0.6966 -0.1145  0.0088
  183SLPC   H9R21004   3.051   1.067  10.045 -0.8749 -0.8005 -0.2490
  183SLPC  C21021005   3.116   1.057   9.848 -0.8537  0.1923  0.7023
  183SLPC  H10R21006   3.014   1.026   9.821 -0.7266  2.1617 -2.3384
  183SLPC  C21121007   3.214   1.068   9.726 -0.1420 -0.0905 -0.2580
  183SLPC  H11R21008   3.316   1.070   9.771 -0.6093  0.7073  0.7892
  183SLPC  H11S21009   3.202   1.173   9.692  0.0684  0.5405  1.5685
  183SLPC  C21221010   3.202   0.964   9.619  0.1362 -0.5523  0.8488
  183SLPC  H12R21011   3.233   0.861   9.642 -1.7966 -1.3639 -0.0592
  183SLPC  C21321012   3.156   0.975   9.490  0.0517  0.2451  0.2723
  183SLPC  H13R21013   3.148   0.881   9.432  1.0032 -0.9050  1.9563
  183SLPC  C21421014   3.108   1.108   9.425  0.1182 -0.0055  0.5804
  183SLPC  H14R21015   3.162   1.196   9.465  0.0425  1.0485 -1.5458
  183SLPC  H14S21016   3.004   1.133   9.454 -0.9947 -2.6147 -0.9931
  183SLPC  C21521017   3.132   1.123   9.268 -0.2502  0.2711 -0.4844
  183SLPC  H15R21018   3.232   1.079   9.245 -0.9550 -1.6853  0.1274
  183SLPC  H15S21019   3.138   1.233   9.251  0.3921  0.7083  2.2642
  183SLPC  C21621020   3.028   1.066   9.173  0.5193 -1.2178  0.1182
  183SLPC  H16R21021   2.930   1.112   9.198  0.0515 -2.1428 -0.0065
  183SLPC  H16S21022   3.025   0.956   9.185 -1.8074 -1.3748 -1.5714
  183SLPC  C21721023   3.054   1.102   9.028 -0.4053 -0.2110  0.4383
  183SLPC  H17R21024   3.137   1.034   8.997  0.4750  0.5487  1.1015
  183SLPC  H17S21025   3.071   1.211   9.021 -1.3800 -0.1609 -1.4185
  183SLPC  C21821026   2.939   1.068   8.939 -0.0222 -0.2184 -0.0946
  183SLPC  H18R21027   2.970   1.098   8.836  0.9021  0.4775  0.3745
  183SLPC  H18S21028   2.853   1.132   8.966  0.4427  1.1217 -1.6982
  183SLPC  H18T21029   2.914   0.960   8.941  1.1045 -0.4860  0.2449
  183SLPC   C3321030   3.446   1.520   9.982 -0.0388  0.1293  0.4240
  183SLPC   H3X21031   3.519   1.455  10.035  0.7107 -0.4805 -1.3449
  183SLPC   H3Y21032   3.482   1.625   9.981 -1.6296  0.7000 -1.8524
  183SLPC   C3421033   3.451   1.493   9.829 -0.1511  0.4240 -0.3925
  183SLPC   H4X21034   3.557   1.512   9.802 -0.1280  2.7321  1.1884
  183SLPC   H4Y21035   3.395   1.574   9.777  0.0688  0.0903 -1.1595
  183SLPC   C3521036   3.425   1.352   9.781  0.1324  0.7494 -0.0798
  183SLPC   H5X21037   3.316   1.335   9.788  0.6177 -2.6116  0.0808
  183SLPC   H5Y21038   3.486   1.286   9.847  0.3961  1.3163  0.2550
  183SLPC   C3621039   3.451   1.325   9.631 -0.0701  0.2051  0.2520
  183SLPC   H6X21040   3.409   1.404   9.565 -0.3369  0.0987  0.2938
  183SLPC   H6Y21041   3.395   1.232   9.609  0.4514 -0.1273  0.3320
  183SLPC   C3721042   3.598   1.301   9.605 -0.1961 -0.9272  0.0212
  183SLPC   H7X21043   3.640   1.213   9.660 -0.0702 -1.3985 -0.8247
  183SLPC   H7Y21044   3.661   1.389   9.628 -2.0495  0.6079 -0.6904
  183SLPC   C3821045   3.628   1.269   9.450 -0.2214  0.3773  0.5783
  183SLPC   H8X21046   3.557   1.193   9.412  0.3012  0.5016 -0.6365
  183SLPC   H8Y21047   3.727   1.223   9.431 -1.8770 -1.3919 -4.4411
  183SLPC   C3921048   3.612   1.397   9.368 -0.1223  0.5568 -0.3272
  183SLPC   H9X21049   3.683   1.474   9.406  0.0185  0.7620 -1.0006
  183SLPC   H9Y21050   3.510   1.433   9.395 -0.6898  0.6982 -2.5939
  183SLPC  C31021051   3.621   1.374   9.218  0.6383 -0.1954  0.3597
  183SLPC  H10X21052   3.530   1.312   9.201 -0.4704  1.5094 -0.0070
  183SLPC  H10Y21053   3.714   1.323   9.184  0.6478  0.4004 -0.5316
  183SLPC  C31121054   3.582   1.489   9.117 -0.1127 -0.4351 -0.5646
  183SLPC  H11X21055   3.654   1.569   9.146  1.0607 -2.3772  2.0622
  183SLPC  H11Y21056   3.481   1.523   9.149 -0.1417 -1.3338  0.3271
  183SLPC  C31221057   3.579   1.444   8.971  0.2092  0.1174 -0.1246
  183SLPC  H12X21058   3.677   1.411   8.929 -0.5257 -1.0596 -0.9625
  183SLPC  H12Y21059   3.540   1.535   8.922  0.6741  0.2199 -0.3028
  183SLPC  C31321060   3.467   1.336   8.929 -0.1276  0.2243 -0.1899
  183SLPC  H13X21061   3.377   1.352   8.992 -0.6341 -0.3560 -0.7647
  183SLPC  H13Y21062   3.501   1.237   8.966 -0.2469 -0.0831 -0.8974
  183SLPC  C31421063   3.443   1.335   8.777 -0.0484  0.0544  0.2296
  183SLPC  H14X21064   3.521   1.276   8.724  0.3583  1.0933 -0.3390
  183SLPC  H14Y21065   3.442   1.441   8.743 -0.6874  0.5164  1.6503
  183SLPC  C31521066   3.309   1.275   8.740 -0.1130 -0.3639 -0.8731
  183SLPC  H15X21067   3.232   1.287   8.820  1.4490  0.2190  0.5814
  183SLPC  H15Y21068   3.325   1.166   8.725  1.5656 -0.5107  1.6403
  183SLPC  C31621069   3.246   1.346   8.618 -0.0561 -0.1115 -0.2151
  183SLPC  H16X21070   3.310   1.352   8.528 -1.6202  1.1450 -1.2705
  183SLPC  H16Y21071   3.219   1.452   8.638 -2.4444 -0.1903 -2.8164
  183SLPC  C31721072   3.113   1.287   8.562  0.0431  0.0668  0.0973
  183SLPC  H17X21073   3.057   1.364   8.506 -1.2407  0.4306  1.8271
  183SLPC  H17Y21074   3.059   1.249   8.652 -1.0897  2.0295  0.2750
  183SLPC  C31821075   3.129   1.168   8.470  0.3239  0.0887 -0.1801
  183SLPC  H18X21076   3.029   1.130   8.439 -0.4883  0.1454  2.2941
  183SLPC  H18Y21077   3.171   1.083   8.528 -0.5509 -0.4216 -0.2833
  183SLPC  H18Z21078   3.198   1.193   8.387 -0.6204  0.9359 -0.7155
  184SLPC     N21079   5.205   0.272  10.836  0.5621  0.4366  0.2978
  184SLPC   C1321080   5.281   0.332  10.950 -0.1209  0.1146  0.0389
  184SLPC  H13A21081   5.318   0.427  10.915  2.8459 -1.1189 -0.3716
  184SLPC  H13B21082   5.218   0.349  11.036  0.3808  0.1741  0.3968
  184SLPC  H13C21083   5.369   0.278  10.983  0.1456 -1.7093 -3.4188
  184SLPC   C1421084   5.095   0.373  10.789  1.1374 -0.6215  0.4950
  184SLPC  H14A21085   5.011   0.314  10.754  0.8922  1.1353 -2.0312
  184SLPC  H14B21086   5.063   0.433  10.872 -0.6227  0.1564 -0.7080
  184SLPC  H14C21087   5.137   0.430  10.707  0.9473 -4.3947 -2.3898
  184SLPC   C1521088   5.123   0.149  10.879 -0.2693  0.2264 -0.3702
  184SLPC  H15A21089   5.038   0.179  10.938 -0.3996  0.9890 -0.9385
  184SLPC  H15B21090   5.095   0.093  10.791 -0.0578  2.6785 -2.0458
  184SLPC  H15C21091   5.182   0.075  10.931 -0.4634  1.6970  2.0112
  184SLPC   C1221092   5.302   0.249  10.726 -0.6185 -0.7971  0.7230
  184SLPC  H12A21093   5.388   0.196  10.765  0.5168 -0.0912 -0.7587
  184SLPC  H12B21094   5.347   0.340  10.689 -1.9213 -0.2736  0.4189
  184SLPC   C1121095   5.255   0.163  10.599  0.3365  0.2795 -0.0230
  184SLPC  H11A21096   5.334   0.170  10.521  2.1599 -0.7700  1.6719
  184SLPC  H11B21097   5.153   0.192  10.566  0.3152 -0.6002 -0.7395
  184SLPC     P21098   5.358  -0.066  10.687  0.2978 -0.2712  0.3951
  184SLPC   O1321099   5.409  -0.003  10.809  0.2108 -0.6653 -0.6812
  184SLPC   O1421100   5.308  -0.205  10.694 -1.0500  0.0623 -0.3115
  184SLPC   O1221101   5.238   0.027  10.642 -0.2847  0.4343  0.1395
  184SLPC   O1121102   5.463  -0.054  10.569 -0.5106 -0.7732 -0.0976
  184SLPC    C121103   5.417  -0.074  10.435 -0.4624 -0.5797 -0.5121
  184SLPC    HA21104   5.331  -0.144  10.441 -0.1779 -0.8123  0.9553
  184SLPC    HB21105   5.390   0.023  10.388  3.4186  2.1415  2.5286
  184SLPC    C221106   5.527  -0.148  10.341  0.8229 -0.0986 -0.0150
  184SLPC    HS21107   5.559  -0.238  10.398 -1.6595 -1.0642 -0.1129
  184SLPC   O2121108   5.639  -0.060  10.313  0.0732  0.0610  0.1199
  184SLPC   C2121109   5.758  -0.104  10.361  0.2892 -0.5729  0.3564
  184SLPC   O2221110   5.770  -0.197  10.437 -0.1101  0.4880  0.2345
  184SLPC   C2221111   5.878  -0.005  10.339 -0.0936 -0.4224  0.4503
  184SLPC   H2R21112   5.870   0.087  10.402 -0.7310  0.4770 -0.9263
  184SLPC   H2S21113   5.958  -0.065  10.386  0.9819  0.0849 -0.7242
  184SLPC    C321114   5.466  -0.192  10.214 -0.8085  0.3036  0.4676
  184SLPC    HX21115   5.434  -0.100  10.160  2.0479  1.6033  0.9264
  184SLPC    HY21116   5.376  -0.251  10.245 -1.4786  1.0077 -0.1186
  184SLPC   O3121117   5.562  -0.262  10.131 -0.2572 -0.0540 -0.4551
  184SLPC   C3121118   5.550  -0.388  10.114 -0.2975  0.2488  0.1873
  184SLPC   O3221119   5.466  -0.460  10.169 -0.1782  0.2266 -0.2092
  184SLPC   C3221120   5.648  -0.442  10.007 -0.1374  0.6941  0.2914
  184SLPC   H2X21121   5.683  -0.546  10.016 -2.2961 -0.1238 -0.4247
  184SLPC   H2Y21122   5.736  -0.374  10.011  0.8150 -0.5795  1.1427
  184SLPC   C2321123   5.888   0.030  10.187 -0.1710 -0.1007  0.0397
  184SLPC   H3R21124   5.990   0.072  10.172 -0.5934  1.2913  1.0011
  184SLPC   H3S21125   5.806   0.101  10.167 -0.8057  0.0140  2.8266
  184SLPC   C2421126   5.867  -0.095  10.087  0.4318 -0.1853 -0.5545
  184SLPC   H4R21127   5.758  -0.115  10.080  0.6144 -2.4717  2.0551
  184SLPC   H4S21128   5.924  -0.184  10.122  1.1113 -0.1935 -1.6637
  184SLPC   C2521129   5.922  -0.068   9.945 -0.5181 -0.5313  0.5666
  184SLPC   H5R21130   6.033  -0.066   9.938 -0.5617 -3.5230 -1.8770
  184SLPC   H5S21131   5.902   0.032   9.902 -2.7617 -1.5467 -0.8513
  184SLPC   C2621132   5.881  -0.170   9.839 -0.4706 -0.4603 -0.6815
  184SLPC   H6R21133   5.771  -0.183   9.853 -0.6164  1.8112  0.5070
  184SLPC   H6S21134   5.932  -0.264   9.869 -0.8039  0.1088  1.7556
  184SLPC   C2721135   5.929  -0.118   9.703 -0.1247 -0.3026 -0.6621
  184SLPC   H7R21136   6.040  -0.110   9.709  0.0000 -1.9061 -0.5599
  184SLPC   H7S21137   5.877  -0.026   9.671  2.3973  0.8005 -1.7475
  184SLPC   C2821138   5.907  -0.230   9.593  0.3278  0.6930  0.2768
  184SLPC   H8R21139   5.804  -0.265   9.613  0.6695  0.1479  1.1625
  184SLPC   H8S21140   5.967  -0.317   9.628 -1.3086 -0.6570 -0.2442
  184SLPC   C2921141   5.933  -0.178   9.457  0.0395  0.2924 -0.5093
  184SLPC   H9R21142   6.029  -0.127   9.442  1.1339 -0.5144  3.2717
  184SLPC  C21021143   5.859  -0.196   9.351 -0.2820 -0.0934  0.7359
  184SLPC  H10R21144   5.891  -0.140   9.261 -2.8197  0.2423 -0.0091
  184SLPC  C21121145   5.732  -0.270   9.323  0.7022 -0.2503  0.5412
  184SLPC  H11R21146   5.653  -0.192   9.315  1.3954  0.4135  0.2070
  184SLPC  H11S21147   5.709  -0.334   9.411  2.6244 -1.2459  0.3388
  184SLPC  C21221148   5.728  -0.357   9.200 -0.1400 -0.1988 -0.6109
  184SLPC  H12R21149   5.706  -0.462   9.226 -0.7720 -0.4429 -2.0401
  184SLPC  C21321150   5.730  -0.316   9.072 -1.0300 -0.1228 -0.1351
  184SLPC  H13R21151   5.748  -0.396   8.999  1.6313 -1.7421  2.2023
  184SLPC  C21421152   5.741  -0.172   9.022  0.0311 -0.1435 -0.4339
  184SLPC  H14R21153   5.841  -0.160   8.973 -0.2519  3.2432 -0.3091
  184SLPC  H14S21154   5.751  -0.092   9.098  0.2455 -0.3873 -0.2057
  184SLPC  C21521155   5.625  -0.154   8.925 -0.8033  0.1132  0.2908
  184SLPC  H15R21156   5.621  -0.239   8.853  2.3772  0.9062 -0.8934
  184SLPC  H15S21157   5.654  -0.060   8.873  1.4738 -1.3950 -1.2806
  184SLPC  C21621158   5.493  -0.124   8.994  0.7758 -0.0970  0.6399
  184SLPC  H16R21159   5.508  -0.063   9.086  1.7497 -0.5931  0.8230
  184SLPC  H16S21160   5.453  -0.223   9.025 -1.2897  0.3972 -0.3930
  184SLPC  C21721161   5.396  -0.055   8.899 -0.1834  0.4674 -0.2345
  184SLPC  H17R21162   5.302  -0.112   8.883 -0.6890  1.1713  0.1866
  184SLPC  H17S21163   5.447  -0.053   8.800  0.0303  1.5587 -0.1115
  184SLPC  C21821164   5.347   0.086   8.949  0.6419 -0.9969  0.2231
  184SLPC  H18R21165   5.421   0.169   8.958 -3.7837  3.1568  0.4811
  184SLPC  H18S21166   5.318   0.064   9.054 -1.2886 -1.5568 -0.4102
  184SLPC  H18T21167   5.256   0.117   8.894  0.2176 -1.1220  0.8452
  184SLPC   C3321168   5.581  -0.415   9.864 -0.3960  0.4895 -0.3573
  184SLPC   H3X21169   5.676  -0.402   9.809  0.4080 -0.4538  0.7811
  184SLPC   H3Y21170   5.522  -0.322   9.851 -1.6219 -0.3708 -1.1087
  184SLPC   C3421171   5.520  -0.536   9.795  0.1561 -0.0429  0.2218
  184SLPC   H4X21172   5.420  -0.551   9.843  0.7566 -0.7177  1.2791
  184SLPC   H4Y21173   5.585  -0.626   9.793  1.3926  0.8733 -1.2269
  184SLPC   C3521174   5.508  -0.521   9.641 -0.2665  0.3762 -0.3064
  184SLPC   H5X21175   5.609  -0.498   9.599  0.3605 -0.0521  0.9622
  184SLPC   H5Y21176   5.448  -0.430   9.622 -0.8292  0.1851  0.5445
  184SLPC   C3621177   5.451  -0.639   9.556 -0.3631 -0.5930 -0.2900
  184SLPC   H6X21178   5.347  -0.661   9.591 -1.1044  2.4051 -0.4970
  184SLPC   H6Y21179   5.519  -0.726   9.569  2.1353  1.0167 -2.2915
  184SLPC   C3721180   5.434  -0.605   9.410  0.5678 -0.0846 -0.0814
  184SLPC   H7X21181   5.380  -0.693   9.369 -1.7864  1.5820 -0.6350
  184SLPC   H7Y21182   5.528  -0.597   9.351  0.8548 -0.5391  0.3086
  184SLPC   C3821183   5.356  -0.477   9.388 -0.6293 -0.4415  0.1207
  184SLPC   H8X21184   5.407  -0.379   9.401  1.4187 -1.4717 -0.0389
  184SLPC   H8Y21185   5.278  -0.483   9.467 -0.5196 -0.7689  0.2005
  184SLPC   C3921186   5.294  -0.485   9.243 -0.5796 -0.6874 -0.8076
  184SLPC   H9X21187   5.223  -0.570   9.246 -3.1672  1.4113 -0.6287
  184SLPC   H9Y21188   5.371  -0.506   9.166  0.4365  0.1860 -0.0363
  184SLPC  C31021189   5.213  -0.371   9.190 -0.2171  0.0308  0.1113
  184SLPC  H10X21190   5.259  -0.269   9.187  1.3385 -0.5972  1.7789
  184SLPC  H10Y21191   5.138  -0.350   9.269  0.9063  1.1498  0.9054
  184SLPC  C31121192   5.143  -0.383   9.051  0.0504 -0.1800  0.5495
  184SLPC  H11X21193   5.218  -0.420   8.978 -2.3752 -1.4356 -1.4040
  184SLPC  H11Y21194   5.102  -0.284   9.021 -2.8597 -1.2350  0.8254
  184SLPC  C31221195   5.032  -0.494   9.057  0.6503 -0.0661 -0.1457
  184SLPC  H12X21196   4.966  -0.471   9.143 -2.7887  0.3815 -2.8126
  184SLPC  H12Y21197   5.073  -0.597   9.067 -0.2841 -0.4289 -0.0187
  184SLPC  C31321198   4.940  -0.492   8.939  1.3580 -0.0229 -0.0141
  184SLPC  H13X21199   5.007  -0.519   8.854  1.3333  1.6500 -0.5881
  184SLPC  H13Y21200   4.900  -0.393   8.907 -0.2578 -0.4325  0.6966
  184SLPC  C31421201   4.822  -0.585   8.956 -0.1786  0.6235  0.7412
  184SLPC  H14X21202   4.762  -0.541   9.038 -2.7857  0.7566 -1.1630
  184SLPC  H14Y21203   4.850  -0.691   8.974 -0.0184  1.1027  3.4010
  184SLPC  C31521204   4.729  -0.595   8.821  0.1616  0.3773 -0.3607
  184SLPC  H15X21205   4.671  -0.502   8.800 -2.9904 -1.0801  1.6057
  184SLPC  H15Y21206   4.657  -0.679   8.831 -0.6215  1.2085  1.2646
  184SLPC  C31621207   4.820  -0.619   8.697  0.1016 -0.0143 -0.3359
  184SLPC  H16X21208   4.884  -0.707   8.718  2.4260  1.7953  0.3985
  184SLPC  H16Y21209   4.887  -0.531   8.686  3.2110 -2.0191  1.7991
  184SLPC  C31721210   4.737  -0.636   8.569  0.1059  0.2699  0.6219
  184SLPC  H17X21211   4.796  -0.631   8.475 -1.4660  1.1207 -0.3350
  184SLPC  H17Y21212   4.659  -0.558   8.577 -0.2544 -0.0832  0.5557
  184SLPC  C31821213   4.663  -0.772   8.565  0.0631 -0.4146  0.1392
  184SLPC  H18X21214   4.742  -0.850   8.574  1.6382  1.3371  1.6100
  184SLPC  H18Y21215   4.629  -0.797   8.462 -1.9060  0.5250  0.5502
  184SLPC  H18Z21216   4.585  -0.773   8.644 -0.9135  1.6998 -0.7575
  185SLPC     N21217   3.699   1.624   6.400 -0.0218  0.2142 -0.4439
  185SLPC   C1321218   3.660   1.479   6.379  0.2603 -0.5593  0.1682
  185SLPC  H13A21219   3.553   1.467   6.390  0.1729 -0.6720 -0.7683
  185SLPC  H13B21220   3.668   1.454   6.274  0.2076 -0.1230  0.0590
  185SLPC  H13C21221   3.710   1.406   6.441 -0.0731 -1.5650 -0.7350
  185SLPC   C1421222   3.690   1.649   6.545 -0.0943  0.0657 -0.1552
  185SLPC  H14A21223   3.723   1.748   6.572  0.2325  0.1018 -0.6814
  185SLPC  H14B21224   3.589   1.627   6.577 -1.0387  3.8439 -0.3068
  185SLPC  H14C21225   3.749   1.583   6.607  0.5079  1.7282  1.0668
  185SLPC   C1521226   3.604   1.710   6.324  0.2189 -0.3318 -0.4705
  185SLPC  H15A21227   3.626   1.815   6.336 -0.2685 -0.4158  1.2408
  185SLPC  H15B21228   3.611   1.688   6.218 -0.9287 -1.5563 -0.3008
  185SLPC  H15C21229   3.501   1.699   6.355 -0.3751  1.8816 -1.5711
  185SLPC   C1221230   3.842   1.644   6.358 -0.0092  0.6976  0.9516
  185SLPC  H12A21231   3.861   1.750   6.355 -1.5573  0.9540 -1.5059
  185SLPC  H12B21232   3.850   1.621   6.252  2.3146 -1.6306  1.5827
  185SLPC   C1121233   3.951   1.571   6.439 -0.5738  0.5844  0.0713
  185SLPC  H11A21234   4.042   1.562   6.375 -0.4735  0.0448  0.2887
  185SLPC  H11B21235   3.928   1.466   6.466 -1.2174  0.1272 -2.1391
  185SLPC     P21236   4.074   1.776   6.567  0.4149  0.5652  0.2041
  185SLPC   O1321237   4.213   1.733   6.556 -0.0385  0.0704 -0.3661
  185SLPC   O1421238   4.029   1.880   6.473  0.2117  0.2056 -0.0953
  185SLPC   O1221239   3.978   1.647   6.561 -0.1371 -0.3317  0.5980
  185SLPC   O1121240   4.064   1.830   6.715  0.0210 -0.1762  0.0675
  185SLPC    C121241   4.048   1.734   6.823 -0.4995  0.5516 -0.2284
  185SLPC    HA21242   3.952   1.677   6.812  1.2283 -2.3601 -0.9213
  185SLPC    HB21243   4.139   1.672   6.835 -1.7416 -0.9793  1.6835
  185SLPC    C221244   4.036   1.801   6.963  0.3619  0.4281 -0.2149
  185SLPC    HS21245   3.982   1.735   7.033  0.1003  0.6567 -0.2017
  185SLPC   O2121246   3.958   1.923   6.959  0.1354  0.3703 -0.8244
  185SLPC   C2121247   3.833   1.909   6.925  0.2899 -1.0304  1.0373
  185SLPC   O2221248   3.781   1.803   6.904 -0.5840  0.6070  0.2591
  185SLPC   C2221249   3.764   2.048   6.911  0.2290  0.0056  0.1274
  185SLPC   H2R21250   3.838   2.127   6.886  1.4864 -1.7216 -1.8077
  185SLPC   H2S21251   3.697   2.047   6.823 -2.0812 -3.5057  1.7737
  185SLPC    C321252   4.178   1.821   7.014 -0.1673 -0.2138 -0.3631
  185SLPC    HX21253   4.220   1.906   6.956  1.0315  0.6625  1.7498
  185SLPC    HY21254   4.239   1.729   6.999  1.5678  0.9879 -0.7778
  185SLPC   O3121255   4.181   1.859   7.154  0.3119  0.2323 -0.0023
  185SLPC   C3121256   4.188   1.994   7.179 -0.9369 -0.1961  0.6147
  185SLPC   O3221257   4.203   2.081   7.100  0.2457 -0.0760 -0.1207
  185SLPC   C3221258   4.142   2.008   7.325  0.1923  0.1527 -0.4685
  185SLPC   H2X21259   4.150   1.913   7.381 -4.5449  0.1114  0.3516
  185SLPC   H2Y21260   4.036   2.040   7.317 -0.0245 -0.2658  0.6867
  185SLPC   C2321261   3.705   2.094   7.043  0.2908  0.4788 -0.6703
  185SLPC   H3R21262   3.674   2.201   7.034  2.4656  1.2216  0.4462
  185SLPC   H3S21263   3.780   2.091   7.124  2.6654 -0.8037 -2.8527
  185SLPC   C2421264   3.582   2.009   7.085 -0.4191  0.1238 -0.3717
  185SLPC   H4R21265   3.601   1.901   7.104  0.1329  0.0672 -1.1936
  185SLPC   H4S21266   3.505   2.010   7.005 -1.7674 -0.1002  0.9077
  185SLPC   C2521267   3.523   2.066   7.210  0.0500 -0.2506 -0.0398
  185SLPC   H5R21268   3.418   2.033   7.228  0.7607 -2.9054 -0.6532
  185SLPC   H5S21269   3.520   2.177   7.198 -1.9484  0.0693  2.8072
  185SLPC   C2621270   3.600   2.031   7.341  0.2065  0.0092 -0.9494
  185SLPC   H6R21271   3.709   2.025   7.322  0.3238 -3.9583  0.6236
  185SLPC   H6S21272   3.553   1.939   7.381 -1.3679  0.6604 -1.2567
  185SLPC   C2721273   3.574   2.146   7.444 -0.3621 -0.1202  0.2293
  185SLPC   H7R21274   3.466   2.169   7.458 -0.5676  0.0034 -1.4355
  185SLPC   H7S21275   3.624   2.236   7.402  2.4946 -1.0181  1.5728
  185SLPC   C2821276   3.644   2.130   7.581  0.5396  0.6106  0.7864
  185SLPC   H8R21277   3.604   2.210   7.646  0.0879 -0.2092  1.5284
  185SLPC   H8S21278   3.746   2.162   7.552  0.4097 -1.2744 -1.9730
  185SLPC   C2921279   3.657   1.999   7.658 -0.7231 -0.2699  0.5889
  185SLPC   H9R21280   3.558   1.951   7.653 -0.3495 -0.7960 -3.7860
  185SLPC  C21021281   3.746   1.944   7.731 -0.0554 -0.0296 -0.6588
  185SLPC  H10R21282   3.711   1.844   7.760  0.1492  0.4164  1.2053
  185SLPC  C21121283   3.887   1.984   7.784 -0.2659 -0.1158  0.6710
  185SLPC  H11R21284   3.951   2.015   7.698 -1.9864  3.9023  0.7326
  185SLPC  H11S21285   3.939   1.903   7.839 -0.2989 -0.5742  0.0313
  185SLPC  C21221286   3.882   2.111   7.863 -0.1593 -0.1309  0.2030
  185SLPC  H12R21287   3.813   2.193   7.837 -1.1562 -1.2172 -0.6477
  185SLPC  C21321288   3.936   2.124   7.985 -0.7002  0.2008  0.0398
  185SLPC  H13R21289   3.912   2.216   8.041 -0.6807 -0.2445  0.7924
  185SLPC  C21421290   4.020   2.028   8.071 -0.4452  0.1948 -0.4306
  185SLPC  H14R21291   4.128   2.031   8.042 -0.7100  0.7907 -1.3880
  185SLPC  H14S21292   3.989   1.924   8.050  0.6803  0.2522 -2.5923
  185SLPC  C21521293   3.998   2.041   8.224 -0.4916 -0.6070 -0.2459
  185SLPC  H15R21294   4.044   1.947   8.261 -0.0393 -1.1423 -2.1152
  185SLPC  H15S21295   3.897   2.056   8.267 -0.4592 -0.2100 -0.3080
  185SLPC  C21621296   4.095   2.131   8.298  0.9875 -0.5080 -0.7170
  185SLPC  H16R21297   4.072   2.234   8.261  1.6711 -0.0773  0.0501
  185SLPC  H16S21298   4.201   2.103   8.281  2.1594  2.2310  1.6456
  185SLPC  C21721299   4.069   2.129   8.460  0.3180 -0.0275  0.5042
  185SLPC  H17R21300   4.107   2.030   8.491  0.5878 -0.7488 -2.0018
  185SLPC  H17S21301   3.959   2.130   8.474  0.2571  1.3460  0.0132
  185SLPC  C21821302   4.150   2.240   8.531 -0.1406  0.3223 -0.7681
  185SLPC  H18R21303   4.128   2.245   8.639  0.3458 -0.4816 -0.6260
  185SLPC  H18S21304   4.138   2.341   8.487  2.6953 -0.8476 -4.4873
  185SLPC  H18T21305   4.259   2.221   8.521  0.3361  1.3280  2.1615
  185SLPC   C3321306   4.228   2.109   7.396  0.4065 -0.2308  0.1092
  185SLPC   H3X21307   4.234   2.205   7.339 -2.6602 -0.5115 -0.7619
  185SLPC   H3Y21308   4.334   2.077   7.412  1.2528  0.5061 -3.6091
  185SLPC   C3421309   4.175   2.121   7.545 -0.1517 -0.1191 -0.5133
  185SLPC   H4X21310   4.186   2.020   7.589 -0.3885  0.0172 -0.1372
  185SLPC   H4Y21311   4.067   2.145   7.528 -0.4131 -1.0833 -0.2533
  185SLPC   C3521312   4.250   2.230   7.622 -1.4604  0.6731  0.0529
  185SLPC   H5X21313   4.224   2.328   7.576  0.4992  2.0440  1.7439
  185SLPC   H5Y21314   4.359   2.208   7.631 -1.6368 -1.0659 -1.7211
  185SLPC   C3621315   4.210   2.251   7.766 -0.1518 -0.2594 -0.0670
  185SLPC   H6X21316   4.217   2.152   7.814  1.7159 -0.2895 -0.3919
  185SLPC   H6Y21317   4.104   2.284   7.774 -0.0652 -0.2418  1.1222
  185SLPC   C3721318   4.287   2.360   7.837 -0.5582 -0.2286  0.6080
  185SLPC   H7X21319   4.290   2.449   7.771  1.5419 -2.1459 -1.9890
  185SLPC   H7Y21320   4.392   2.329   7.856 -0.1107  1.1309  0.3878
  185SLPC   C3821321   4.226   2.408   7.973  0.3566 -0.2337  0.2752
  185SLPC   H8X21322   4.167   2.329   8.023 -0.7117  0.9822  0.9589
  185SLPC   H8Y21323   4.163   2.491   7.935 -0.0969  0.0985  1.7138
  185SLPC   C3921324   4.334   2.456   8.071 -0.1090  0.9390 -0.9299
  185SLPC   H9X21325   4.284   2.522   8.144 -1.7150 -0.9906 -0.2513
  185SLPC   H9Y21326   4.409   2.519   8.019  1.1204 -0.2084 -0.5644
  185SLPC  C31021327   4.397   2.349   8.162 -0.3770  0.0743 -0.4162
  185SLPC  H10X21328   4.486   2.308   8.109  0.7821  1.0784  0.7338
  185SLPC  H10Y21329   4.323   2.271   8.189  1.1542 -0.4880  2.2865
  185SLPC  C31121330   4.449   2.408   8.292  0.2502 -0.5591 -0.2650
  185SLPC  H11X21331   4.365   2.460   8.341 -0.4141  0.2235 -2.1784
  185SLPC  H11Y21332   4.534   2.479   8.279 -0.7045  1.0113  1.7954
  185SLPC  C31221333   4.490   2.293   8.384 -0.0963 -0.0414  0.5520
  185SLPC  H12X21334   4.590   2.262   8.348  0.5498  0.5669  1.7732
  185SLPC  H12Y21335   4.421   2.206   8.376  1.7780 -1.4140 -0.9868
  185SLPC  C31321336   4.506   2.348   8.525 -0.0454 -0.0273 -0.2243
  185SLPC  H13X21337   4.407   2.377   8.566 -2.2715 -0.8520 -4.6832
  185SLPC  H13Y21338   4.557   2.445   8.514  1.4575 -0.9111 -1.2613
  185SLPC  C31421339   4.590   2.246   8.610 -0.5136 -0.1818 -0.3150
  185SLPC  H14X21340   4.566   2.145   8.571 -2.2043 -0.7630  2.1469
  185SLPC  H14Y21341   4.570   2.246   8.719 -1.8990  0.4206 -0.5639
  185SLPC  C31521342   4.741   2.280   8.594  0.2501 -0.2049  0.5279
  185SLPC  H15X21343   4.750   2.388   8.617 -0.0221  1.0111 -4.4358
  185SLPC  H15Y21344   4.768   2.269   8.487 -0.5538  2.2509  0.0276
  185SLPC  C31621345   4.832   2.188   8.675  0.5773  0.2801 -0.2003
  185SLPC  H16X21346   4.940   2.207   8.657  0.7615  0.8215  1.4499
  185SLPC  H16Y21347   4.806   2.082   8.658 -0.0298 -0.1976  3.4100
  185SLPC  C31721348   4.828   2.201   8.833  0.4331 -0.4166 -0.0960
  185SLPC  H17X21349   4.738   2.155   8.880  0.4397  1.2690  1.6108
  185SLPC  H17Y21350   4.830   2.311   8.839  1.8665 -0.5288  1.6835
  185SLPC  C31821351   4.951   2.132   8.891  0.1125  0.3248 -0.1550
  185SLPC  H18X21352   4.953   2.030   8.846  2.0509 -0.4351  1.5826
  185SLPC  H18Y21353   4.935   2.114   8.999  0.4554 -0.2632 -0.1995
  185SLPC  H18Z21354   5.042   2.189   8.862  0.1358  0.1550 -0.4250
  186SLPC     N21355   4.373   4.738   5.883 -0.8117  0.0639 -0.0389
  186SLPC   C1321356   4.513   4.712   5.921  0.0900  0.4787  0.4686
  186SLPC  H13A21357   4.597   4.771   5.887 -0.0897  0.9923  0.8927
  186SLPC  H13B21358   4.519   4.708   6.029  2.7787 -0.3962  0.3406
  186SLPC  H13C21359   4.537   4.612   5.889 -0.7242 -0.4078  2.5584
  186SLPC   C1421360   4.290   4.620   5.909 -0.7176  0.0465  0.0995
  186SLPC  H14A21361   4.297   4.586   6.011 -0.3119 -0.8287 -0.2164
  186SLPC  H14B21362   4.188   4.631   5.876 -0.9568  0.0639  0.8402
  186SLPC  H14C21363   4.334   4.542   5.847  1.4785  1.6908 -0.4652
  186SLPC   C1521364   4.366   4.767   5.738  0.4053  0.7064 -0.0507
  186SLPC  H15A21365   4.425   4.696   5.682 -1.0948 -1.7695  1.4272
  186SLPC  H15B21366   4.263   4.760   5.706 -0.3351 -2.6660  2.7129
  186SLPC  H15C21367   4.417   4.861   5.725  2.0662 -0.1875 -0.2579
  186SLPC   C1221368   4.323   4.863   5.957 -0.1199  0.5012 -0.5572
  186SLPC  H12A21369   4.226   4.888   5.917 -0.1309 -0.1167 -0.9177
  186SLPC  H12B21370   4.388   4.947   5.938  0.6562  0.1394  0.4307
  186SLPC   C1121371   4.303   4.848   6.108  0.4895 -0.3992  0.1611
  186SLPC  H11A21372   4.235   4.761   6.120  1.5815 -1.2043  0.6668
  186SLPC  H11B21373   4.251   4.937   6.148 -2.0775 -1.0948 -1.4949
  186SLPC     P21374   4.524   4.942   6.222  0.4901 -0.1761  0.4034
  186SLPC   O1321375   4.663   4.887   6.218  0.1509  0.5319 -0.5746
  186SLPC   O1421376   4.509   5.052   6.123  0.2627 -0.3050 -0.4244
  186SLPC   O1221377   4.427   4.826   6.181  0.2067  0.2938 -0.0917
  186SLPC   O1121378   4.484   4.991   6.365 -0.5377 -0.7255 -0.0234
  186SLPC    C121379   4.445   4.890   6.463  0.4247 -0.7119  0.1646
  186SLPC    HA21380   4.401   4.797   6.420  1.9013  0.0088 -3.0817
  186SLPC    HB21381   4.539   4.867   6.517  0.3741  1.7974  1.4290
  186SLPC    C221382   4.340   4.947   6.550 -1.0146  0.7542 -0.3273
  186SLPC    HS21383   4.368   5.042   6.599 -1.4926  2.0572 -2.5301
  186SLPC   O2121384   4.295   4.847   6.651  0.3736  0.7988  0.2723
  186SLPC   C2121385   4.381   4.825   6.747  0.0749 -0.1525 -0.2050
  186SLPC   O2221386   4.484   4.885   6.762  0.1325  0.1604 -0.2444
  186SLPC   C2221387   4.341   4.708   6.831 -0.5814  0.1114  0.4139
  186SLPC   H2R21388   4.249   4.726   6.891 -1.4258 -2.3228 -0.1014
  186SLPC   H2S21389   4.326   4.622   6.762  0.4787  1.8049 -2.0249
  186SLPC    C321390   4.213   4.985   6.458 -0.1967 -0.5941  0.3571
  186SLPC    HX21391   4.227   4.915   6.373  1.6301 -0.5003  0.5714
  186SLPC    HY21392   4.238   5.087   6.422 -1.8906 -0.3658 -0.2162
  186SLPC   O3121393   4.085   4.974   6.532  0.4173  0.5101  0.3893
  186SLPC   C3121394   4.071   5.081   6.617  0.0215  0.0084 -0.4151
  186SLPC   O3221395   4.126   5.191   6.599  0.1109 -0.3312 -0.0328
  186SLPC   C3221396   3.974   5.047   6.734 -0.1545 -0.1357 -0.1751
  186SLPC   H2X21397   3.962   4.936   6.738 -0.9150 -0.0708 -0.4680
  186SLPC   H2Y21398   3.871   5.074   6.702 -0.2057  0.9101  0.8484
  186SLPC   C2321399   4.452   4.678   6.940 -0.6456 -0.4449  0.7450
  186SLPC   H3R21400   4.467   4.766   7.006 -1.2287  1.2813 -1.3559
  186SLPC   H3S21401   4.548   4.643   6.895 -0.6462  1.3721 -0.7374
  186SLPC   C2421402   4.412   4.570   7.041 -0.0902 -0.7180  0.1032
  186SLPC   H4R21403   4.400   4.472   6.990  1.3079  0.8766 -3.4292
  186SLPC   H4S21404   4.315   4.601   7.085 -1.2331 -2.5167 -1.0985
  186SLPC   C2521405   4.519   4.561   7.153 -0.0922  0.1632  0.3654
  186SLPC   H5R21406   4.615   4.573   7.100  0.2917 -2.0921  0.4744
  186SLPC   H5S21407   4.510   4.457   7.192 -1.8354 -0.0555 -0.5817
  186SLPC   C2621408   4.495   4.665   7.262  0.6628 -0.7926 -0.0323
  186SLPC   H6R21409   4.386   4.659   7.286  0.4742 -1.4841 -1.0318
  186SLPC   H6S21410   4.516   4.764   7.217  1.8014 -0.6444  0.8047
  186SLPC   C2721411   4.585   4.651   7.385  0.0188  0.2166 -0.8142
  186SLPC   H7R21412   4.691   4.674   7.363 -0.8944  0.6496 -5.3788
  186SLPC   H7S21413   4.563   4.551   7.430  1.1458 -0.0086 -0.7701
  186SLPC   C2821414   4.550   4.760   7.488  0.2711  0.0976 -0.0739
  186SLPC   H8R21415   4.440   4.756   7.506  0.5849  1.9717  2.5340
  186SLPC   H8S21416   4.566   4.868   7.467 -0.3282  0.4191  1.1309
  186SLPC   C2921417   4.639   4.728   7.606  0.2292 -0.9047 -0.4451
  186SLPC   H9R21418   4.745   4.703   7.590  0.0238 -1.4255 -1.0085
  186SLPC  C21021419   4.601   4.706   7.730  0.0484  0.2339  0.0895
  186SLPC  H10R21420   4.681   4.687   7.803  1.8266 -1.3410 -2.2169
  186SLPC  C21121421   4.468   4.710   7.800 -0.1800 -0.0782  0.0050
  186SLPC  H11R21422   4.381   4.703   7.731  1.0213 -3.0877 -1.3122
  186SLPC  H11S21423   4.464   4.814   7.838  0.4677  0.3958 -1.1963
  186SLPC  C21221424   4.440   4.612   7.911  0.3085  0.2800 -0.0062
  186SLPC  H12R21425   4.379   4.524   7.884 -0.2085 -0.6788  4.0081
  186SLPC  C21321426   4.473   4.630   8.044  0.3192 -0.0404  0.1043
  186SLPC  H13R21427   4.436   4.561   8.122 -2.2885 -0.5411 -1.5253
  186SLPC  C21421428   4.544   4.745   8.112 -0.2879  0.8905 -0.5796
  186SLPC  H14R21429   4.481   4.818   8.167 -0.0075  0.5242  0.2436
  186SLPC  H14S21430   4.585   4.814   8.036  0.1485  1.7175  0.3962
  186SLPC  C21521431   4.654   4.703   8.214 -0.4942  0.4317 -0.2267
  186SLPC  H15R21432   4.733   4.640   8.169 -0.2516  0.1749  0.5464
  186SLPC  H15S21433   4.604   4.643   8.293 -0.6590 -2.8956 -2.7490
  186SLPC  C21621434   4.709   4.820   8.302  0.1839  0.1941  0.1338
  186SLPC  H16R21435   4.781   4.780   8.378  1.1420  1.1209 -0.2640
  186SLPC  H16S21436   4.628   4.858   8.368 -0.0523  0.4160 -0.2879
  186SLPC  C21721437   4.767   4.943   8.229  0.2038 -0.1781  0.2490
  186SLPC  H17R21438   4.673   4.980   8.182 -0.2414 -0.8942  0.5778
  186SLPC  H17S21439   4.838   4.913   8.149  0.9182 -0.0331  0.8287
  186SLPC  C21821440   4.829   5.053   8.317 -0.3200  0.4520  0.0599
  186SLPC  H18R21441   4.847   5.146   8.260  0.7319 -0.9541 -1.9573
  186SLPC  H18S21442   4.928   5.020   8.356  0.5073  0.6405 -1.8493
  186SLPC  H18T21443   4.779   5.067   8.416 -1.3119  1.1732 -0.5323
  186SLPC   C3321444   4.014   5.117   6.865  0.0913 -0.5309 -0.5423
  186SLPC   H3X21445   3.929   5.113   6.936  1.5219  2.6322  1.4753
  186SLPC   H3Y21446   4.023   5.228   6.856 -0.3790 -0.5387 -1.1509
  186SLPC   C3421447   4.145   5.067   6.922 -0.5864  0.3349 -0.6041
  186SLPC   H4X21448   4.231   5.111   6.866 -0.5215  1.9360  0.7238
  186SLPC   H4Y21449   4.140   4.956   6.928  0.0307  0.3530  0.4883
  186SLPC   C3521450   4.149   5.107   7.072 -0.4007  0.4998 -0.6796
  186SLPC   H5X21451   4.058   5.071   7.125  0.5958  0.2026  0.8261
  186SLPC   H5Y21452   4.155   5.217   7.086  3.1938 -0.0967  3.2750
  186SLPC   C3621453   4.269   5.041   7.151  0.0408  0.8701  0.3602
  186SLPC   H6X21454   4.369   5.073   7.115  0.9977 -2.1858  0.1564
  186SLPC   H6Y21455   4.261   4.930   7.140 -0.0612  1.0274 -1.2880
  186SLPC   C3721456   4.260   5.093   7.295 -0.1005  0.1774 -0.4194
  186SLPC   H7X21457   4.157   5.072   7.331 -0.2876  0.2920 -0.8915
  186SLPC   H7Y21458   4.275   5.203   7.302  1.7706 -0.1100  0.4306
  186SLPC   C3821459   4.327   5.006   7.398  0.0483  0.2968  0.3688
  186SLPC   H8X21460   4.437   4.995   7.383 -0.0627  2.5099 -2.3491
  186SLPC   H8Y21461   4.293   4.901   7.382 -0.2882  0.3782  0.5485
  186SLPC   C3921462   4.294   5.051   7.545  0.1929  0.0939 -0.5942
  186SLPC   H9X21463   4.204   4.999   7.585  2.1945 -3.9837 -1.1453
  186SLPC   H9Y21464   4.263   5.157   7.534 -0.2915 -0.2802 -3.1334
  186SLPC  C31021465   4.407   5.050   7.650  0.3101  0.1734 -0.2556
  186SLPC  H10X21466   4.478   5.132   7.624  0.4661 -0.0919 -0.6693
  186SLPC  H10Y21467   4.455   4.950   7.638 -1.9707 -1.0306  0.4438
  186SLPC  C31121468   4.361   5.077   7.792 -0.4374  0.1876 -0.4951
  186SLPC  H11X21469   4.315   4.982   7.825  1.5606 -0.0104  1.7943
  186SLPC  H11Y21470   4.288   5.160   7.798 -0.5225  0.1834 -1.3005
  186SLPC  C31221471   4.482   5.105   7.875 -0.7579 -0.1742 -0.6307
  186SLPC  H12X21472   4.535   5.196   7.840 -0.1424  0.4168  1.7510
  186SLPC  H12Y21473   4.556   5.023   7.867 -3.2782 -2.5875 -0.1336
  186SLPC  C31321474   4.449   5.108   8.025  0.4357 -0.8792  0.6896
  186SLPC  H13X21475   4.541   5.144   8.076  1.7356  1.0125 -2.8344
  186SLPC  H13Y21476   4.439   5.004   8.063 -1.6319 -0.7421  0.5675
  186SLPC  C31421477   4.335   5.194   8.085 -0.3096 -0.3033  0.1784
  186SLPC  H14X21478   4.245   5.138   8.053 -0.4397 -0.4901  0.8484
  186SLPC  H14Y21479   4.337   5.292   8.034  1.2248 -0.4887 -0.1646
  186SLPC  C31521480   4.345   5.203   8.243  0.0415 -0.2543 -0.9264
  186SLPC  H15X21481   4.412   5.281   8.283  0.1896 -0.2384 -1.2036
  186SLPC  H15Y21482   4.375   5.101   8.275 -0.1201 -0.4653 -1.4391
  186SLPC  C31621483   4.207   5.215   8.318  1.0866  0.1233 -0.4512
  186SLPC  H16X21484   4.209   5.165   8.417  2.5751 -0.6223 -0.8302
  186SLPC  H16Y21485   4.137   5.155   8.256  0.7259 -1.3985  1.3911
  186SLPC  C31721486   4.172   5.361   8.339  0.0618 -0.1422  0.2133
  186SLPC  H17X21487   4.176   5.414   8.240  0.0186  1.1040  0.8624
  186SLPC  H17Y21488   4.246   5.408   8.407  0.5008 -1.0547  0.3669
  186SLPC  C31821489   4.032   5.378   8.396  0.4243  0.2119 -0.2057
  186SLPC  H18X21490   4.002   5.482   8.419  0.6903  0.0097  1.0853
  186SLPC  H18Y21491   4.013   5.332   8.496 -0.7393  0.9021 -0.1042
  186SLPC  H18Z21492   3.956   5.345   8.322 -0.5799  0.7828  0.5551
  187SLPC     N21493   5.637   1.243   6.230 -0.2052  0.3104  0.0493
  187SLPC   C1321494   5.587   1.196   6.092  0.0248 -0.1715  0.2586
  187SLPC  H13A21495   5.479   1.200   6.089  0.0756  0.6559 -1.3683
  187SLPC  H13B21496   5.627   1.262   6.016  0.6074 -0.0415  0.6763
  187SLPC  H13C21497   5.620   1.095   6.077  0.3696 -0.0130 -0.0599
  187SLPC   C1421498   5.783   1.209   6.246  0.1539  0.0521 -0.7224
  187SLPC  H14A21499   5.838   1.270   6.176  1.8480  1.4619  1.7482
  187SLPC  H14B21500   5.820   1.232   6.345  0.7989 -0.0820 -0.9330
  187SLPC  H14C21501   5.813   1.107   6.227 -2.1926 -0.9350  0.6950
  187SLPC   C1521502   5.555   1.185   6.330 -0.4265  0.1706 -0.4759
  187SLPC  H15A21503   5.555   1.079   6.309 -0.5876  0.4023 -1.6875
  187SLPC  H15B21504   5.584   1.201   6.433  0.9776 -1.6665 -0.5702
  187SLPC  H15C21505   5.451   1.215   6.322 -0.4378  0.9663  2.2144
  187SLPC   C1221506   5.628   1.399   6.230  1.2880 -0.3990 -0.5385
  187SLPC  H12A21507   5.674   1.428   6.137 -0.7857 -1.2392 -1.8633
  187SLPC  H12B21508   5.678   1.436   6.318 -0.2741  0.3401  0.0567
  187SLPC   C1121509   5.483   1.453   6.236 -0.1934 -0.3834 -0.7011
  187SLPC  H11A21510   5.427   1.374   6.182  0.1735 -1.2374  0.1529
  187SLPC  H11B21511   5.470   1.548   6.179  0.0288  1.0457  1.5533
  187SLPC     P21512   5.483   1.601   6.445  0.0251  0.0386  0.0488
  187SLPC   O1321513   5.631   1.592   6.467  0.5545 -0.1733  0.2399
  187SLPC   O1421514   5.432   1.711   6.364 -0.0374  0.6190  0.1546
  187SLPC   O1221515   5.439   1.468   6.374 -0.1280 -0.4779  0.7113
  187SLPC   O1121516   5.413   1.607   6.587 -0.1122  0.3309  0.5254
  187SLPC    C121517   5.279   1.560   6.593 -0.0852  0.2366 -0.6494
  187SLPC    HA21518   5.213   1.640   6.633 -2.6633 -1.2149 -1.8337
  187SLPC    HB21519   5.239   1.535   6.493 -0.7229 -1.3100 -0.0281
  187SLPC    C221520   5.246   1.438   6.695 -0.2600 -0.2575  0.2824
  187SLPC    HS21521   5.135   1.426   6.701 -0.4594  0.8890 -0.8683
  187SLPC   O2121522   5.302   1.472   6.826 -0.6817 -0.0783  0.2643
  187SLPC   C2121523   5.243   1.557   6.905  0.3188  0.3846 -0.9240
  187SLPC   O2221524   5.146   1.622   6.879 -0.1637  0.0783 -1.1160
  187SLPC   C2221525   5.324   1.578   7.030  0.1089 -0.0619 -0.6827
  187SLPC   H2R21526   5.393   1.492   7.038  3.7278  2.8658  1.8247
  187SLPC   H2S21527   5.379   1.673   7.011  0.5847  0.1755  1.6988
  187SLPC    C321528   5.308   1.310   6.642 -0.1063 -0.1159  0.4882
  187SLPC    HX21529   5.410   1.335   6.605  0.5889  0.3008  2.6237
  187SLPC    HY21530   5.258   1.262   6.556 -0.5107 -1.7530  1.6026
  187SLPC   O3121531   5.314   1.201   6.734  0.2734  0.2802 -0.2187
  187SLPC   C3121532   5.188   1.154   6.761 -0.1093 -1.1247  0.2411
  187SLPC   O3221533   5.084   1.204   6.711 -0.1880 -0.6408  0.1518
  187SLPC   C3221534   5.198   1.027   6.840 -0.0421 -0.7356 -0.3583
  187SLPC   H2X21535   5.274   0.962   6.791  2.4882 -0.1013  2.5975
  187SLPC   H2Y21536   5.103   0.973   6.856 -0.6622  1.2573  3.2600
  187SLPC   C2321537   5.253   1.638   7.151  0.0718 -0.0585 -0.3972
  187SLPC   H3R21538   5.178   1.563   7.183 -1.8572  2.1234  0.4066
  187SLPC   H3S21539   5.192   1.727   7.124 -1.5209 -1.6620 -2.2248
  187SLPC   C2421540   5.358   1.670   7.264  0.0579 -0.2068  0.1043
  187SLPC   H4R21541   5.423   1.755   7.234 -0.5613 -0.3952 -1.9144
  187SLPC   H4S21542   5.422   1.580   7.272  1.2423  0.8113  2.4268
  187SLPC   C2521543   5.290   1.694   7.402 -0.3127 -0.1042 -0.7859
  187SLPC   H5R21544   5.249   1.600   7.445 -0.2536 -0.1762 -0.8849
  187SLPC   H5S21545   5.208   1.766   7.383 -0.5796 -0.0867  0.4350
  187SLPC   C2621546   5.389   1.770   7.501  0.0217  0.0444  0.5293
  187SLPC   H6R21547   5.398   1.871   7.456 -3.5281 -0.9811 -2.8244
  187SLPC   H6S21548   5.488   1.720   7.493 -0.0436 -0.0375  0.1957
  187SLPC   C2721549   5.340   1.782   7.645  0.2440  0.3039 -0.3322
  187SLPC   H7R21550   5.282   1.689   7.657  1.4957 -0.5441 -0.6931
  187SLPC   H7S21551   5.275   1.871   7.629 -0.8414 -0.8434 -2.4131
  187SLPC   C2821552   5.453   1.819   7.741 -0.4805  1.1897 -1.1403
  187SLPC   H8R21553   5.419   1.886   7.823  0.7544 -0.8970  1.1490
  187SLPC   H8S21554   5.534   1.876   7.690  0.3327  0.6973 -0.4161
  187SLPC   C2921555   5.513   1.690   7.805  0.0995 -0.4020  0.0626
  187SLPC   H9R21556   5.497   1.609   7.732  0.5864 -0.3446 -0.1107
  187SLPC  C21021557   5.558   1.662   7.928  0.1523  0.5439 -0.2209
  187SLPC  H10R21558   5.616   1.570   7.940 -1.8788 -0.5418  1.5428
  187SLPC  C21121559   5.555   1.763   8.040  0.5645 -0.0443  0.4349
  187SLPC  H11R21560   5.525   1.706   8.131 -0.6367 -0.5495 -0.2564
  187SLPC  H11S21561   5.469   1.833   8.029  0.1895 -0.6933 -0.8489
  187SLPC  C21221562   5.673   1.856   8.055  0.2949  0.6531  0.3345
  187SLPC  H12R21563   5.744   1.864   7.972 -0.7318 -2.1580 -0.8725
  187SLPC  C21321564   5.702   1.931   8.159  0.8792  0.2561  0.0129
  187SLPC  H13R21565   5.782   2.006   8.159 -0.1323  1.3472  0.9149
  187SLPC  C21421566   5.613   1.931   8.291 -0.1165 -0.4146 -0.4419
  187SLPC  H14R21567   5.677   1.903   8.378  1.1684 -1.6989 -1.7663
  187SLPC  H14S21568   5.534   1.853   8.289 -0.3440 -0.2471  1.2152
  187SLPC  C21521569   5.545   2.059   8.327 -0.4885  0.2580  0.7061
  187SLPC  H15R21570   5.497   2.032   8.423  2.7919 -0.4149  2.2348
  187SLPC  H15S21571   5.473   2.097   8.251 -0.0038  1.7071  0.9537
  187SLPC  C21621572   5.654   2.168   8.353 -0.6278 -0.7690  0.7759
  187SLPC  H16R21573   5.707   2.191   8.258 -0.3412  0.6456  1.2561
  187SLPC  H16S21574   5.723   2.129   8.431 -0.0147  0.6229  0.9468
  187SLPC  C21721575   5.592   2.298   8.404  0.1356 -0.2684 -0.4000
  187SLPC  H17R21576   5.499   2.326   8.351 -0.5272  1.0603  1.4338
  187SLPC  H17S21577   5.665   2.377   8.379 -0.3246 -0.1796 -1.4964
  187SLPC  C21821578   5.558   2.289   8.554  0.3035 -0.0357 -0.0579
  187SLPC  H18R21579   5.480   2.215   8.585 -1.0485  0.7461 -1.5231
  187SLPC  H18S21580   5.509   2.386   8.575 -0.7254 -0.1180 -1.9926
  187SLPC  H18T21581   5.648   2.263   8.613 -0.1771  2.4909  1.8729
  187SLPC   C3321582   5.252   1.054   6.986  0.1487  0.5571 -0.1081
  187SLPC   H3X21583   5.177   1.118   7.038 -2.0957 -0.8718 -1.4878
  187SLPC   H3Y21584   5.348   1.110   6.989  0.6449 -0.3220  2.4348
  187SLPC   C3421585   5.266   0.928   7.069  0.3368 -0.1563  0.7640
  187SLPC   H4X21586   5.324   0.936   7.163  0.2397  1.1020  0.7341
  187SLPC   H4Y21587   5.321   0.861   7.000  0.7972  0.9383  0.0500
  187SLPC   C3521588   5.136   0.862   7.104 -0.0559 -0.0591  1.1971
  187SLPC   H5X21589   5.153   0.759   7.140 -0.4105 -0.5709 -0.0719
  187SLPC   H5Y21590   5.069   0.860   7.015 -0.5427 -1.1639  1.5871
  187SLPC   C3621591   5.054   0.930   7.213  0.8874  0.5639 -0.4446
  187SLPC   H6X21592   4.976   0.862   7.253  0.2665  2.7012  2.1603
  187SLPC   H6Y21593   5.008   1.025   7.179 -1.5804 -1.2131 -2.3298
  187SLPC   C3721594   5.137   0.965   7.340  0.1620  0.7245  0.4704
  187SLPC   H7X21595   5.209   0.882   7.356 -0.3587  0.1406 -0.1927
  187SLPC   H7Y21596   5.189   1.060   7.318  1.1561 -0.3715 -2.0417
  187SLPC   C3821597   5.045   0.987   7.464 -0.5803  0.4950 -0.5213
  187SLPC   H8X21598   5.022   0.886   7.504  1.2084  0.9948  1.8802
  187SLPC   H8Y21599   4.950   1.043   7.449  0.2294  2.0130 -0.0941
  187SLPC   C3921600   5.114   1.054   7.584  0.3590  0.6165  0.6021
  187SLPC   H9X21601   5.127   1.161   7.559 -1.7081  0.5265 -1.0709
  187SLPC   H9Y21602   5.210   1.003   7.604  0.4460  0.1553 -0.9420
  187SLPC  C31021603   5.036   1.039   7.726 -0.6951  0.7714  0.2485
  187SLPC  H10X21604   5.025   0.931   7.748  1.4177  0.5392  0.3048
  187SLPC  H10Y21605   4.933   1.077   7.711 -1.5721 -1.2864  0.9070
  187SLPC  C31121606   5.095   1.109   7.844 -0.1966 -0.9359 -0.7296
  187SLPC  H11X21607   5.019   1.141   7.919  1.8828  1.3310  0.4981
  187SLPC  H11Y21608   5.150   1.202   7.822  1.1410 -1.7439 -0.8494
  187SLPC  C31221609   5.191   1.018   7.918  0.2851 -0.0846  0.1440
  187SLPC  H12X21610   5.263   0.969   7.849 -0.8604 -0.7034 -0.6430
  187SLPC  H12Y21611   5.141   0.930   7.964  1.0389 -0.4632  0.2339
  187SLPC  C31321612   5.265   1.072   8.036  0.2025  0.6854  0.2207
  187SLPC  H13X21613   5.197   1.125   8.107 -0.3237 -0.2336  0.4198
  187SLPC  H13Y21614   5.333   1.152   8.000  0.2714  0.9110  0.8386
  187SLPC  C31421615   5.344   0.967   8.121 -0.4933 -0.0874  0.7477
  187SLPC  H14X21616   5.441   0.947   8.070 -0.1240 -0.1547  1.4623
  187SLPC  H14Y21617   5.285   0.875   8.138 -0.7622 -0.3308 -1.3706
  187SLPC  C31521618   5.382   1.022   8.260 -0.5289 -0.3242 -0.1532
  187SLPC  H15X21619   5.304   1.017   8.339  0.2941  0.2331  0.6981
  187SLPC  H15Y21620   5.420   1.126   8.255 -2.6531  0.4901  0.2480
  187SLPC  C31621621   5.497   0.936   8.320 -0.6602  0.4826 -0.2024
  187SLPC  H16X21622   5.582   0.909   8.254 -0.0917 -0.3603  0.8597
  187SLPC  H16Y21623   5.469   0.831   8.340  0.8225  0.7675  3.7499
  187SLPC  C31721624   5.566   1.006   8.439  0.6071  0.6843  0.4385
  187SLPC  H17X21625   5.492   1.024   8.520  0.5332 -1.7322  0.9492
  187SLPC  H17Y21626   5.616   1.101   8.409 -0.3933  0.9499 -0.4188
  187SLPC  C31821627   5.684   0.922   8.493  0.2145 -0.1301  0.0062
  187SLPC  H18X21628   5.753   0.966   8.568  0.9126 -2.5868  0.8487
  187SLPC  H18Y21629   5.745   0.876   8.413 -2.7171 -2.4721 -0.9656
  187SLPC  H18Z21630   5.639   0.836   8.547 -2.4343  2.0207  1.3879
  188SLPC     N21631   6.594   2.885   5.942  0.3359  0.0495  0.0217
  188SLPC   C1321632   6.727   2.903   5.876 -0.2363 -0.4894 -0.2490
  188SLPC  H13A21633   6.754   2.822   5.810 -1.6386 -1.5365  0.4458
  188SLPC  H13B21634   6.730   2.995   5.819 -0.0537 -0.2162  0.1917
  188SLPC  H13C21635   6.808   2.906   5.948  2.5456  1.0663 -3.3065
  188SLPC   C1421636   6.594   2.749   5.996  0.0920 -0.8509  0.0715
  188SLPC  H14A21637   6.657   2.747   6.083  0.4323 -2.5223 -0.1920
  188SLPC  H14B21638   6.492   2.720   6.019  0.4252 -1.4607  0.7868
  188SLPC  H14C21639   6.632   2.680   5.923 -3.5387 -1.9545 -0.9103
  188SLPC   C1521640   6.488   2.901   5.834  0.6173  0.0811 -1.1045
  188SLPC  H15A21641   6.485   3.008   5.824 -0.7565  0.1438 -0.1184
  188SLPC  H15B21642   6.516   2.879   5.732  0.8712 -0.2650 -0.9652
  188SLPC  H15C21643   6.391   2.857   5.854  1.8188 -2.2103 -0.0332
  188SLPC   C1221644   6.579   2.988   6.053  0.3099  0.0006 -0.0409
  188SLPC  H12A21645   6.593   3.089   6.017 -0.7795  0.3052  0.3741
  188SLPC  H12B21646   6.663   2.981   6.121  0.4056 -1.7202 -0.2941
  188SLPC   C1121647   6.443   2.991   6.125 -0.0690 -0.0793  0.2590
  188SLPC  H11A21648   6.363   2.987   6.049  1.3515  0.7923 -1.3254
  188SLPC  H11B21649   6.436   3.093   6.167  0.1432  0.2869 -0.5912
  188SLPC     P21650   6.455   2.904   6.375 -0.0726  0.4683  0.3603
  188SLPC   O1321651   6.450   2.770   6.444 -0.2468 -0.2128  0.1721
  188SLPC   O1421652   6.583   2.975   6.382  0.0537  0.1968  0.3949
  188SLPC   O1221653   6.419   2.892   6.224  0.1508 -0.7778  0.1404
  188SLPC   O1121654   6.343   2.995   6.430  0.2037 -0.1054 -0.1971
  188SLPC    C121655   6.206   2.951   6.446  0.2426  0.8158 -0.1974
  188SLPC    HA21656   6.152   2.983   6.354 -0.5342  2.3874  0.7820
  188SLPC    HB21657   6.196   2.842   6.461 -0.4288  0.9961  0.6710
  188SLPC    C221658   6.134   3.010   6.569  0.5709 -0.3623 -0.2085
  188SLPC    HS21659   6.113   3.118   6.551  1.0860  0.0671  1.6086
  188SLPC   O2121660   6.228   2.989   6.680  0.3512  0.0699 -0.1708
  188SLPC   C2121661   6.282   3.102   6.718  0.3797  0.2916 -0.0169
  188SLPC   O2221662   6.258   3.214   6.690  0.2571 -0.4711 -0.0922
  188SLPC   C2221663   6.399   3.061   6.813  0.2647 -0.2064  0.1378
  188SLPC   H2R21664   6.359   2.983   6.881 -0.0187  0.0062  0.2149
  188SLPC   H2S21665   6.483   3.023   6.751  0.5383 -0.4193  0.6392
  188SLPC    C321666   5.997   2.936   6.594 -0.3171 -0.0625 -0.0303
  188SLPC    HX21667   6.025   2.829   6.581  1.4365  0.3815  0.0528
  188SLPC    HY21668   5.928   2.977   6.517  1.2801  1.2817 -0.7500
  188SLPC   O3121669   5.966   2.935   6.730 -0.8874 -0.0475 -0.4855
  188SLPC   C3121670   5.867   3.021   6.767  0.3435 -0.5001 -0.7168
  188SLPC   O3221671   5.806   3.093   6.688  0.0021 -0.2483  0.0594
  188SLPC   C3221672   5.826   3.000   6.916 -0.0335  0.3026 -0.7237
  188SLPC   H2X21673   5.757   3.082   6.946  2.1203  0.7763  3.3635
  188SLPC   H2Y21674   5.910   3.014   6.988 -0.6744  1.3702 -0.1825
  188SLPC   C2321675   6.463   3.185   6.887 -0.4633 -0.6080  0.4094
  188SLPC   H3R21676   6.497   3.260   6.812  0.5867  0.2468  1.7081
  188SLPC   H3S21677   6.557   3.143   6.929  1.1950  0.0508 -2.4902
  188SLPC   C2421678   6.371   3.267   6.979  0.1299 -0.5058 -0.3231
  188SLPC   H4R21679   6.277   3.292   6.924  0.5564  1.7022 -0.1109
  188SLPC   H4S21680   6.416   3.366   7.002 -2.6721  1.1113 -1.5435
  188SLPC   C2521681   6.335   3.205   7.114 -0.4307  0.3207 -0.1823
  188SLPC   H5R21682   6.425   3.158   7.157 -2.5855 -1.5165  2.4768
  188SLPC   H5S21683   6.263   3.121   7.098  1.7564 -1.8011  0.8838
  188SLPC   C2621684   6.271   3.292   7.218  0.2018 -0.1859  0.1699
  188SLPC   H6R21685   6.166   3.312   7.187  0.0353 -2.7706 -1.0375
  188SLPC   H6S21686   6.321   3.391   7.224 -0.3122  0.0011  1.7227
  188SLPC   C2721687   6.277   3.221   7.359 -0.4415  0.0498 -0.6727
  188SLPC   H7R21688   6.381   3.217   7.397  0.0050 -1.2031 -1.9707
  188SLPC   H7S21689   6.238   3.120   7.336 -1.7060  0.4389 -0.2591
  188SLPC   C2821690   6.193   3.279   7.469  0.3334  0.3388  0.8580
  188SLPC   H8R21691   6.087   3.255   7.446  0.9396 -2.4020  0.8469
  188SLPC   H8S21692   6.204   3.388   7.490  0.5316  0.5699 -0.4441
  188SLPC   C2921693   6.231   3.197   7.587 -0.4083  0.3293 -0.0411
  188SLPC   H9R21694   6.322   3.230   7.640 -0.2765  1.2263 -0.8059
  188SLPC  C21021695   6.167   3.101   7.646  0.6435 -0.0365  0.3047
  188SLPC  H10R21696   6.214   3.047   7.730 -0.1327  1.5702  1.8074
  188SLPC  C21121697   6.035   3.049   7.599 -0.3186 -0.1209 -0.1748
  188SLPC  H11R21698   6.062   2.975   7.520 -0.5239 -1.0225  0.5941
  188SLPC  H11S21699   5.979   3.133   7.555 -1.0445 -0.5081  0.0054
  188SLPC  C21221700   5.948   2.991   7.713 -0.2454  0.1585  0.2815
  188SLPC  H12R21701   5.912   3.062   7.790 -3.3699  0.3953 -1.3056
  188SLPC  C21321702   5.894   2.873   7.725  0.2873  0.8423 -0.4103
  188SLPC  H13R21703   5.828   2.849   7.810 -0.2663  2.0365 -0.4958
  188SLPC  C21421704   5.916   2.766   7.625  0.5413 -0.5415 -0.4076
  188SLPC  H14R21705   6.019   2.729   7.648  0.8171  0.6411  0.3356
  188SLPC  H14S21706   5.914   2.797   7.518 -0.3882 -1.8772 -0.7868
  188SLPC  C21521707   5.810   2.657   7.635 -0.2878  0.1683 -0.0040
  188SLPC  H15R21708   5.711   2.703   7.614 -1.2826 -0.2881  3.3829
  188SLPC  H15S21709   5.804   2.622   7.740 -1.6236  0.4975  0.0432
  188SLPC  C21621710   5.831   2.538   7.542  0.5883  0.4047 -1.2989
  188SLPC  H16R21711   5.769   2.455   7.582  1.0960  0.4712 -0.3811
  188SLPC  H16S21712   5.932   2.492   7.538  1.0558  1.4769 -2.5450
  188SLPC  C21721713   5.769   2.569   7.406  0.5064  1.3131  1.2468
  188SLPC  H17R21714   5.804   2.661   7.356 -0.6571  1.1267  0.0559
  188SLPC  H17S21715   5.662   2.586   7.432  0.4914  2.4899  0.4236
  188SLPC  C21821716   5.799   2.448   7.315 -0.0422  0.3813  0.3393
  188SLPC  H18R21717   5.763   2.357   7.368  1.3125  0.4647  1.4406
  188SLPC  H18S21718   5.906   2.445   7.288  0.1628 -0.6741  1.2515
  188SLPC  H18T21719   5.750   2.455   7.216 -0.6839  2.5487  0.7735
  188SLPC   C3321720   5.775   2.860   6.942 -0.4803 -0.1446 -0.4032
  188SLPC   H3X21721   5.859   2.795   6.910 -0.9607 -0.2370 -1.5168
  188SLPC   H3Y21722   5.702   2.841   6.860  0.9313  1.7986 -2.1529
  188SLPC   C3421723   5.719   2.847   7.083 -0.1970 -0.1464 -0.0185
  188SLPC   H4X21724   5.786   2.897   7.156  0.0305 -0.0992 -0.2620
  188SLPC   H4Y21725   5.704   2.740   7.109 -3.2489 -0.1196 -1.4134
  188SLPC   C3521726   5.586   2.918   7.094  0.3273 -0.3262 -0.4912
  188SLPC   H5X21727   5.523   2.900   7.004 -0.4401  1.1729 -0.2863
  188SLPC   H5Y21728   5.600   3.028   7.106  0.5558 -0.0587 -2.9361
  188SLPC   C3621729   5.518   2.872   7.225  0.2910  0.0989 -0.7197
  188SLPC   H6X21730   5.506   2.763   7.236  0.7567  0.0133 -1.0648
  188SLPC   H6Y21731   5.409   2.897   7.227  0.3917  0.5899 -1.4010
  188SLPC   C3721732   5.591   2.930   7.350  0.0882  0.3657  0.2386
  188SLPC   H7X21733   5.616   3.038   7.340  0.2421  0.0892 -2.7809
  188SLPC   H7Y21734   5.684   2.870   7.361 -0.0915  0.1080  0.3545
  188SLPC   C3821735   5.513   2.900   7.479  0.0721 -0.0902  0.7096
  188SLPC   H8X21736   5.520   2.790   7.497 -2.7016 -0.7243 -1.6957
  188SLPC   H8Y21737   5.404   2.909   7.462  0.5972  0.3781 -2.6794
  188SLPC   C3921738   5.557   2.985   7.596 -0.0132  0.4945  0.0285
  188SLPC   H9X21739   5.533   3.092   7.576 -0.7270  0.4291  0.5131
  188SLPC   H9Y21740   5.666   2.993   7.611  0.1745 -1.8378  0.0527
  188SLPC  C31021741   5.487   2.933   7.723 -0.3129 -0.2812 -0.1454
  188SLPC  H10X21742   5.515   2.826   7.732  0.8203  0.0127 -0.1215
  188SLPC  H10Y21743   5.378   2.948   7.712 -0.1295  2.2438  1.0483
  188SLPC  C31121744   5.522   3.021   7.840 -0.1255 -0.4359 -0.5223
  188SLPC  H11X21745   5.628   3.054   7.847 -0.4510  0.5057  0.0477
  188SLPC  H11Y21746   5.503   2.965   7.934  0.9566  1.4224  0.8400
  188SLPC  C31221747   5.434   3.149   7.841 -0.1851  0.2496 -0.1912
  188SLPC  H12X21748   5.329   3.119   7.819 -0.5663  2.2634 -1.2132
  188SLPC  H12Y21749   5.483   3.213   7.765  0.1244  0.6569  0.3425
  188SLPC  C31321750   5.425   3.228   7.973  0.4558  0.0620 -0.0038
  188SLPC  H13X21751   5.418   3.157   8.057 -2.7327 -1.3141 -1.3579
  188SLPC  H13Y21752   5.335   3.293   7.976 -0.6125 -1.3610 -0.5158
  188SLPC  C31421753   5.547   3.313   7.997  0.0040  0.5436  0.2922
  188SLPC  H14X21754   5.525   3.414   7.956  0.8644 -0.3473 -2.4765
  188SLPC  H14Y21755   5.635   3.282   7.937 -1.5655 -0.9316 -1.2900
  188SLPC  C31521756   5.568   3.333   8.146  0.5428  0.0407 -0.5267
  188SLPC  H15X21757   5.572   3.228   8.183  0.9601  0.7498  1.5065
  188SLPC  H15Y21758   5.483   3.380   8.198  1.4104 -0.3440  1.2858
  188SLPC  C31621759   5.693   3.423   8.173  0.7105 -0.3110 -0.0791
  188SLPC  H16X21760   5.681   3.462   8.277 -1.1427  0.8256 -0.6857
  188SLPC  H16Y21761   5.681   3.512   8.108 -1.2299 -0.4641  0.0135
  188SLPC  C31721762   5.828   3.344   8.163 -0.5187  0.1307 -0.4432
  188SLPC  H17X21763   5.836   3.313   8.057  0.9981  1.0130 -0.6058
  188SLPC  H17Y21764   5.820   3.247   8.217  0.1995  1.3977  2.0619
  188SLPC  C31821765   5.959   3.417   8.210 -0.5040  0.4803  0.0757
  188SLPC  H18X21766   6.043   3.350   8.182 -0.7692 -0.3781  1.3221
  188SLPC  H18Y21767   5.953   3.434   8.320  3.0827  0.1739  0.3622
  188SLPC  H18Z21768   5.965   3.517   8.160 -2.4572  0.5244 -0.1105
  189SLPC     N21769   1.645   5.763   6.365  0.2907 -0.5825 -0.4328
  189SLPC   C1321770   1.507   5.808   6.396  0.4020 -0.4796  0.0853
  189SLPC  H13A21771   1.432   5.730   6.400  1.2738 -1.2210  2.4569
  189SLPC  H13B21772   1.498   5.842   6.498 -0.7984 -0.8559  0.1124
  189SLPC  H13C21773   1.472   5.886   6.330 -1.6588  1.7871  3.6424
  189SLPC   C1421774   1.743   5.875   6.369  0.9282  0.2613  0.4000
  189SLPC  H14A21775   1.711   5.949   6.296 -0.4192 -0.9979 -0.3142
  189SLPC  H14B21776   1.744   5.931   6.461  0.4542  0.7380  0.1168
  189SLPC  H14C21777   1.840   5.841   6.338 -0.0179 -1.3379 -0.9018
  189SLPC   C1521778   1.649   5.696   6.235 -0.0931  0.0968  0.1676
  189SLPC  H15A21779   1.610   5.769   6.165  1.0243  1.6440  1.1238
  189SLPC  H15B21780   1.748   5.670   6.199 -0.1500 -0.2137  0.2345
  189SLPC  H15C21781   1.591   5.605   6.234  2.2349 -1.5172  2.6081
  189SLPC   C1221782   1.685   5.664   6.475  0.4911 -0.0383 -0.3871
  189SLPC  H12A21783   1.609   5.589   6.489  0.6075 -0.0481  0.2496
  189SLPC  H12B21784   1.687   5.710   6.573 -1.6138  0.4666 -0.5707
  189SLPC   C1121785   1.828   5.605   6.462 -0.1389  1.0295 -0.0499
  189SLPC  H11A21786   1.902   5.651   6.530 -0.6000 -1.0000  1.8747
  189SLPC  H11B21787   1.876   5.611   6.362  0.4202 -0.8273  0.0870
  189SLPC     P21788   1.815   5.347   6.392 -0.4619 -0.2797  0.0077
  189SLPC   O1321789   1.690   5.340   6.311  0.2387  0.3538 -0.5686
  189SLPC   O1421790   1.943   5.366   6.313 -0.5344 -0.1699 -0.4515
  189SLPC   O1221791   1.809   5.462   6.497  0.0732  0.3829 -0.2406
  189SLPC   O1121792   1.836   5.215   6.480 -0.0345 -0.2879 -0.4555
  189SLPC    C121793   1.877   5.218   6.617 -0.8515  0.2492  0.6620
  189SLPC    HA21794   1.929   5.124   6.645 -0.4724  0.8743  2.0812
  189SLPC    HB21795   1.940   5.304   6.648  0.7626 -0.6208 -0.1599
  189SLPC    C221796   1.748   5.219   6.707 -0.3579 -0.1404  0.1487
  189SLPC    HS21797   1.700   5.317   6.692 -1.5529 -0.7626 -0.1609
  189SLPC   O2121798   1.789   5.189   6.844  0.2750 -0.3334 -0.0012
  189SLPC   C2121799   1.740   5.268   6.933 -0.7970  0.2662 -0.4274
  189SLPC   O2221800   1.657   5.355   6.917  0.2037 -0.3752 -0.2392
  189SLPC   C2221801   1.804   5.241   7.070  0.4071 -0.5594  0.3651
  189SLPC   H2R21802   1.791   5.131   7.085 -0.6368 -0.6921 -1.2777
  189SLPC   H2S21803   1.913   5.254   7.053  0.5506 -0.1838  1.5709
  189SLPC    C321804   1.655   5.115   6.660  0.7045  0.5648 -0.0405
  189SLPC    HX21805   1.714   5.022   6.673  1.3234  1.0693  0.8083
  189SLPC    HY21806   1.639   5.128   6.551  0.2611 -1.2151 -0.1984
  189SLPC   O3121807   1.533   5.107   6.736  0.0746 -0.0878 -0.3338
  189SLPC   C3121808   1.425   5.156   6.681 -0.5167  0.3886 -0.0161
  189SLPC   O3221809   1.414   5.232   6.588 -0.3036 -0.1943 -0.3543
  189SLPC   C3221810   1.309   5.126   6.779  0.0552  0.1456 -0.3140
  189SLPC   H2X21811   1.338   5.061   6.865 -1.1136  0.2686  0.1875
  189SLPC   H2Y21812   1.232   5.073   6.719  0.7794 -0.2267 -0.9370
  189SLPC   C2321813   1.743   5.328   7.183 -0.4848 -0.4295  0.1364
  189SLPC   H3R21814   1.633   5.310   7.178 -0.4814 -0.4574  0.1656
  189SLPC   H3S21815   1.761   5.436   7.166 -1.2108 -0.4725 -0.9748
  189SLPC   C2421816   1.783   5.287   7.327 -0.6124  0.1332  0.2578
  189SLPC   H4R21817   1.894   5.282   7.322 -0.4040  2.1125  1.9681
  189SLPC   H4S21818   1.756   5.180   7.338  2.9333 -0.7264  1.1737
  189SLPC   C2521819   1.713   5.378   7.433  0.1968  0.7803  0.5424
  189SLPC   H5R21820   1.603   5.365   7.421  0.4296 -1.9774  1.0945
  189SLPC   H5S21821   1.725   5.481   7.392  0.4695  0.6476  0.2851
  189SLPC   C2621822   1.754   5.359   7.578 -0.2383  0.7411  0.0793
  189SLPC   H6R21823   1.853   5.402   7.604  0.3614 -0.8021  0.3609
  189SLPC   H6S21824   1.747   5.253   7.609  0.2397  0.2723 -1.3779
  189SLPC   C2721825   1.659   5.441   7.673 -0.4818 -0.3843  0.8854
  189SLPC   H7R21826   1.552   5.414   7.662  0.1431 -1.9246 -2.0376
  189SLPC   H7S21827   1.674   5.548   7.650  2.2488 -1.3360 -2.1228
  189SLPC   C2821828   1.704   5.401   7.820 -0.0456  0.3629  0.1633
  189SLPC   H8R21829   1.782   5.469   7.860 -0.9630  0.9313  1.0164
  189SLPC   H8S21830   1.739   5.295   7.817  0.6032  0.5793 -0.0499
  189SLPC   C2921831   1.584   5.384   7.910  0.0995  0.4428 -0.1335
  189SLPC   H9R21832   1.499   5.320   7.881 -1.1872  2.4599 -0.9442
  189SLPC  C21021833   1.574   5.448   8.029  0.1557  0.6627 -0.3711
  189SLPC  H10R21834   1.480   5.419   8.077  0.7200  0.3843  0.5686
  189SLPC  C21121835   1.658   5.541   8.110 -0.6419  0.2636  0.5613
  189SLPC  H11R21836   1.764   5.529   8.076 -1.3264 -0.9932 -1.2711
  189SLPC  H11S21837   1.660   5.503   8.214 -1.3805 -0.5854  0.2774
  189SLPC  C21221838   1.613   5.681   8.123 -0.8949 -0.9544  0.2959
  189SLPC  H12R21839   1.676   5.751   8.065  0.5289 -2.0413  0.5076
  189SLPC  C21321840   1.516   5.739   8.195  0.1184 -0.1219  0.6795
  189SLPC  H13R21841   1.511   5.849   8.205 -0.4298 -0.2346  1.6683
  189SLPC  C21421842   1.424   5.665   8.283 -0.3126  0.3611 -0.4917
  189SLPC  H14R21843   1.445   5.556   8.299  0.4357  0.2722 -2.0067
  189SLPC  H14S21844   1.320   5.662   8.246 -0.3752 -1.7061 -0.2370
  189SLPC  C21521845   1.416   5.734   8.421 -0.7041 -0.2275  0.6712
  189SLPC  H15R21846   1.388   5.841   8.413  1.2298  0.2743  0.2094
  189SLPC  H15S21847   1.514   5.737   8.473 -0.5666 -0.8365  0.4483
  189SLPC  C21621848   1.317   5.663   8.499  0.5798 -0.5530 -0.1685
  189SLPC  H16R21849   1.333   5.554   8.515 -0.6625 -1.0060 -1.9372
  189SLPC  H16S21850   1.221   5.658   8.445  1.8575  2.2032 -2.8155
  189SLPC  C21721851   1.288   5.735   8.628 -0.1615 -0.2327  0.8713
  189SLPC  H17R21852   1.281   5.845   8.614 -1.6150 -0.6061 -1.4731
  189SLPC  H17S21853   1.369   5.710   8.701  1.4943  1.0253 -0.4793
  189SLPC  C21821854   1.152   5.689   8.683  0.2002  0.2703 -0.0150
  189SLPC  H18R21855   1.077   5.762   8.645  0.0106 -0.2843 -0.7239
  189SLPC  H18S21856   1.155   5.689   8.794 -0.3165 -2.8121  0.0304
  189SLPC  H18T21857   1.136   5.584   8.651 -0.6972  0.1001  0.9866
  189SLPC   C3321858   1.250   5.261   6.829  0.1256  0.5766  0.2682
  189SLPC   H3X21859   1.193   5.309   6.746 -0.2526 -0.2005  0.0762
  189SLPC   H3Y21860   1.337   5.326   6.853  0.3158  0.7006 -0.7286
  189SLPC   C3421861   1.161   5.259   6.953  0.3750 -0.4735  0.5104
  189SLPC   H4X21862   1.062   5.219   6.923  0.4182 -1.0829  1.1838
  189SLPC   H4Y21863   1.147   5.360   6.998  0.4144  0.1359 -0.8156
  189SLPC   C3521864   1.207   5.174   7.071 -0.5442  0.7269 -0.1661
  189SLPC   H5X21865   1.318   5.176   7.068 -0.5141 -0.9216 -0.7194
  189SLPC   H5Y21866   1.182   5.068   7.049  0.6766  0.5320 -0.6622
  189SLPC   C3621867   1.141   5.211   7.204  0.3613  0.1320 -0.3598
  189SLPC   H6X21868   1.150   5.129   7.278 -1.0075  2.2400  2.2286
  189SLPC   H6Y21869   1.035   5.241   7.189 -0.0378 -1.3924 -0.6570
  189SLPC   C3721870   1.211   5.325   7.270  0.0772  0.0196  0.0154
  189SLPC   H7X21871   1.194   5.414   7.206  0.8978  0.4361  0.3633
  189SLPC   H7Y21872   1.317   5.291   7.263 -0.2242 -0.9192 -0.0854
  189SLPC   C3821873   1.174   5.354   7.413  0.5555 -0.7835 -0.5578
  189SLPC   H8X21874   1.152   5.263   7.472  0.8577 -0.9206 -0.6513
  189SLPC   H8Y21875   1.078   5.410   7.409  1.4411  0.6740 -2.7633
  189SLPC   C3921876   1.284   5.421   7.493  0.0695 -0.6048 -0.5037
  189SLPC   H9X21877   1.329   5.505   7.435  0.6529  1.3373  2.6257
  189SLPC   H9Y21878   1.371   5.352   7.499  0.1375 -0.3698  1.4646
  189SLPC  C31021879   1.257   5.486   7.625  0.6052  0.1427  0.0621
  189SLPC  H10X21880   1.175   5.560   7.613  0.0022 -0.6117 -0.5352
  189SLPC  H10Y21881   1.347   5.543   7.657 -0.3382  1.5490  0.2615
  189SLPC  C31121882   1.234   5.394   7.750  0.0445  0.2606  0.6634
  189SLPC  H11X21883   1.326   5.331   7.757  0.2756  0.8050  3.0456
  189SLPC  H11Y21884   1.142   5.334   7.735 -0.1201  0.9542 -1.2796
  189SLPC  C31221885   1.227   5.465   7.889 -0.4650 -0.4263  1.1506
  189SLPC  H12X21886   1.152   5.546   7.898 -1.6361 -0.9669 -2.7444
  189SLPC  H12Y21887   1.322   5.511   7.923 -1.1595  1.2927  0.7756
  189SLPC  C31321888   1.176   5.366   7.998  0.5550 -0.6885  0.2138
  189SLPC  H13X21889   1.256   5.289   8.005  2.6730  1.3897 -0.6331
  189SLPC  H13Y21890   1.079   5.328   7.960 -1.0918 -0.9215  4.3161
  189SLPC  C31421891   1.139   5.427   8.134 -0.1031  0.1482  0.1020
  189SLPC  H14X21892   1.226   5.493   8.156 -0.0761 -0.0639  0.6397
  189SLPC  H14Y21893   1.127   5.348   8.210 -2.0252  0.3090 -0.0045
  189SLPC  C31521894   1.008   5.516   8.125  0.2956  0.7503 -1.0692
  189SLPC  H15X21895   1.031   5.598   8.053  1.0863 -0.6364 -2.4139
  189SLPC  H15Y21896   0.980   5.563   8.222 -0.5664 -1.1300 -0.4018
  189SLPC  C31621897   0.871   5.444   8.095  0.4073  0.3810  0.2612
  189SLPC  H16X21898   0.860   5.348   8.149  0.6924 -0.4050 -1.0691
  189SLPC  H16Y21899   0.878   5.411   7.989 -0.2820 -2.1032  0.9726
  189SLPC  C31721900   0.745   5.533   8.128  0.9304 -1.0735  0.2280
  189SLPC  H17X21901   0.739   5.548   8.237 -0.5263 -0.9505  0.1380
  189SLPC  H17Y21902   0.651   5.480   8.102 -0.8883  3.0348 -2.1581
  189SLPC  C31821903   0.742   5.663   8.044  0.1088  0.5872  0.6125
  189SLPC  H18X21904   0.821   5.732   8.081 -0.0673  1.6226 -0.8533
  189SLPC  H18Y21905   0.641   5.708   8.061  0.1558  1.3052 -0.8926
  189SLPC  H18Z21906   0.748   5.647   7.934 -2.6955 -0.4589  0.5717
  190SLPC     N21907   2.118   4.950   6.227 -0.3916  1.1490  0.4487
  190SLPC   C1321908   2.217   5.029   6.144  0.2388 -0.0480 -0.4599
  190SLPC  H13A21909   2.165   5.116   6.108  0.7441 -0.3871 -2.0559
  190SLPC  H13B21910   2.308   5.059   6.192 -0.2789 -0.9165  1.0914
  190SLPC  H13C21911   2.239   4.964   6.060 -0.8746 -0.5517 -0.3762
  190SLPC   C1421912   1.997   4.923   6.147  0.5899 -0.3866 -0.1497
  190SLPC  H14A21913   1.956   4.831   6.186  1.2922 -0.9525 -0.7158
  190SLPC  H14B21914   1.924   5.003   6.148  0.7672 -0.2325  0.4469
  190SLPC  H14C21915   2.015   4.913   6.041 -3.4444 -1.2355 -0.8368
  190SLPC   C1521916   2.073   5.035   6.341 -0.3759  0.6991  0.5849
  190SLPC  H15A21917   2.160   5.059   6.400  0.8979  1.2679 -1.4847
  190SLPC  H15B21918   2.034   5.128   6.304 -4.0175 -1.8649 -2.4828
  190SLPC  H15C21919   2.006   4.974   6.400  1.0417 -2.8614 -1.3092
  190SLPC   C1221920   2.177   4.817   6.275 -0.4399 -0.4609 -0.1166
  190SLPC  H12A21921   2.267   4.848   6.326 -2.0014  0.2259  2.3326
  190SLPC  H12B21922   2.193   4.754   6.189 -0.3945 -0.6183  0.0074
  190SLPC   C1121923   2.092   4.741   6.383 -0.6877  0.1977  0.2429
  190SLPC  H11A21924   2.068   4.803   6.473 -1.3975  2.5541 -1.5085
  190SLPC  H11B21925   2.160   4.672   6.438  0.3246  0.4365 -0.6747
  190SLPC     P21926   2.022   4.522   6.261 -0.2624 -0.1920 -0.0688
  190SLPC   O1321927   1.898   4.476   6.190 -0.6387  0.5044  0.6863
  190SLPC   O1421928   2.142   4.532   6.176 -0.4397  0.4865 -0.1969
  190SLPC   O1221929   1.988   4.669   6.316  0.1739 -0.0339  0.4244
  190SLPC   O1121930   2.051   4.433   6.383  0.3007 -0.5899 -0.3086
  190SLPC    C121931   2.015   4.291   6.391 -0.1031 -0.2187 -0.2970
  190SLPC    HA21932   2.010   4.246   6.289 -2.2286  1.0946 -0.8105
  190SLPC    HB21933   2.089   4.234   6.452 -1.1889 -1.1048  0.2103
  190SLPC    C221934   1.879   4.261   6.468  0.0726  1.0153  0.0297
  190SLPC    HS21935   1.803   4.321   6.414  0.2724 -0.1372 -1.5546
  190SLPC   O2121936   1.900   4.299   6.608  0.2964  0.5451  0.6597
  190SLPC   C2121937   1.800   4.365   6.666  0.2038  0.1223  0.7493
  190SLPC   O2221938   1.701   4.419   6.613 -0.4563  0.3190  0.6224
  190SLPC   C2221939   1.838   4.376   6.812  0.7885 -0.0034  0.0215
  190SLPC   H2R21940   1.930   4.316   6.831  0.2067 -0.7567  0.4578
  190SLPC   H2S21941   1.872   4.482   6.823  0.1414  0.2982 -0.8087
  190SLPC    C321942   1.820   4.128   6.460 -0.1670 -0.3314  0.0941
  190SLPC    HX21943   1.883   4.053   6.512  0.2490 -1.2833 -1.7207
  190SLPC    HY21944   1.795   4.107   6.353 -0.7929  1.4409 -0.1249
  190SLPC   O3121945   1.692   4.131   6.527  0.4747  0.2642 -0.0258
  190SLPC   C3121946   1.649   4.008   6.558  0.3708 -0.4583  0.6607
  190SLPC   O3221947   1.701   3.900   6.542  0.5079  0.2192  0.4581
  190SLPC   C3221948   1.506   4.020   6.627  0.2245  0.0564  0.7862
  190SLPC   H2X21949   1.426   4.036   6.552 -0.3397 -2.6093  0.7599
  190SLPC   H2Y21950   1.504   4.099   6.705 -1.3198  0.3597  0.4523
  190SLPC   C2321951   1.732   4.337   6.921 -0.5787 -0.0930 -0.4366
  190SLPC   H3R21952   1.636   4.376   6.882 -0.0473  0.0356 -1.6551
  190SLPC   H3S21953   1.755   4.400   7.009 -0.4617  0.8133 -1.1090
  190SLPC   C2421954   1.719   4.188   6.947 -0.7864 -0.5656 -0.3309
  190SLPC   H4R21955   1.806   4.144   7.000 -0.4362  0.4096 -0.0773
  190SLPC   H4S21956   1.689   4.139   6.852  0.5600  0.0981 -1.1137
  190SLPC   C2521957   1.599   4.138   7.037 -0.6113  0.2949  0.0636
  190SLPC   H5R21958   1.520   4.159   6.962  2.1562  1.5407 -2.5874
  190SLPC   H5S21959   1.589   4.212   7.120 -1.2186 -0.5063  0.7138
  190SLPC   C2621960   1.620   3.996   7.085  0.1572 -0.3712 -0.3515
  190SLPC   H6R21961   1.710   3.992   7.150  0.0860 -1.6835 -0.3294
  190SLPC   H6S21962   1.633   3.932   6.995 -2.5919 -1.2692 -0.1489
  190SLPC   C2721963   1.519   3.940   7.181 -0.6603  0.5140 -0.4958
  190SLPC   H7R21964   1.564   3.842   7.208 -0.1002  0.2857 -2.1851
  190SLPC   H7S21965   1.425   3.922   7.124 -1.1018  0.0737  0.3697
  190SLPC   C2821966   1.502   4.009   7.321 -0.7336 -0.8518 -0.1895
  190SLPC   H8R21967   1.408   3.964   7.361  0.3163 -0.7145  2.5786
  190SLPC   H8S21968   1.479   4.115   7.295  2.6388 -0.4715 -1.8234
  190SLPC   C2921969   1.612   3.998   7.421  0.1185  0.8498 -0.2189
  190SLPC   H9R21970   1.711   4.030   7.385  0.8406 -0.1502  0.8502
  190SLPC  C21021971   1.610   3.938   7.542 -0.3169  1.0497  0.0803
  190SLPC  H10R21972   1.702   3.913   7.597 -0.7085  2.0694  1.2216
  190SLPC  C21121973   1.487   3.885   7.615  0.5359  0.1193  0.0740
  190SLPC  H11R21974   1.401   3.889   7.545 -1.2092 -1.3376  2.1131
  190SLPC  H11S21975   1.466   3.956   7.698  1.6780 -2.5546  2.7485
  190SLPC  C21221976   1.496   3.749   7.667  0.4596 -0.3087  0.6100
  190SLPC  H12R21977   1.488   3.667   7.594  0.4530 -0.1076  0.3840
  190SLPC  C21321978   1.551   3.717   7.782 -0.5774  0.2873 -0.2683
  190SLPC  H13R21979   1.583   3.612   7.792 -1.3466  0.1903  1.2704
  190SLPC  C21421980   1.601   3.817   7.880 -0.4867  0.5409 -0.9853
  190SLPC  H14R21981   1.521   3.835   7.955 -0.0098  1.8797 -0.7880
  190SLPC  H14S21982   1.608   3.919   7.836 -2.2635  1.7292  1.3694
  190SLPC  C21521983   1.733   3.803   7.950 -0.0202  0.0083  0.8303
  190SLPC  H15R21984   1.764   3.902   7.989 -1.1616  0.7535 -0.0979
  190SLPC  H15S21985   1.806   3.774   7.872 -1.3127 -2.7389  0.6049
  190SLPC  C21621986   1.723   3.697   8.067  0.5675 -0.3908 -0.0970
  190SLPC  H16R21987   1.694   3.597   8.027  0.1030 -0.1280 -0.4287
  190SLPC  H16S21988   1.645   3.719   8.144 -0.8426 -1.7749 -1.0785
  190SLPC  C21721989   1.861   3.668   8.123 -0.2543 -0.1675  0.1530
  190SLPC  H17R21990   1.916   3.762   8.143  1.5011 -1.1038 -0.2479
  190SLPC  H17S21991   1.918   3.615   8.045 -0.3306  0.6900 -0.4890
  190SLPC  C21821992   1.846   3.588   8.259 -0.3630  0.2862  0.4709
  190SLPC  H18R21993   1.945   3.567   8.307 -0.2405 -0.6104 -0.1482
  190SLPC  H18S21994   1.788   3.494   8.243  1.0870 -0.4745 -0.4630
  190SLPC  H18T21995   1.794   3.647   8.337 -0.4185  2.7431 -1.3903
  190SLPC   C3321996   1.469   3.896   6.711 -0.7319 -0.1856 -0.1599
  190SLPC   H3X21997   1.553   3.877   6.782  0.0141 -1.0673 -1.2447
  190SLPC   H3Y21998   1.443   3.809   6.647 -0.8253  0.0504 -0.4397
  190SLPC   C3421999   1.343   3.910   6.793  0.3484  0.3471 -0.5448
  190SLPC   H4X22000   1.264   3.968   6.741 -0.6318 -0.5074 -0.0298
  190SLPC   H4Y22001   1.372   3.953   6.891  0.4362 -0.2979 -0.2845
  190SLPC   C3522002   1.270   3.778   6.818  0.5523 -0.7359 -0.0412
  190SLPC   H5X22003   1.326   3.705   6.881  0.7162  0.1606  0.8611
  190SLPC   H5Y22004   1.260   3.726   6.720  1.9540 -2.4248  0.6870
  190SLPC   C3622005   1.134   3.795   6.895  0.7203 -0.0458  0.1205
  190SLPC   H6X22006   1.079   3.701   6.874  1.4840 -0.1923 -1.3058
  190SLPC   H6Y22007   1.077   3.877   6.848  1.3445  0.5812  0.4514
  190SLPC   C3722008   1.152   3.831   7.040 -0.1049 -0.3314  0.1739
  190SLPC   H7X22009   1.183   3.937   7.032  1.0880 -0.6770  0.2609
  190SLPC   H7Y22010   1.223   3.762   7.089 -1.2472 -3.0892 -1.9325
  190SLPC   C3822011   1.021   3.832   7.120  0.2300  0.5312 -0.2756
  190SLPC   H8X22012   1.002   3.724   7.136 -0.9159  1.0987  2.3875
  190SLPC   H8Y22013   0.929   3.871   7.071 -0.6787 -2.7354 -1.2653
  190SLPC   C3922014   1.054   3.877   7.266  0.6710  0.6909  0.0850
  190SLPC   H9X22015   1.111   3.971   7.257 -0.1884  1.0198 -2.1283
  190SLPC   H9Y22016   1.111   3.809   7.332 -0.4703 -2.8269 -2.3940
  190SLPC  C31022017   0.927   3.902   7.350 -0.2223 -0.2750  0.2893
  190SLPC  H10X22018   0.859   3.814   7.348 -0.4092 -0.1401  0.5520
  190SLPC  H10Y22019   0.863   3.973   7.293  1.1747 -0.9371 -2.1627
  190SLPC  C31122020   0.940   3.946   7.492  1.1999  0.0571 -0.4608
  190SLPC  H11X22021   0.844   3.945   7.548  1.1188  0.9086 -0.5699
  190SLPC  H11Y22022   0.970   4.053   7.484  0.2352  0.3864  0.2165
  190SLPC  C31222023   1.030   3.856   7.577  0.4358 -0.2198 -0.0229
  190SLPC  H12X22024   1.138   3.866   7.554  0.2549 -1.6091 -1.5760
  190SLPC  H12Y22025   1.001   3.753   7.549  1.1186 -0.7377  1.1453
  190SLPC  C31322026   1.025   3.892   7.725 -0.0540  0.7778  0.6134
  190SLPC  H13X22027   0.924   3.857   7.755 -0.9166 -0.6591 -3.6419
  190SLPC  H13Y22028   1.027   4.002   7.741 -1.2477  0.6265  1.8137
  190SLPC  C31422029   1.127   3.820   7.816 -0.5744 -0.6663 -0.0819
  190SLPC  H14X22030   1.233   3.841   7.791  0.0140 -0.9050  2.1551
  190SLPC  H14Y22031   1.113   3.711   7.801  1.8005 -0.7019 -2.4208
  190SLPC  C31522032   1.092   3.844   7.962 -0.5411 -0.3134 -0.2811
  190SLPC  H15X22033   0.988   3.815   7.983 -0.7909  0.7519  0.0038
  190SLPC  H15Y22034   1.092   3.952   7.989 -0.5740  0.0302 -1.6351
  190SLPC  C31622035   1.192   3.786   8.062 -0.0262  0.2466  0.1738
  190SLPC  H16X22036   1.298   3.815   8.048  0.3943 -1.3213  0.0421
  190SLPC  H16Y22037   1.196   3.678   8.034 -0.8551 -0.0256  1.0870
  190SLPC  C31722038   1.145   3.823   8.212 -0.2478  0.2337 -0.3628
  190SLPC  H17X22039   1.037   3.801   8.211 -0.5043  1.4134  0.3887
  190SLPC  H17Y22040   1.153   3.933   8.217 -2.8027  0.3670  1.7226
  190SLPC  C31822041   1.214   3.750   8.322  0.3797  0.1029 -0.4853
  190SLPC  H18X22042   1.176   3.780   8.422  2.4097  0.4312  0.2045
  190SLPC  H18Y22043   1.320   3.773   8.301 -0.1293  3.0492 -0.0868
  190SLPC  H18Z22044   1.204   3.641   8.306 -0.7426  0.1036  0.1210
  191SLPC     N22045   0.987   6.704   5.640 -0.6064 -0.4287 -0.1493
  191SLPC   C1322046   0.974   6.771   5.779  0.1395 -0.6290 -0.1997
  191SLPC  H13A22047   1.073   6.767   5.822  1.1928 -1.8705 -2.6372
  191SLPC  H13B22048   0.940   6.873   5.779  1.1508 -0.2787 -1.6941
  191SLPC  H13C22049   0.908   6.712   5.841  1.1383 -2.8472 -1.1940
  191SLPC   C1422050   1.090   6.772   5.562  0.6646 -0.2428 -0.0306
  191SLPC  H14A22051   1.052   6.870   5.537 -1.6856 -0.5342  2.1398
  191SLPC  H14B22052   1.180   6.780   5.621  0.2659 -0.2725  0.5829
  191SLPC  H14C22053   1.107   6.720   5.469 -0.1278  1.8393 -1.3858
  191SLPC   C1522054   0.860   6.720   5.563 -0.2462 -0.7873  0.0562
  191SLPC  H15A22055   0.770   6.707   5.621 -1.0141 -2.5968 -1.5068
  191SLPC  H15B22056   0.843   6.819   5.523 -2.1279 -0.5993  1.2429
  191SLPC  H15C22057   0.865   6.651   5.481 -0.7738 -1.5001  0.6178
  191SLPC   C1222058   1.023   6.560   5.666 -0.1446 -0.2177  0.7460
  191SLPC  H12A22059   1.105   6.576   5.734 -0.1834  0.5803  0.6120
  191SLPC  H12B22060   1.055   6.510   5.576  0.2613 -0.4265  1.0035
  191SLPC   C1122061   0.915   6.471   5.727  0.3899 -0.2740 -0.1690
  191SLPC  H11A22062   0.943   6.363   5.718  0.0874 -0.2534 -1.4542
  191SLPC  H11B22063   0.823   6.479   5.665 -1.3126 -0.6816  2.1977
  191SLPC     P22064   0.952   6.444   5.986  0.4375 -0.1709 -0.2948
  191SLPC   O1322065   1.013   6.310   5.953 -0.1593 -0.3007 -0.0673
  191SLPC   O1422066   1.053   6.546   6.041  0.2519  0.1036  0.2641
  191SLPC   O1222067   0.875   6.509   5.866 -0.3319 -0.3617  0.1273
  191SLPC   O1122068   0.854   6.419   6.108 -0.2914  0.3366 -0.1333
  191SLPC    C122069   0.779   6.304   6.153 -0.7285 -0.1810 -0.2056
  191SLPC    HA22070   0.693   6.314   6.083  0.8651  2.1483 -1.9010
  191SLPC    HB22071   0.833   6.209   6.128 -1.1482 -0.2787 -0.7545
  191SLPC    C222072   0.747   6.296   6.307 -0.1675  0.8218  0.3696
  191SLPC    HS22073   0.676   6.214   6.331 -0.2247  1.4737  2.5781
  191SLPC   O2122074   0.700   6.421   6.359 -0.6541 -0.0175  0.0454
  191SLPC   C2122075   0.572   6.451   6.321 -0.2635 -0.0432  0.5699
  191SLPC   O2222076   0.498   6.376   6.260 -0.3776  0.3799  0.5163
  191SLPC   C2222077   0.541   6.585   6.384 -0.2615  0.7857  0.4115
  191SLPC   H2R22078   0.588   6.663   6.321 -2.2024  1.3736 -0.3588
  191SLPC   H2S22079   0.434   6.600   6.359 -0.0142  1.6386 -0.1311
  191SLPC    C322080   0.880   6.262   6.387 -0.1274 -0.1940 -0.3965
  191SLPC    HX22081   0.957   6.335   6.355  0.7200 -1.0261 -0.2554
  191SLPC    HY22082   0.895   6.155   6.364  0.1060 -0.5151  1.1705
  191SLPC   O3122083   0.854   6.261   6.533 -0.0515 -0.0655 -0.6257
  191SLPC   C3122084   0.969   6.226   6.592 -0.7427  0.2880  0.3882
  191SLPC   O3222085   1.073   6.205   6.535 -0.1126 -0.5608  0.1990
  191SLPC   C3222086   0.952   6.220   6.747 -0.1978  0.3409 -0.1179
  191SLPC   H2X22087   0.858   6.161   6.758  0.9746 -1.5423 -0.0142
  191SLPC   H2Y22088   0.952   6.326   6.778 -0.2120  0.8905 -1.9302
  191SLPC   C2322089   0.575   6.614   6.531  0.2606  0.3943 -0.4683
  191SLPC   H3R22090   0.521   6.706   6.560  0.1868  0.1804  0.0937
  191SLPC   H3S22091   0.686   6.624   6.531  0.3532 -0.5193 -0.3971
  191SLPC   C2422092   0.523   6.500   6.626 -0.2895 -0.0547 -0.2153
  191SLPC   H4R22093   0.581   6.407   6.606 -0.1685  0.2870 -1.5327
  191SLPC   H4S22094   0.415   6.484   6.611 -0.0077 -1.5359 -0.7123
  191SLPC   C2522095   0.535   6.549   6.772  0.8133 -0.0382 -0.2645
  191SLPC   H5R22096   0.470   6.481   6.830 -0.5566 -1.0680 -2.8856
  191SLPC   H5S22097   0.491   6.651   6.780 -1.2899 -0.9978  0.7324
  191SLPC   C2622098   0.674   6.531   6.839  0.0098 -0.1559  0.0239
  191SLPC   H6R22099   0.749   6.597   6.791  2.2308 -1.3712  1.6895
  191SLPC   H6S22100   0.716   6.428   6.842 -1.1842 -0.7030 -1.5792
  191SLPC   C2722101   0.671   6.566   6.991  0.7319  0.1510  0.0262
  191SLPC   H7R22102   0.620   6.485   7.048  1.1114 -0.5379 -0.6131
  191SLPC   H7S22103   0.629   6.667   7.012  2.5039  1.1058 -0.9350
  191SLPC   C2822104   0.820   6.572   7.046 -0.1701  0.1580 -0.6815
  191SLPC   H8R22105   0.884   6.501   6.989  1.5386 -0.6267  2.1498
  191SLPC   H8S22106   0.811   6.536   7.151  1.7998 -0.7769 -0.8102
  191SLPC   C2922107   0.892   6.703   7.022  0.0225  0.1464  0.2765
  191SLPC   H9R22108   0.935   6.719   6.922  2.0219 -0.5662  1.0092
  191SLPC  C21022109   0.893   6.793   7.112 -0.5643 -0.0501 -0.3442
  191SLPC  H10R22110   0.935   6.885   7.069 -0.0541 -0.9774 -1.8701
  191SLPC  C21122111   0.847   6.788   7.255  1.1706  0.2971 -0.8033
  191SLPC  H11R22112   0.823   6.684   7.287  0.8230  0.2932 -1.0767
  191SLPC  H11S22113   0.754   6.845   7.275  1.1380  1.1978 -3.3499
  191SLPC  C21222114   0.954   6.843   7.355 -0.4739 -0.0779  0.4302
  191SLPC  H12R22115   1.058   6.868   7.328  0.2390 -3.0765  0.2546
  191SLPC  C21322116   0.917   6.866   7.485 -0.7015  0.5937  0.0320
  191SLPC  H13R22117   0.982   6.925   7.552 -2.8427  2.2692  0.6751
  191SLPC  C21422118   0.783   6.831   7.548  0.9134  0.1779  0.2452
  191SLPC  H14R22119   0.722   6.763   7.483  1.6226 -0.9146  0.7076
  191SLPC  H14S22120   0.731   6.928   7.561  0.1239 -0.1369 -0.4599
  191SLPC  C21522121   0.785   6.758   7.685  0.8115  0.3189 -0.2541
  191SLPC  H15R22122   0.834   6.661   7.665 -0.7304 -0.1231 -2.0015
  191SLPC  H15S22123   0.682   6.733   7.720  2.1281 -2.0378  2.0690
  191SLPC  C21622124   0.870   6.807   7.804 -0.2425 -0.1247 -0.1593
  191SLPC  H16R22125   0.830   6.904   7.840  0.8041  0.1684  0.2257
  191SLPC  H16S22126   0.973   6.819   7.765  0.1698  0.1458  0.9818
  191SLPC  C21722127   0.877   6.713   7.927  1.0194  0.2387  0.5508
  191SLPC  H17R22128   0.937   6.629   7.886 -1.0059 -0.0487 -1.9305
  191SLPC  H17S22129   0.777   6.670   7.950  1.6091 -1.5216 -0.1087
  191SLPC  C21822130   0.941   6.773   8.046 -0.5843 -0.4663 -0.2772
  191SLPC  H18R22131   0.862   6.834   8.095  2.3186  1.1663  2.5344
  191SLPC  H18S22132   1.020   6.847   8.020 -0.7935 -0.4195 -0.7837
  191SLPC  H18T22133   0.982   6.696   8.116  2.6213  0.1809 -1.3636
  191SLPC   C3322134   1.075   6.158   6.823  0.2446 -0.4543 -0.1449
  191SLPC   H3X22135   1.163   6.226   6.820  0.6593 -1.0429 -1.5447
  191SLPC   H3Y22136   1.109   6.058   6.787 -0.6546 -0.7324 -0.2259
  191SLPC   C3422137   1.038   6.120   6.965  0.4997  0.4258  0.0057
  191SLPC   H4X22138   1.115   6.052   7.007  0.6179  1.3393  1.3033
  191SLPC   H4Y22139   0.942   6.065   6.952 -0.0040  1.1122  0.7692
  191SLPC   C3522140   0.998   6.229   7.064  0.5727  0.4327 -0.8997
  191SLPC   H5X22141   0.939   6.306   7.009 -1.8604 -1.5513 -1.1519
  191SLPC   H5Y22142   1.097   6.269   7.094  0.5334 -0.3290  0.2692
  191SLPC   C3622143   0.948   6.185   7.198 -0.3450  0.0135 -0.1884
  191SLPC   H6X22144   1.027   6.126   7.249 -0.8221 -1.6621 -1.3816
  191SLPC   H6Y22145   0.860   6.119   7.182 -0.5255  0.2579 -0.2169
  191SLPC   C3722146   0.911   6.303   7.294 -0.1305 -0.4926 -0.3627
  191SLPC   H7X22147   0.820   6.358   7.261  0.7717  1.1794 -0.0843
  191SLPC   H7Y22148   0.994   6.376   7.301 -0.5458 -0.1091  0.6030
  191SLPC   C3822149   0.901   6.264   7.441 -0.0061 -0.0281 -0.0574
  191SLPC   H8X22150   1.002   6.236   7.478 -1.9321 -5.1422  1.7600
  191SLPC   H8Y22151   0.832   6.177   7.448 -1.2319  0.8716 -0.6705
  191SLPC   C3922152   0.811   6.372   7.516 -1.2533 -0.2163  0.5250
  191SLPC   H9X22153   0.717   6.375   7.458 -1.4084  2.0152  0.8471
  191SLPC   H9Y22154   0.868   6.467   7.507 -1.0453 -0.4204 -0.2860
  191SLPC  C31022155   0.789   6.350   7.668 -0.2326 -0.6466 -0.7810
  191SLPC  H10X22156   0.746   6.248   7.682  0.1835 -0.9495 -1.7329
  191SLPC  H10Y22157   0.723   6.430   7.709  2.2075  1.0961 -0.1736
  191SLPC  C31122158   0.921   6.367   7.743  0.3732 -0.6008  0.3848
  191SLPC  H11X22159   0.960   6.468   7.720  0.1032 -0.5813 -0.0069
  191SLPC  H11Y22160   0.993   6.297   7.696 -1.8067 -3.0946  0.6096
  191SLPC  C31222161   0.907   6.347   7.892 -0.0164 -0.1564 -0.0419
  191SLPC  H12X22162   0.839   6.260   7.896 -0.0331 -0.1056  1.0198
  191SLPC  H12Y22163   0.850   6.436   7.926 -1.0282  0.1610 -2.4749
  191SLPC  C31322164   1.039   6.313   7.965  0.2770 -0.3432  0.5985
  191SLPC  H13X22165   1.077   6.229   7.904 -2.8724 -1.1507 -0.3100
  191SLPC  H13Y22166   1.001   6.285   8.066 -1.9914 -0.3636 -0.2283
  191SLPC  C31422167   1.136   6.432   7.985 -0.2533 -0.0795  0.5986
  191SLPC  H14X22168   1.078   6.515   8.031  1.0535  1.4127 -0.4294
  191SLPC  H14Y22169   1.184   6.461   7.890  0.3533  2.2814  1.5935
  191SLPC  C31522170   1.244   6.390   8.089  0.2990 -0.5348  0.0675
  191SLPC  H15X22171   1.300   6.311   8.034 -1.0078 -0.0739 -1.9756
  191SLPC  H15Y22172   1.192   6.351   8.179  0.7916  2.1958  1.5895
  191SLPC  C31622173   1.326   6.512   8.138 -0.0402  0.4850  0.0813
  191SLPC  H16X22174   1.258   6.596   8.113 -1.7364  0.2545  3.5661
  191SLPC  H16Y22175   1.424   6.511   8.085 -0.5225  0.6943 -0.8240
  191SLPC  C31722176   1.346   6.520   8.293  0.6035 -0.6368  0.2956
  191SLPC  H17X22177   1.247   6.524   8.343 -0.8548  1.1037 -2.5844
  191SLPC  H17Y22178   1.384   6.624   8.303  1.7531 -0.8534 -1.6383
  191SLPC  C31822179   1.425   6.404   8.346 -0.1634  0.5670  0.3291
  191SLPC  H18X22180   1.381   6.321   8.287 -0.9734  0.6215  0.8521
  191SLPC  H18Y22181   1.413   6.367   8.451 -2.5694  1.0146  0.2332
  191SLPC  H18Z22182   1.534   6.409   8.323 -0.5144  1.5973 -1.1467
  192SLPC     N22183   1.416   0.331   6.172  0.4492  0.3266  0.5010
  192SLPC   C1322184   1.383   0.416   6.054  0.1384 -0.1206 -0.2395
  192SLPC  H13A22185   1.299   0.484   6.062 -0.2795 -0.5946 -0.5967
  192SLPC  H13B22186   1.460   0.482   6.017 -1.3206  0.6448 -2.0172
  192SLPC  H13C22187   1.344   0.352   5.977 -0.0355  0.5039 -0.6763
  192SLPC   C1422188   1.515   0.233   6.122 -0.0614  0.0488 -0.0141
  192SLPC  H14A22189   1.566   0.174   6.196 -0.2384 -0.5181 -0.3371
  192SLPC  H14B22190   1.457   0.173   6.053 -0.7765  1.4787 -0.6974
  192SLPC  H14C22191   1.593   0.275   6.059  1.5442 -0.2404  1.7531
  192SLPC   C1522192   1.299   0.264   6.225 -0.4085  0.2420 -0.2383
  192SLPC  H15A22193   1.221   0.333   6.254 -1.1469 -0.5438 -0.3326
  192SLPC  H15B22194   1.251   0.191   6.161  1.6614 -1.8369  0.5276
  192SLPC  H15C22195   1.334   0.220   6.317  0.1259  0.8750 -0.1328
  192SLPC   C1222196   1.485   0.432   6.275 -0.0514 -0.1758  0.0998
  192SLPC  H12A22197   1.415   0.511   6.297  0.1078  0.4214 -1.4407
  192SLPC  H12B22198   1.559   0.484   6.215 -1.2081  0.0767 -1.1444
  192SLPC   C1122199   1.532   0.367   6.407 -0.4851 -0.2454  0.0130
  192SLPC  H11A22200   1.439   0.330   6.455 -1.5968  3.2690  0.7354
  192SLPC  H11B22201   1.574   0.444   6.475  0.5145 -0.8948  0.1358
  192SLPC     P22202   1.775   0.271   6.430 -0.1041 -0.2176  0.2650
  192SLPC   O1322203   1.843   0.137   6.448 -0.4448  0.1450  0.3208
  192SLPC   O1422204   1.833   0.371   6.335 -0.5250 -0.0992  1.1236
  192SLPC   O1222205   1.624   0.256   6.393  0.8271 -0.1094  0.1415
  192SLPC   O1122206   1.771   0.338   6.570  0.7325  0.1209  0.0118
  192SLPC    C122207   1.808   0.266   6.688 -0.2004  0.1189  0.0697
  192SLPC    HA22208   1.909   0.221   6.682 -0.5776 -0.7507  0.0661
  192SLPC    HB22209   1.814   0.343   6.767  1.7899  1.6115 -1.4880
  192SLPC    C222210   1.707   0.155   6.741 -0.5357 -0.4557 -0.1470
  192SLPC    HS22211   1.664   0.093   6.659 -1.3486 -0.4698  0.2804
  192SLPC   O2122212   1.599   0.226   6.809 -0.0168  0.1407 -0.3739
  192SLPC   C2122213   1.481   0.167   6.825  0.0050 -0.1835 -0.3933
  192SLPC   O2222214   1.445   0.079   6.751  0.2286 -0.2283 -0.0904
  192SLPC   C2222215   1.414   0.244   6.933  0.5287  0.2254 -0.3972
  192SLPC   H2R22216   1.483   0.250   7.020  1.6822 -1.7148 -1.1422
  192SLPC   H2S22217   1.387   0.343   6.891 -1.1923  0.0684  0.3050
  192SLPC    C322218   1.780   0.059   6.839 -0.2171 -0.9858  0.8214
  192SLPC    HX22219   1.856   0.005   6.778 -0.4495 -0.5788  0.1708
  192SLPC    HY22220   1.710  -0.021   6.872 -1.3032 -0.4873 -0.2140
  192SLPC   O3122221   1.845   0.131   6.951 -0.2052 -0.0500  0.0160
  192SLPC   C3122222   1.768   0.158   7.058  0.2933 -0.6019  0.4643
  192SLPC   O3222223   1.657   0.119   7.084 -0.1504 -0.9458  0.4701
  192SLPC   C3222224   1.853   0.250   7.146  0.1138 -0.0896  0.0861
  192SLPC   H2X22225   1.900   0.335   7.092 -0.5872  0.8655  0.9450
  192SLPC   H2Y22226   1.939   0.191   7.184 -0.5062  1.2997  3.9369
  192SLPC   C2322227   1.283   0.181   6.986  0.6277  0.2438 -0.3530
  192SLPC   H3R22228   1.299   0.084   7.038  1.1918 -0.0992 -1.1637
  192SLPC   H3S22229   1.218   0.183   6.896  0.9183  2.3195 -0.5416
  192SLPC   C2422230   1.208   0.269   7.088 -0.1981  0.4584  0.7856
  192SLPC   H4R22231   1.110   0.218   7.093  0.2442 -0.4456  0.3865
  192SLPC   H4S22232   1.197   0.374   7.052 -5.3798  0.3896  1.7983
  192SLPC   C2522233   1.277   0.259   7.229  0.0682 -0.1695  0.1452
  192SLPC   H5R22234   1.385   0.284   7.228  0.0120  0.0795  0.2117
  192SLPC   H5S22235   1.270   0.152   7.258 -0.6080  0.1039  1.0123
  192SLPC   C2622236   1.217   0.350   7.333 -0.6285  0.3616 -0.3828
  192SLPC   H6R22237   1.110   0.323   7.327 -0.2925 -1.3577  1.0773
  192SLPC   H6S22238   1.239   0.458   7.318  0.0709  0.1860 -0.6400
  192SLPC   C2722239   1.249   0.303   7.483  0.0091  0.1658  1.0596
  192SLPC   H7R22240   1.265   0.193   7.487 -0.9046 -0.0656 -0.9876
  192SLPC   H7S22241   1.163   0.326   7.549  0.1307 -1.5038  1.8288
  192SLPC   C2822242   1.377   0.366   7.541  0.6163  0.2182  0.4777
  192SLPC   H8R22243   1.462   0.345   7.473 -0.7379 -0.7578 -0.9560
  192SLPC   H8S22244   1.384   0.299   7.630  3.0296  0.4144  0.4447
  192SLPC   C2922245   1.367   0.508   7.592  0.4583  0.8927  0.3400
  192SLPC   H9R22246   1.345   0.581   7.513  0.1686 -0.7169 -1.0805
  192SLPC  C21022247   1.367   0.552   7.721  0.5030 -0.5778 -0.0149
  192SLPC  H10R22248   1.363   0.661   7.738  0.5502 -0.7413  1.0732
  192SLPC  C21122249   1.395   0.472   7.845 -0.0908  0.2691 -0.5309
  192SLPC  H11R22250   1.465   0.530   7.908  0.3835  0.9248 -1.6451
  192SLPC  H11S22251   1.434   0.369   7.831 -0.7523 -0.0398 -0.1328
  192SLPC  C21222252   1.269   0.447   7.925 -0.4821 -1.0420 -0.0097
  192SLPC  H12R22253   1.208   0.367   7.881 -0.4425 -1.0691 -0.0146
  192SLPC  C21322254   1.230   0.521   8.038 -0.5046  0.2882 -0.1224
  192SLPC  H13R22255   1.136   0.500   8.090  0.3313 -1.8953  0.5813
  192SLPC  C21422256   1.301   0.636   8.106 -0.4407  0.2297  0.0303
  192SLPC  H14R22257   1.223   0.700   8.153  1.0713  1.5059  0.8456
  192SLPC  H14S22258   1.341   0.696   8.022  0.2467  1.2884  1.0913
  192SLPC  C21522259   1.402   0.582   8.206  0.0644 -0.2545  0.3148
  192SLPC  H15R22260   1.472   0.524   8.142  0.2081  1.1310 -0.8190
  192SLPC  H15S22261   1.358   0.502   8.270 -0.8223  0.7488  0.9718
  192SLPC  C21622262   1.462   0.704   8.277 -0.2915  0.6469 -0.0158
  192SLPC  H16R22263   1.499   0.773   8.199  3.3534 -0.2386  0.8251
  192SLPC  H16S22264   1.560   0.670   8.318 -1.8236 -3.2511  0.6084
  192SLPC  C21722265   1.380   0.773   8.389 -0.8633  0.2806 -0.3530
  192SLPC  H17R22266   1.442   0.849   8.439  0.5904 -0.6151 -0.7623
  192SLPC  H17S22267   1.306   0.834   8.332  0.9987 -0.2658 -3.5039
  192SLPC  C21822268   1.306   0.681   8.488  0.0965 -0.1754  1.0771
  192SLPC  H18R22269   1.260   0.743   8.568 -0.5110 -2.4323  2.5159
  192SLPC  H18S22270   1.376   0.604   8.527  0.7033 -1.8408 -3.0658
  192SLPC  H18T22271   1.222   0.622   8.446  2.0356 -1.2580 -1.3664
  192SLPC   C3322272   1.769   0.302   7.270 -0.6871 -0.0742  0.2830
  192SLPC   H3X22273   1.709   0.220   7.315  1.0317 -0.4442  1.9650
  192SLPC   H3Y22274   1.721   0.397   7.239  1.4858  0.9808  0.0675
  192SLPC   C3422275   1.859   0.341   7.393 -0.0981  0.6368  0.4595
  192SLPC   H4X22276   1.945   0.401   7.356  0.9456 -0.3827  1.1887
  192SLPC   H4Y22277   1.908   0.253   7.440  1.7802  0.7217 -1.2587
  192SLPC   C3522278   1.790   0.423   7.502 -0.0921  0.4727  0.0575
  192SLPC   H5X22279   1.693   0.369   7.511  0.8070 -1.0491  0.7715
  192SLPC   H5Y22280   1.774   0.525   7.463 -1.3108  0.5664  0.8082
  192SLPC   C3622281   1.876   0.423   7.630 -0.2077 -0.0798  0.0629
  192SLPC   H6X22282   1.979   0.457   7.605  0.2283 -1.6486 -0.3297
  192SLPC   H6Y22283   1.893   0.318   7.664 -1.9069 -0.7179 -1.0139
  192SLPC   C3722284   1.812   0.506   7.736 -0.5406 -0.3161 -0.5207
  192SLPC   H7X22285   1.706   0.473   7.736 -0.5571 -0.2831  0.5257
  192SLPC   H7Y22286   1.811   0.613   7.706  0.1864 -0.0457  0.3996
  192SLPC   C3822287   1.872   0.489   7.876 -0.3793 -0.5294 -0.1221
  192SLPC   H8X22288   1.978   0.520   7.859 -0.5150 -0.1501 -0.2946
  192SLPC   H8Y22289   1.866   0.381   7.902 -0.2648 -0.2642  1.0131
  192SLPC   C3922290   1.796   0.566   7.977  0.0505 -0.1083 -0.3712
  192SLPC   H9X22291   1.691   0.565   7.941 -0.2972  1.5233  0.5367
  192SLPC   H9Y22292   1.815   0.676   7.981  2.1270 -0.3944 -1.7237
  192SLPC  C31022293   1.804   0.503   8.117  0.4266  0.1914 -0.2494
  192SLPC  H10X22294   1.769   0.398   8.121  0.9501  0.0767  1.9992
  192SLPC  H10Y22295   1.724   0.564   8.165  1.0506  0.4393  0.4937
  192SLPC  C31122296   1.940   0.506   8.182 -0.0669 -0.5270 -0.8230
  192SLPC  H11X22297   1.982   0.609   8.196  1.7004 -1.5045  1.3391
  192SLPC  H11Y22298   2.004   0.437   8.124 -0.7980 -0.8458 -1.2543
  192SLPC  C31222299   1.941   0.456   8.328  0.5674  0.6940  0.7168
  192SLPC  H12X22300   1.931   0.345   8.331 -0.3286  0.6399 -2.1070
  192SLPC  H12Y22301   1.846   0.475   8.381 -1.0174  0.2580 -1.8471
  192SLPC  C31322302   2.061   0.494   8.408  0.0518  0.0673  0.4191
  192SLPC  H13X22303   2.029   0.485   8.514 -1.0308  0.0578  0.1008
  192SLPC  H13Y22304   2.085   0.600   8.387 -1.2796 -0.3203 -3.6025
  192SLPC  C31422305   2.183   0.402   8.379  0.3782  0.5147  0.0867
  192SLPC  H14X22306   2.270   0.450   8.429 -0.6185  0.1848  2.1821
  192SLPC  H14Y22307   2.202   0.403   8.270 -3.3432 -2.1270 -0.7094
  192SLPC  C31522308   2.169   0.260   8.435 -0.0234 -0.5060  0.0636
  192SLPC  H15X22309   2.091   0.198   8.386  0.2791  0.3821 -1.5957
  192SLPC  H15Y22310   2.138   0.271   8.541 -1.3282 -0.5067 -0.3018
  192SLPC  C31622311   2.304   0.182   8.444  0.0030 -1.0608 -0.2695
  192SLPC  H16X22312   2.376   0.261   8.475  0.9086 -1.7000 -0.7224
  192SLPC  H16Y22313   2.334   0.153   8.341 -2.0324 -0.0777 -1.1542
  192SLPC  C31722314   2.304   0.059   8.544 -0.0874 -0.2416 -0.0611
  192SLPC  H17X22315   2.212  -0.000   8.524 -1.7467  1.4402  2.3152
  192SLPC  H17Y22316   2.282   0.099   8.646  1.8103 -1.0011  0.6692
  192SLPC  C31822317   2.436  -0.023   8.531  0.4593  0.3612 -0.3030
  192SLPC  H18X22318   2.525   0.043   8.533 -0.8385  2.0910  1.8740
  192SLPC  H18Y22319   2.421  -0.075   8.434 -1.3930  0.1281  0.0893
  192SLPC  H18Z22320   2.434  -0.107   8.604  2.8086 -0.1582 -0.7811
  193SOD    SOD22321   2.932   3.242  16.003  0.2997  0.2134  0.4005
  194SOD    SOD22322   4.507   0.906   2.797 -0.0013  0.0540 -0.2080
  195SOD    SOD22323   2.229   3.483  15.450  0.0512 -0.1740  0.7769
  196SOD    SOD22324   2.207   3.231   4.802  0.4273  0.1068  0.0054
  197SOD    SOD22325   5.302   0.416   0.133 -0.3967 -0.5136 -0.0335
  198SOD    SOD22326   6.784   3.955  14.372  0.1321  0.0290 -0.3752
  199SOD    SOD22327   2.535   5.444  16.211  0.4416 -0.0267 -0.1633
  200SOD    SOD22328   5.472   3.514  14.343 -0.1810 -0.3154  0.2181
  201SOD    SOD22329   3.064   1.162  14.797 -0.3755  0.4421  0.2509
  202SOD    SOD22330   6.109   3.949   5.894 -0.4839 -0.3250 -0.4248
  203SOD    SOD22331   1.097   3.856   6.129  0.1344  0.5552 -0.6158
  204SOD    SOD22332   1.735   3.106  11.078  0.2442 -0.2445 -0.0417
  205SOD    SOD22333   5.786   3.379  16.242  0.1504  0.5446  0.6007
  206SOD    SOD22334   4.554   3.196  15.532 -0.3599 -0.6349 -0.1051
  207SOD    SOD22335   3.457   4.753  14.564  0.5465 -0.3658  0.2597
  208SOD    SOD22336   2.953   6.774  17.234 -0.4369 -0.2893  0.3114
  209SOD    SOD22337   0.362   6.257   6.109 -0.0660 -0.3135  0.3812
  210SOD    SOD22338   3.123   1.643   6.493 -0.0693 -0.4834  0.2955
  211SOD    SOD22339   2.063   3.752  14.129 -0.2551 -0.0264  0.2478
  212SOD    SOD22340   5.975   1.794  12.344  0.1513  0.4253 -0.1726
  213SOD    SOD22341   1.591   1.751  14.171 -0.3431  0.3821 -0.0365
  214SOD    SOD22342   5.063   2.216   3.844  0.8633  0.5717  0.0682
  215SOD    SOD22343   6.300   5.420   3.082 -0.0285  0.0219  0.0053
  216SOD    SOD22344   4.604   5.592  11.034  0.0256 -0.3559  0.6032
  217SOD    SOD22345   0.421   4.175   4.965  0.5552 -0.4498 -0.3684
  218SOD    SOD22346   0.603   4.592   1.597 -0.2706  0.5295 -0.1867
  219SOD    SOD22347   3.052   5.302   4.133  0.0377  0.2300 -0.0553
  220SOD    SOD22348   4.487   0.113   2.548  0.5063 -0.8841  0.3019
  221SOD    SOD22349   2.248   5.041   1.272 -0.9121  0.4455 -0.2270
  222SOD    SOD22350   6.053   0.260  10.812 -0.2006  0.3193 -0.1963
  223SOD    SOD22351   1.911   6.274  16.658 -0.1238 -0.0979 -0.3324
  224SOD    SOD22352   5.794   2.995  14.965  0.0272  0.0927  0.2909
  225SOD    SOD22353   0.723   1.554   5.814 -0.1776 -0.4999  0.2564
  226SOD    SOD22354   4.966   6.423  16.154  0.0719  0.0636  0.6037
  227SOD    SOD22355   4.759   0.821  12.584 -0.2094 -0.1468 -0.5857
  228SOD    SOD22356   1.387   6.345   0.058  0.1684 -0.0507  0.1112
  229SOD    SOD22357   1.269   0.028   3.536 -0.4109 -0.0928 -0.0043
  230SOD    SOD22358   0.731   1.280  12.845 -0.0934 -0.0725 -0.2189
  231SOD    SOD22359   2.139   6.763   0.083 -0.1521  0.0642 -0.4007
  232SOD    SOD22360   1.195   5.066  13.260  0.2577 -0.3987  0.0860
  233SOD    SOD22361   5.350   6.786   5.324  0.1619  0.1667 -0.1512
  234SOD    SOD22362   2.179   4.547  11.420  0.0276  0.2801 -0.3347
  235SOD    SOD22363   1.872   2.018   5.742 -0.0833  0.3107  0.2739
  236SOD    SOD22364   5.941   6.586   2.146  0.1420 -0.1910 -0.3098
  237SOD    SOD22365   2.642   5.476  10.764 -0.5840 -0.0397 -0.3682
  238SOD    SOD22366   5.012   3.444  11.367 -0.2351  0.1773  0.1769
  239SOD    SOD22367   6.126   6.097   6.297 -0.4863 -0.3391  0.0487
  240SOD    SOD22368   5.261   4.540   0.740 -0.5201 -0.1800  0.1443
  241SOD    SOD22369   5.911   0.608   3.286  0.3629 -0.1795  0.0633
  242SOD    SOD22370   6.015   4.129   2.579  0.4307 -0.2159 -0.4133
  243SOD    SOD22371   2.768   2.615   4.168 -0.2805 -0.0547 -0.1792
  244SOD    SOD22372   0.305   2.634   1.985 -0.4069 -0.1553  0.5289
  245SOD    SOD22373   4.116   5.094  10.769 -0.0824 -0.1528 -0.1122
  246SOD    SOD22374   2.268   0.637  13.907 -0.0607  0.0160  0.1630
  247SOD    SOD22375   3.552   6.396  11.455  0.2589 -0.4003  0.1032
  248SOD    SOD22376   6.481   1.973   5.979 -0.3540  0.1735 -0.2756
  249SOD    SOD22377   4.256   2.832   6.743  0.1232 -0.3340  0.2185
  250SOD    SOD22378   1.587   6.314  11.368 -0.3396  0.2910  0.7792
  251SOD    SOD22379   0.627   0.638   0.220  0.1986 -0.1342 -0.1870
  252SOD    SOD22380   6.554   2.103  13.786  0.5750 -0.3996 -0.7499
  253SOD    SOD22381   2.029   2.458  15.113  0.4422 -0.3746  0.6165
  254SOD    SOD22382   3.917   0.289   4.965  0.1882 -0.0161 -0.0400
  255SOD    SOD22383   0.732   6.797   4.240  0.3495  0.0728 -0.6499
  256SOD    SOD22384   2.734   0.873   2.457 -0.1608 -0.5419  0.1959
  257SOD    SOD22385   2.317   3.124   3.822  0.2227  0.1876  0.3707
  258SOD    SOD22386   4.280   4.450  10.807 -0.5237  0.1292  0.0468
  259SOD    SOD22387   0.130   4.053  11.920  0.2535  0.0219 -0.3203
  260SOD    SOD22388   3.987   2.821   1.861  0.1607  0.4321 -0.6173
  261SOD    SOD22389   5.224   2.508  11.750  0.1940  0.0566 -0.2498
  262SOD    SOD22390   6.363   6.760   3.077  0.0648 -0.5563 -0.3951
  263SOD    SOD22391   3.641   0.450   4.393 -0.0980 -0.0944  0.0269
  264SOD    SOD22392   2.716   4.288   4.610  0.3680  0.0184  0.1896
  265SOD    SOD22393   1.628   5.069   6.006  0.1985  0.3673 -0.1274
  266CLA    CLA22394   0.868   4.834   5.647 -0.1946  0.4578 -0.2751
  267CLA    CLA22395   2.446   2.681   3.458 -0.0545  0.1756  0.3814
  268CLA    CLA22396   3.169   3.168  16.085  0.3634 -0.2728 -0.2186
  269CLA    CLA22397   5.308   2.814  14.515  0.1278  0.1232 -0.2108
  270CLA    CLA22398   0.994   1.115  15.814  0.3508 -0.4169  0.1227
  271CLA    CLA22399   4.468   5.072  16.045  0.3794  0.5906  0.4432
  272CLA    CLA22400   3.113   5.832  16.102  0.2626  0.2867  0.0634
  273CLA    CLA22401   6.045   4.156   1.357 -0.4090 -0.0862  0.1505
  274CLA    CLA22402   4.084   2.367  11.246  0.2177  0.2294  0.4560
  275CLA    CLA22403   1.346   6.655  15.026  0.5372 -0.1389 -0.5313
  276CLA    CLA22404   3.256   6.596   0.770 -0.1945  0.1738  0.1713
  277CLA    CLA22405   0.601   1.864  11.574  0.0438 -0.4420 -0.4169
  278CLA    CLA22406   6.733   2.075  11.264 -0.0675  0.1598  0.2191
  279CLA    CLA22407   3.718   1.464   4.786 -0.0071 -0.0065  0.5792
  280CLA    CLA22408   5.824   1.214   2.243  0.2768 -0.0890 -0.1414
  281CLA    CLA22409   2.562   5.032  15.923 -0.3264  0.2801 -0.0022
  282CLA    CLA22410   2.297   0.639   1.537  0.2442 -0.2581  0.0615
  283CLA    CLA22411   0.642   5.685   1.310  0.0941 -0.1459  0.3199
  284CLA    CLA22412   3.582   0.220   3.012 -0.0648 -0.6272  0.2591
  285CLA    CLA22413   6.742   3.480  14.585 -0.2897  0.0039  0.1590
  286CLA    CLA22414   5.071   0.722   0.124  0.1218  0.1967 -0.3553
  287CLA    CLA22415   4.363   1.360   5.634  0.0405 -0.0029  0.1684
  288CLA    CLA22416   0.720   2.111   0.201 -0.5533  0.2915 -0.1249
  289CLA    CLA22417   1.453   5.115   4.942 -0.0345 -0.1687 -0.3729
  290CLA    CLA22418   4.398   6.751  17.016  0.0275  0.1830  0.2843
  291CLA    CLA22419   4.246   0.685   0.041 -0.0070  0.1573  0.1168
  292CLA    CLA22420   1.531   5.185   4.069 -0.0104  0.0165  0.2435
  293CLA    CLA22421   5.570   2.944  13.662  0.0982  0.0285  0.1126
  294CLA    CLA22422   6.261   4.884  14.537 -0.1312 -0.2413 -0.1387
  295CLA    CLA22423   1.714   4.110  16.022  0.6403  0.2957  0.1981
  296CLA    CLA22424   1.376   1.759   4.301  0.7306 -0.2711  0.0910
  297CLA    CLA22425   1.347   5.969  15.351 -0.2087 -0.2475 -0.2779
  298CLA    CLA22426   5.323   4.907  11.186  0.1336 -0.0401  0.1668
  299CLA    CLA22427   6.567   0.222   1.011  0.1397 -0.2838  0.3313
  300CLA    CLA22428   6.481   2.209  14.926  0.0951 -0.0924  0.0652
  301CLA    CLA22429   2.013   0.631  12.547 -0.0342  0.1111  0.3203
  302CLA    CLA22430   6.505   6.161  13.525  0.0335  0.2646  0.3826
  303CLA    CLA22431   0.457   3.554   3.837  0.2343  0.2798 -0.1666
  304CLA    CLA22432   0.156   4.081   3.168 -0.2888 -0.2101 -0.4174
  305CLA    CLA22433   4.559   0.341   3.643  0.2128  0.1789 -0.1332
  306CLA    CLA22434   2.516   6.087  12.137 -0.2257  0.2311 -0.2516
  307CLA    CLA22435   3.014   5.418   2.006  0.0053 -0.0925  0.1882
  308CLA    CLA22436   3.111   1.979  11.477 -0.1392 -0.3524  0.5546
  309CLA    CLA22437   6.516   2.911   5.205  0.1380 -0.0248  0.1351
  310CLA    CLA22438   3.452   2.268   1.819 -0.2111 -0.2343 -0.0281
  311CLA    CLA22439   6.702   1.550   4.570  0.1429 -0.0080  0.3186
  312CLA    CLA22440   2.214   2.646  15.113  0.0763  0.2634 -0.2283
  313CLA    CLA22441   1.147   0.412   2.051  0.0107  0.2487 -0.1620
  314CLA    CLA22442   4.472   0.029   5.908  0.0305 -0.1981 -0.0981
  315CLA    CLA22443   2.027   0.330   3.858 -0.4877 -0.1717 -0.1331
  316CLA    CLA22444   6.475   5.916  16.949 -0.3956  0.1083  0.0236
  317CLA    CLA22445   1.095   5.104   1.873  0.0557  0.3485  0.2030
  318CLA    CLA22446   5.165   1.991   3.456 -0.3049  0.0516 -0.3622
  319TIP3   OH222447   5.900   1.215  15.925 -0.3094  0.6893  0.1187
  319TIP3    H122448   5.823   1.237  15.977  0.3830  0.8663  1.0638
  319TIP3    H222449   5.966   1.190  15.989  0.6192  1.1292 -0.6606
  320TIP3   OH222450   1.875   5.557  15.523 -0.0150 -0.4154 -0.2540
  320TIP3    H122451   1.865   5.550  15.618  2.2073  0.5808  0.0742
  320TIP3    H222452   1.935   5.631  15.510 -0.4166 -0.4443 -2.4333
  321TIP3   OH222453   3.637   0.666  17.221 -0.4549 -0.3947 -0.0541
  321TIP3    H122454   3.722   0.656  17.178 -0.9153 -0.4063 -0.9664
  321TIP3    H222455   3.573   0.638  17.156 -1.1386 -0.7638  0.7665
  322TIP3   OH222456   1.989   1.569  12.244 -0.1063  0.2186 -0.5047
  322TIP3    H122457   2.058   1.608  12.191 -0.5066 -0.3749 -1.4851
  322TIP3    H222458   1.938   1.517  12.181 -0.1099 -1.1361  0.6046
  323TIP3   OH222459   1.461   5.811  12.750 -0.0698 -0.3017 -0.6205
  323TIP3    H122460   1.505   5.861  12.682 -0.5381  1.0209  0.0258
  323TIP3    H222461   1.526   5.748  12.780  0.1317 -0.9053 -2.2893
  324TIP3   OH222462   1.892   5.868   4.352  0.5968 -0.5461  0.0837
  324TIP3    H122463   1.841   5.801   4.305 -1.0802 -0.5787  1.8758
  324TIP3    H222464   1.863   5.951   4.315  0.5168 -0.6665 -0.1223
  325TIP3   OH222465   1.039   5.087   6.007 -0.1303  0.0362 -0.1122
  325TIP3    H122466   1.019   5.180   5.994  0.0507  0.1390  0.3361
  325TIP3    H222467   0.957   5.042   5.988 -0.6626  0.4190  1.2334
  326TIP3   OH222468   3.423   6.076   5.001  0.1685  0.0484  0.8674
  326TIP3    H122469   3.332   6.053   5.021  0.2661 -1.3704 -0.2683
  326TIP3    H222470   3.417   6.153   4.945 -0.4305 -1.2121 -0.8460
  327TIP3   OH222471   2.677   5.373   0.131 -0.4138  0.1605 -0.2922
  327TIP3    H122472   2.648   5.342   0.217  1.9663  1.7694  1.1460
  327TIP3    H222473   2.745   5.310   0.105 -0.7736 -0.0329 -0.7573
  328TIP3   OH222474   3.495   4.256   6.488 -0.5865 -0.3330  0.1423
  328TIP3    H122475   3.580   4.291   6.461 -1.5966  1.1617 -1.2228
  328TIP3    H222476   3.491   4.272   6.582  0.0203  1.0187 -0.0400
  329TIP3   OH222477   2.541   5.448  12.958 -0.1964 -0.3333 -0.0220
  329TIP3    H122478   2.610   5.509  12.930  0.1821 -0.8194 -0.1537
  329TIP3    H222479   2.487   5.500  13.018 -0.2437  0.3151 -0.6232
  330TIP3   OH222480   1.646   4.074   4.458 -0.1369 -0.0954 -0.1736
  330TIP3    H122481   1.711   4.008   4.483  1.4759  1.7836  0.7461
  330TIP3    H222482   1.586   4.079   4.532  0.6548  0.5842  0.4248
  331TIP3   OH222483   3.441   2.947  16.401 -0.8948  0.0713  0.0409
  331TIP3    H122484   3.375   3.002  16.443 -0.8465  0.5558 -0.5118
  331TIP3    H222485   3.491   2.909  16.474 -1.3598  0.2274  0.4414
  332TIP3   OH222486   4.973   6.511   2.419 -0.2189 -1.2623  0.3926
  332TIP3    H122487   4.898   6.491   2.475 -1.6105 -0.5409 -1.1816
  332TIP3    H222488   4.970   6.443   2.351  0.6589 -1.3252  0.4109
  333TIP3   OH222489   6.627   3.326  17.104  0.3395  0.5469 -0.1200
  333TIP3    H122490   6.611   3.262  17.173  0.4721  1.0431  0.3720
  333TIP3    H222491   6.661   3.274  17.031  0.0269 -0.0006  0.1220
  334TIP3   OH222492   2.181   1.998  16.607 -0.2348 -0.6291 -0.2208
  334TIP3    H122493   2.171   2.085  16.647  0.0399 -0.3974 -0.6570
  334TIP3    H222494   2.134   1.939  16.667  1.4237 -0.5076  1.2581
  335TIP3   OH222495   0.336   3.478  14.969  0.7117 -0.2385  0.4392
  335TIP3    H122496   0.384   3.549  15.011 -0.2332  0.1574  0.8670
  335TIP3    H222497   0.283   3.521  14.902  0.2181 -0.5467  0.6254
  336TIP3   OH222498   4.884   5.743   0.977  0.0804 -0.0701  0.4547
  336TIP3    H122499   4.971   5.773   1.003 -0.5396  1.4544  0.8389
  336TIP3    H222500   4.872   5.661   1.024  1.9311 -1.1083 -0.8254
  337TIP3   OH222501   3.916   2.635   0.822  0.0707 -0.5585 -0.3817
  337TIP3    H122502   3.873   2.712   0.785 -1.8140 -0.5693  1.7049
  337TIP3    H222503   3.992   2.670   0.869  1.5999 -0.4064 -2.8718
  338TIP3   OH222504   4.616   3.291  15.330 -0.2674  0.1459  0.0786
  338TIP3    H122505   4.548   3.286  15.263 -0.2420 -0.6676  0.1091
  338TIP3    H222506   4.662   3.373  15.311 -0.4685  0.0873 -0.6907
  339TIP3   OH222507   0.159   5.322  16.606  0.4433 -0.2964 -0.2835
  339TIP3    H122508   0.142   5.286  16.693 -1.6603 -0.7585 -0.8585
  339TIP3    H222509   0.092   5.390  16.595  1.5623  0.6932 -1.0007
  340TIP3   OH222510   1.592   6.636  12.938 -0.0013  0.2900 -0.3017
  340TIP3    H122511   1.679   6.675  12.947  0.1998 -0.3022  0.4058
  340TIP3    H222512   1.532   6.705  12.967  0.2422  0.6440 -0.6344
  341TIP3   OH222513   5.536   6.491   2.835  0.2407  0.0949 -0.7444
  341TIP3    H122514   5.501   6.434   2.766 -2.7874  2.1374 -1.0050
  341TIP3    H222515   5.567   6.569   2.789  1.1156  0.1575 -0.0651
  342TIP3   OH222516   1.095   5.856   4.405  0.8209 -0.7038  0.0489
  342TIP3    H122517   1.053   5.849   4.319  0.2436 -1.1912  0.3714
  342TIP3    H222518   1.169   5.915   4.390 -1.0180  1.6321 -0.1057
  343TIP3   OH222519   2.572   6.212   3.271 -0.3408  0.4821  0.1143
  343TIP3    H122520   2.547   6.272   3.202 -0.2235  1.0607  0.5726
  343TIP3    H222521   2.544   6.255   3.352 -1.0717 -0.4821  0.3862
  344TIP3   OH222522   1.915   2.007  11.734 -0.1091  0.0942  0.1375
  344TIP3    H122523   1.989   1.947  11.729  0.8880  1.4269 -1.7777
  344TIP3    H222524   1.954   2.092  11.754 -1.4557  0.2472  2.3387
  345TIP3   OH222525   4.950   1.058  14.924 -0.1284 -0.1086 -0.7929
  345TIP3    H122526   4.883   0.996  14.895  0.9649 -1.5136 -0.3839
  345TIP3    H222527   4.965   1.114  14.848 -0.1924 -1.1854 -1.6102
  346TIP3   OH222528   6.439   1.962   1.025  0.2162  0.0814 -0.0950
  346TIP3    H122529   6.518   2.016   1.030 -0.0710  0.6112 -1.1569
  346TIP3    H222530   6.449   1.912   0.943 -0.3175 -0.2207  0.0212
  347TIP3   OH222531   5.058   6.792  12.666  0.1632 -0.1328 -0.2857
  347TIP3    H122532   5.070   6.699  12.682  0.7467  0.2053  1.3003
  347TIP3    H222533   5.146   6.829  12.673 -0.3918  0.9010  1.5874
  348TIP3   OH222534   2.146   1.787  11.709  0.2779  0.3182 -0.2897
  348TIP3    H122535   2.194   1.708  11.734 -2.6166 -1.7527 -1.0420
  348TIP3    H222536   2.189   1.817  11.629  1.4583 -0.4085  0.0625
  349TIP3   OH222537   4.694   0.595  12.148  0.3848 -0.0036  0.2062
  349TIP3    H122538   4.749   0.536  12.200 -0.1003 -0.2884  0.4060
  349TIP3    H222539   4.666   0.662  12.210  0.4581  0.1108  0.1161
  350TIP3   OH222540   4.107   0.955  11.029 -0.6223  0.3709 -0.6981
  350TIP3    H122541   4.019   0.943  11.063 -0.2036 -0.4340  0.1428
  350TIP3    H222542   4.164   0.937  11.104  0.2889 -0.4749 -1.5718
  351TIP3   OH222543   4.643   0.005  11.564 -0.9639  0.2406 -0.3941
  351TIP3    H122544   4.726   0.052  11.559  0.1904 -1.6919  0.0230
  351TIP3    H222545   4.608   0.027  11.650 -0.6961  0.7848 -0.4250
  352TIP3   OH222546   4.515   2.811   5.043  0.3687  0.2068 -0.0798
  352TIP3    H122547   4.541   2.813   4.951 -1.0471  0.3178 -0.4856
  352TIP3    H222548   4.566   2.881   5.083 -0.2010  1.2168 -1.1037
  353TIP3   OH222549   3.923   2.393   5.984 -0.2717 -0.1644  0.1317
  353TIP3    H122550   3.966   2.453   5.924  0.1579  0.4508  1.0298
  353TIP3    H222551   3.839   2.435   6.005 -0.4093 -0.3642 -0.0181
  354TIP3   OH222552   2.462   0.926  11.656 -0.1484  0.6822  0.3788
  354TIP3    H122553   2.482   0.961  11.743  0.3002  1.5022 -0.0584
  354TIP3    H222554   2.534   0.956  11.600 -0.6520  0.5108 -0.3727
  355TIP3   OH222555   4.795   1.583   3.576 -0.3391 -0.7180 -0.1158
  355TIP3    H122556   4.866   1.519   3.587 -0.3331 -0.8693 -0.9631
  355TIP3    H222557   4.748   1.582   3.659 -0.2268 -1.7001 -0.0569
  356TIP3   OH222558   6.091   6.472   6.014 -0.2346 -0.2033 -0.2409
  356TIP3    H122559   6.061   6.500   6.101  0.2722  0.8617 -0.3945
  356TIP3    H222560   6.053   6.536   5.954  1.2963  0.4527 -0.5573
  357TIP3   OH222561   4.912   0.044   4.236 -0.4077  0.1365  0.2073
  357TIP3    H122562   4.986   0.055   4.295 -0.6163  1.7935  0.1686
  357TIP3    H222563   4.892  -0.050   4.240  0.5365 -0.0147  1.6010
  358TIP3   OH222564   5.369   4.332  11.504  0.5092 -0.5895  0.3475
  358TIP3    H122565   5.387   4.423  11.479 -0.0071 -0.3352  0.8754
  358TIP3    H222566   5.455   4.293  11.517  0.7047  0.5108  2.4882
  359TIP3   OH222567   6.170   1.626   2.239  0.6289 -0.5958 -0.3158
  359TIP3    H122568   6.205   1.628   2.328 -0.2335 -0.1477  0.0177
  359TIP3    H222569   6.139   1.536   2.228 -1.2144 -0.0974  0.6128
  360TIP3   OH222570   3.790   1.884   5.777 -0.3012  0.1655 -0.2786
  360TIP3    H122571   3.875   1.846   5.798 -0.9010 -1.6625 -1.0685
  360TIP3    H222572   3.776   1.949   5.846  2.1808  1.2340 -0.7135
  361TIP3   OH222573   5.504   0.091  15.216 -0.0791  0.3158  0.2561
  361TIP3    H122574   5.575   0.108  15.154  0.0427 -1.8118 -0.2021
  361TIP3    H222575   5.483   0.178  15.251  0.5980  1.4148 -1.9247
  362TIP3   OH222576   4.316   2.127   1.505  0.0291  0.1910  0.1254
  362TIP3    H122577   4.238   2.100   1.456  0.5104 -1.0442  0.0297
  362TIP3    H222578   4.294   2.109   1.596  0.3732 -0.5674  0.0563
  363TIP3   OH222579   0.121   5.921   4.822 -0.7388 -0.1261  0.2549
  363TIP3    H122580   0.127   6.000   4.874 -1.3584 -0.7382  1.2769
  363TIP3    H222581   0.206   5.878   4.833 -0.1007  0.7660 -0.9534
  364TIP3   OH222582   5.440   3.835   3.489 -0.3314  0.1347 -0.2934
  364TIP3    H122583   5.372   3.808   3.428  0.8554 -0.7145 -1.2637
  364TIP3    H222584   5.398   3.902   3.544 -1.4638  0.8158 -1.9415
  365TIP3   OH222585   3.931   0.752  15.307 -0.7218  0.2479  0.5395
  365TIP3    H122586   3.940   0.765  15.212 -1.7616 -1.2341  0.2078
  365TIP3    H222587   3.978   0.825  15.346  1.8980 -0.4715 -1.1067
  366TIP3   OH222588   2.165   3.155  14.139  0.0245  0.1670 -0.7156
  366TIP3    H122589   2.106   3.192  14.206 -1.2988 -0.5173 -1.4911
  366TIP3    H222590   2.190   3.070  14.174 -0.1427  0.0885 -0.7864
  367TIP3   OH222591   2.636   3.165  14.527 -0.2793  0.2552 -0.0076
  367TIP3    H122592   2.698   3.217  14.476  0.5074 -1.2151 -0.5583
  367TIP3    H222593   2.660   3.183  14.618 -0.9761  2.0081 -0.1373
  368TIP3   OH222594   1.080   3.116  16.878  1.0430 -0.1547 -0.4549
  368TIP3    H122595   1.104   3.070  16.959  3.4861 -0.1441 -1.1297
  368TIP3    H222596   1.164   3.132  16.834 -0.1627  0.8462 -2.4483
  369TIP3   OH222597   0.434   5.379  16.849 -0.0533 -0.7107 -0.2827
  369TIP3    H122598   0.357   5.330  16.821 -0.0100  0.3715 -2.3123
  369TIP3    H222599   0.411   5.410  16.937 -2.1128 -0.0448 -1.0174
  370TIP3   OH222600   6.028   0.543  13.606  0.1894 -0.1540 -0.4933
  370TIP3    H122601   6.025   0.635  13.632 -0.6472 -0.6178  1.1010
  370TIP3    H222602   6.071   0.498  13.679 -2.0334 -1.4385  0.0733
  371TIP3   OH222603   5.398   3.614   2.423  0.1363  0.4435  0.0451
  371TIP3    H122604   5.416   3.602   2.517 -2.2647  0.2494  0.5115
  371TIP3    H222605   5.482   3.640   2.386  0.8391  1.8829  2.5008
  372TIP3   OH222606   6.493   4.496  11.189  0.5372  0.0755 -0.1654
  372TIP3    H122607   6.545   4.419  11.210 -1.7773 -1.9928 -1.6213
  372TIP3    H222608   6.481   4.541  11.272 -0.6296 -2.8368  1.3142
  373TIP3   OH222609   2.665   6.082  14.644  0.1935  0.2285 -0.3087
  373TIP3    H122610   2.630   6.097  14.732  0.3712 -1.0422 -0.0132
  373TIP3    H222611   2.599   6.029  14.600 -0.7376  2.4024 -1.5671
  374TIP3   OH222612   3.000   2.519  13.743 -0.0197 -0.0126 -0.2316
  374TIP3    H122613   3.093   2.498  13.729  0.5061  0.9786  1.6251
  374TIP3    H222614   2.955   2.435  13.735  1.2654 -0.8121  0.7011
  375TIP3   OH222615   5.906   3.850  14.633 -0.1679 -0.1324 -0.0552
  375TIP3    H122616   5.952   3.785  14.581  1.0606 -1.0267  2.1020
  375TIP3    H222617   5.822   3.809  14.655  0.8456 -1.2602  1.8034
  376TIP3   OH222618   5.477   4.039  11.979 -0.2038  0.1448 -0.1760
  376TIP3    H122619   5.392   4.081  11.968 -0.5146 -0.3094  0.4375
  376TIP3    H222620   5.467   3.985  12.057  0.9096  0.7543  0.4094
  377TIP3   OH222621   5.735   1.241   0.779 -0.4900  0.2719  0.3130
  377TIP3    H122622   5.825   1.261   0.754  0.0938 -1.4823  0.9644
  377TIP3    H222623   5.699   1.325   0.809  1.1543  0.8343  0.7416
  378TIP3   OH222624   4.703   3.229  14.640  0.6027 -0.0140  0.4526
  378TIP3    H122625   4.752   3.311  14.632  1.6081 -0.5715  0.7964
  378TIP3    H222626   4.770   3.161  14.645 -0.1749 -1.4614 -5.2816
  379TIP3   OH222627   1.243   1.768   4.016 -0.0556 -0.0105 -0.3994
  379TIP3    H122628   1.285   1.772   4.102 -1.4332  2.5662  0.1930
  379TIP3    H222629   1.314   1.748   3.955  1.0104 -1.3625  1.2515
  380TIP3   OH222630   0.122   5.709   3.501  0.0843  0.0589  0.5508
  380TIP3    H122631   0.136   5.700   3.407  0.4393  1.9526  0.4080
  380TIP3    H222632   0.205   5.685   3.541  0.3273  0.4623  0.2968
  381TIP3   OH222633   3.850   1.697   5.405  0.0205  0.2437  0.0734
  381TIP3    H122634   3.828   1.632   5.338  1.8297 -1.0229  0.6848
  381TIP3    H222635   3.766   1.738   5.426 -1.1396 -1.7586 -0.4501
  382TIP3   OH222636   6.329   5.211   3.205 -0.4282 -0.5538  0.3692
  382TIP3    H122637   6.255   5.151   3.209 -0.7200 -0.3206 -1.1676
  382TIP3    H222638   6.406   5.154   3.201 -0.7163 -0.8529 -1.3505
  383TIP3   OH222639   0.384   6.768  15.344  0.6186  0.3898  0.2990
  383TIP3    H122640   0.463   6.717  15.363  1.6980  1.9651  0.1114
  383TIP3    H222641   0.353   6.735  15.260  0.8883 -0.4540  0.5264
  384TIP3   OH222642   5.946   3.277  17.172  0.3092 -0.9783  1.0190
  384TIP3    H122643   5.910   3.363  17.192  2.0517 -0.2728  1.2274
  384TIP3    H222644   5.937   3.226  17.253  1.3852 -0.2260  1.6304
  385TIP3   OH222645   0.723   0.351   3.176 -0.2792 -0.2555  0.0869
  385TIP3    H122646   0.798   0.363   3.117  0.3802  1.7512  1.2813
  385TIP3    H222647   0.746   0.273   3.227  0.5417 -0.2188 -0.2122
  386TIP3   OH222648   0.293   3.911   1.515  0.3972 -0.0036  0.5104
  386TIP3    H122649   0.308   3.934   1.423 -0.4643  0.0872  0.3827
  386TIP3    H222650   0.258   3.991   1.555  2.0496  0.3691  1.2561
  387TIP3   OH222651   5.736   6.715   0.060 -0.8416  0.4738  0.5758
  387TIP3    H122652   5.713   6.624   0.077 -3.2449  0.6602 -1.2785
  387TIP3    H222653   5.663   6.765   0.096 -1.0704  1.4350 -1.1453
  388TIP3   OH222654   3.248   1.048   1.479 -0.3161  0.1876 -0.3165
  388TIP3    H122655   3.160   1.074   1.451  0.3976  0.5304 -2.2997
  388TIP3    H222656   3.272   1.114   1.544 -0.9811  0.9141 -0.7973
  389TIP3   OH222657   3.866   3.676   6.173  0.4839 -0.3664  0.5457
  389TIP3    H122658   3.800   3.635   6.117 -0.4156 -0.0793  1.3852
  389TIP3    H222659   3.830   3.669   6.262  2.0579 -1.1532  1.1458
  390TIP3   OH222660   1.499   3.837   1.438  0.1239 -0.0271 -0.1484
  390TIP3    H122661   1.516   3.911   1.497 -0.2692 -0.9333  1.1126
  390TIP3    H222662   1.567   3.844   1.371 -0.1878  1.7418 -0.2991
  391TIP3   OH222663   1.755   0.723  11.864  0.4786 -0.3481 -0.0618
  391TIP3    H122664   1.730   0.727  11.956  0.1278 -0.2874 -0.1608
  391TIP3    H222665   1.801   0.640  11.855 -0.8007 -1.0515 -0.1618
  392TIP3   OH222666   2.718   2.289  15.487  0.0400  0.2315 -0.1055
  392TIP3    H122667   2.804   2.251  15.501 -0.0277  0.2875  0.4820
  392TIP3    H222668   2.728   2.344  15.409  0.7832  0.9906  0.5089
  393TIP3   OH222669   0.902   4.269  13.994 -0.1196  0.7888 -0.1731
  393TIP3    H122670   0.859   4.345  13.953  0.4301  0.6309 -1.0546
  393TIP3    H222671   0.862   4.194  13.951  1.1387  0.6414 -1.1129
  394TIP3   OH222672   3.920   6.645  15.098  0.7871  0.5310  0.4455
  394TIP3    H122673   3.902   6.552  15.086  1.9847  0.0223  2.3318
  394TIP3    H222674   3.837   6.688  15.077  0.1060 -0.9948 -0.0641
  395TIP3   OH222675   3.087   2.689  12.838  0.1931 -0.3108  0.8067
  395TIP3    H122676   3.182   2.696  12.841  0.1985 -0.5913  1.2348
  395TIP3    H222677   3.070   2.626  12.768  0.2826  0.5813 -0.0335
  396TIP3   OH222678   2.822   0.183   1.522  0.4874  0.1102 -0.3329
  396TIP3    H122679   2.811   0.109   1.582 -1.4334  0.0457 -0.7516
  396TIP3    H222680   2.814   0.260   1.578  2.2143  0.0345  0.0570
  397TIP3   OH222681   0.506   6.296   0.042  0.6732 -0.4623 -0.1490
  397TIP3    H122682   0.453   6.369   0.010  0.8949 -0.4754 -0.5354
  397TIP3    H222683   0.557   6.268  -0.033  0.6566 -0.9573  0.0273
  398TIP3   OH222684   5.567   4.197  11.626  0.4726  0.2544 -0.0210
  398TIP3    H122685   5.649   4.226  11.667 -0.4091 -0.3924  2.2590
  398TIP3    H222686   5.565   4.103  11.640 -0.4074  0.1961 -0.5371
  399TIP3   OH222687   5.706   1.772   0.034  0.2201  0.0068 -0.1106
  399TIP3    H122688   5.653   1.826  -0.025 -0.7797  0.3977  1.1208
  399TIP3    H222689   5.693   1.683   0.002  0.7296  0.3456 -1.2772
  400TIP3   OH222690   3.103   2.425  13.995 -0.2277  0.0088  0.5476
  400TIP3    H122691   3.181   2.438  13.942 -1.3069 -1.5615 -1.4755
  400TIP3    H222692   3.039   2.487  13.960 -0.3435  0.3092  1.2799
  401TIP3   OH222693   5.941   1.072  16.447 -0.3635  0.4132  0.2075
  401TIP3    H122694   5.895   1.011  16.504 -2.2205  1.6773  0.0946
  401TIP3    H222695   6.016   1.022  16.415  1.2291 -0.0738  4.3628
  402TIP3   OH222696   2.908   2.664  15.110  0.4753  0.6635  0.0053
  402TIP3    H122697   2.996   2.629  15.099  0.7286  1.2469  0.1452
  402TIP3    H222698   2.921   2.757  15.130 -0.1576  0.6874  0.3339
  403TIP3   OH222699   0.048   3.226  12.324  1.3381  0.4339  0.3537
  403TIP3    H122700   0.073   3.297  12.264 -1.6332  0.4552 -0.9732
  403TIP3    H222701   0.027   3.152  12.266  0.2959 -0.1573  1.4526
  404TIP3   OH222702   1.873   3.038  12.441  0.4727 -0.2117  0.6595
  404TIP3    H122703   1.861   2.985  12.520 -1.2242  3.0678  2.7554
  404TIP3    H222704   1.951   3.090  12.459 -0.8624  1.7632  0.9845
  405TIP3   OH222705   1.668   6.029  11.740  0.7577  0.0691  0.3263
  405TIP3    H122706   1.739   6.025  11.804  1.0279 -0.4106  0.0056
  405TIP3    H222707   1.605   6.090  11.777  1.8585  1.3763  0.1119
  406TIP3   OH222708   3.740   1.947  13.947  0.0909  0.3133 -0.2870
  406TIP3    H122709   3.777   2.019  13.896 -0.4914  1.3025  0.6653
  406TIP3    H222710   3.758   1.868  13.895  4.0784  0.6414  0.4133
  407TIP3   OH222711   2.993   6.629  10.737  0.0492  0.1583 -0.2059
  407TIP3    H122712   3.027   6.609  10.650  0.1684  0.3804 -0.2095
  407TIP3    H222713   2.979   6.543  10.778 -0.6634  0.0358 -0.6920
  408TIP3   OH222714   0.292   6.395   1.217  0.0192 -0.5639  0.2134
  408TIP3    H122715   0.211   6.410   1.265  1.5337  1.1477  2.3451
  408TIP3    H222716   0.317   6.305   1.239  1.1264  0.4480  3.4805
  409TIP3   OH222717   6.547   5.898  15.696  0.4170  0.1960  0.2546
  409TIP3    H122718   6.497   5.932  15.622 -1.1259 -0.3709  1.0250
  409TIP3    H222719   6.498   5.822  15.725  0.7639  0.6663  2.1425
  410TIP3   OH222720   5.064   6.140  15.169  0.5107  0.2924  0.6447
  410TIP3    H122721   4.993   6.083  15.139  1.0379 -0.3043  0.5362
  410TIP3    H222722   5.020   6.222  15.191  0.0628  0.6160 -1.3803
  411TIP3   OH222723   1.144   4.881  14.836  0.5431  0.3509  0.2172
  411TIP3    H122724   1.076   4.855  14.899 -0.1527 -0.0423 -0.6973
  411TIP3    H222725   1.134   4.976  14.828 -0.5179  0.1705 -0.6325
  412TIP3   OH222726   6.489   0.497   6.033 -0.1005 -0.7371  0.1380
  412TIP3    H122727   6.434   0.422   6.012  0.0398 -0.5640 -0.8601
  412TIP3    H222728   6.577   0.460   6.041 -0.0688 -0.7203 -0.1173
  413TIP3   OH222729   3.088   3.858   2.816  0.1144 -0.0775 -0.0358
  413TIP3    H122730   3.043   3.805   2.751  0.2432  0.8986 -0.9282
  413TIP3    H222731   3.059   3.947   2.799  0.3727  0.2262  1.0611
  414TIP3   OH222732   1.775   1.549   1.047  0.1917 -0.0991 -0.2200
  414TIP3    H122733   1.738   1.519   1.130 -0.6663  1.5433  0.0073
  414TIP3    H222734   1.868   1.565   1.066  0.2254 -0.7148  0.1444
  415TIP3   OH222735   2.752   5.973  13.393 -0.4775  0.0823  0.3824
  415TIP3    H122736   2.670   5.977  13.442 -1.1133 -1.1931 -0.5275
  415TIP3    H222737   2.775   5.880  13.391 -1.3248 -0.1538 -3.0093
  416TIP3   OH222738   3.660   0.856  16.035  0.0104  0.2055  0.1717
  416TIP3    H122739   3.752   0.842  16.014  0.0354  0.3892  0.1645
  416TIP3    H222740   3.661   0.911  16.113 -0.0668 -1.1377  1.1563
  417TIP3   OH222741   0.143   3.848  14.858  0.2132 -0.0193 -0.0420
  417TIP3    H122742   0.128   3.940  14.835 -1.8417  0.1357  1.7581
  417TIP3    H222743   0.155   3.848  14.952 -1.5308 -1.7643  0.2156
  418TIP3   OH222744   5.283   0.642   3.852  0.3464  0.3407  0.0235
  418TIP3    H122745   5.319   0.619   3.938 -0.4477 -0.5863  0.1134
  418TIP3    H222746   5.327   0.584   3.791  2.4927  2.4417 -0.5083
  419TIP3   OH222747   3.711   1.790  16.010 -0.0113  0.5391  0.1302
  419TIP3    H122748   3.654   1.714  16.021  3.9304 -2.3730  1.4656
  419TIP3    H222749   3.732   1.818  16.099  1.2318  1.0724 -0.3160
  420TIP3   OH222750   6.661   3.679  14.060  0.4048  0.2554 -0.0890
  420TIP3    H122751   6.621   3.655  14.144  0.6830  2.3557  0.6883
  420TIP3    H222752   6.703   3.599  14.029  0.8173 -0.4033  2.0857
  421TIP3   OH222753   5.846   1.363  13.852 -0.2692  0.1953  0.1831
  421TIP3    H122754   5.794   1.426  13.801  0.1304  0.3071 -0.0910
  421TIP3    H222755   5.934   1.400  13.853 -0.1189 -0.1622  0.3614
  422TIP3   OH222756   2.282   3.891  13.759  0.3835 -0.4199  0.6252
  422TIP3    H122757   2.189   3.870  13.759  0.5086 -0.9947 -0.4400
  422TIP3    H222758   2.296   3.938  13.676  0.8830  0.3747  1.1536
  423TIP3   OH222759   0.828   4.482   3.456 -0.5239 -0.0152 -0.4295
  423TIP3    H122760   0.751   4.527   3.420 -0.8607 -2.5581 -3.0321
  423TIP3    H222761   0.900   4.542   3.441 -1.5824  1.3390 -0.2343
  424TIP3   OH222762   0.116   5.473   5.024 -0.0467  0.2460 -0.0682
  424TIP3    H122763   0.112   5.453   5.117  0.1845  0.4930 -0.0057
  424TIP3    H222764   0.062   5.552   5.014 -0.2267  0.1102 -0.1727
  425TIP3   OH222765   3.854   4.267   1.790  0.5291  0.1102  0.1822
  425TIP3    H122766   3.833   4.175   1.807  3.9958 -0.8844 -0.4584
  425TIP3    H222767   3.837   4.312   1.872 -0.7070 -1.1925  0.6552
  426TIP3   OH222768   2.305   6.350  16.657 -0.0865 -0.2048  0.2635
  426TIP3    H122769   2.300   6.365  16.563  0.1397  0.8576  0.4197
  426TIP3    H222770   2.276   6.432  16.697  2.7645  0.4514  1.1042
  427TIP3   OH222771   1.611   1.640   0.826  0.2324  0.0493  0.5303
  427TIP3    H122772   1.640   1.704   0.761  0.0043 -0.3819 -0.0022
  427TIP3    H222773   1.682   1.638   0.891 -0.0069  1.2170  0.8240
  428TIP3   OH222774   2.114   4.137   5.616  0.3692 -0.8915 -0.2938
  428TIP3    H122775   2.098   4.110   5.706  0.2054 -0.0677 -0.0746
  428TIP3    H222776   2.085   4.228   5.612  0.1316 -1.0026 -1.2460
  429TIP3   OH222777   2.458   4.040  12.436  0.3475  0.7943  0.4079
  429TIP3    H122778   2.386   4.024  12.497  0.3414  0.7516  0.3888
  429TIP3    H222779   2.462   4.135  12.427 -0.8574  0.7340 -0.9595
  430TIP3   OH222780   0.017   4.224   0.127  0.0187  0.3152 -0.0103
  430TIP3    H122781   0.073   4.265   0.192  0.8584 -0.4277 -0.2603
  430TIP3    H222782  -0.022   4.297   0.079  2.7852  0.8661 -1.5500
  431TIP3   OH222783   2.641   4.206   1.874 -0.2423 -0.2906  0.2376
  431TIP3    H122784   2.644   4.111   1.886  4.0036 -0.2199  0.4383
  431TIP3    H222785   2.665   4.220   1.783 -2.0498  0.5828 -0.1290
  432TIP3   OH222786   4.641   1.725  14.892 -0.2193  0.1284 -0.0937
  432TIP3    H122787   4.605   1.771  14.968 -0.5988  0.7961 -0.6669
  432TIP3    H222788   4.639   1.632  14.915  1.0087  0.4232  1.2792
  433TIP3   OH222789   3.837   2.012   3.223  0.3835  0.0346 -0.2541
  433TIP3    H122790   3.881   1.934   3.256  0.0698  0.6027  1.5452
  433TIP3    H222791   3.756   1.979   3.183  0.1929 -0.5704  0.6010
  434TIP3   OH222792   5.777   1.685   5.360 -0.8203  0.2848  0.5064
  434TIP3    H122793   5.746   1.603   5.323 -0.6443  0.8957 -1.0245
  434TIP3    H222794   5.809   1.735   5.285 -0.7405  1.6702  1.4422
  435TIP3   OH222795   1.874   2.360   5.267  0.3137  0.2375 -0.2154
  435TIP3    H122796   1.874   2.451   5.237 -0.6625  0.2663 -0.1295
  435TIP3    H222797   1.916   2.311   5.197  0.4595  0.6947 -0.4455
  436TIP3   OH222798   0.509   6.489  16.019  0.0951 -0.0519  0.2696
  436TIP3    H122799   0.568   6.561  16.039  0.7352  0.1338 -2.1846
  436TIP3    H222800   0.560   6.410  16.037 -0.1497  0.0750  1.6227
  437TIP3   OH222801   0.292   5.118  13.099  0.3137  0.4802 -0.9868
  437TIP3    H122802   0.379   5.138  13.065  0.5818 -1.3741 -1.4715
  437TIP3    H222803   0.239   5.103  13.021 -0.4199  1.5226 -0.6889
  438TIP3   OH222804   3.695   0.817   1.682 -0.0287 -0.0892  0.2834
  438TIP3    H122805   3.671   0.734   1.721  0.3691 -0.8159 -1.0006
  438TIP3    H222806   3.617   0.846   1.635  0.0192 -0.0404  0.2327
  439TIP3   OH222807   6.526   6.681  15.984 -0.7085  0.5603  0.2788
  439TIP3    H122808   6.612   6.657  15.950  0.1237 -2.3746  4.1134
  439TIP3    H222809   6.470   6.607  15.961 -1.5140  1.1508  0.3329
  440TIP3   OH222810   5.817   0.311   1.952  0.0088  0.2259 -0.3855
  440TIP3    H122811   5.747   0.315   2.016  0.9429  0.5437  0.6338
  440TIP3    H222812   5.784   0.253   1.883 -1.1018  0.0974  0.2451
  441TIP3   OH222813   2.493   6.319   2.804 -0.2102 -0.4200  0.5637
  441TIP3    H122814   2.427   6.254   2.826 -0.3671 -0.5398 -0.2722
  441TIP3    H222815   2.531   6.289   2.722 -0.3742  0.6082  0.1036
  442TIP3   OH222816   1.694   0.221  15.244  0.1428 -0.2093  0.0860
  442TIP3    H122817   1.703   0.232  15.339  0.9491  0.1588 -0.0227
  442TIP3    H222818   1.603   0.195  15.231 -0.4673  1.4576  0.8082
  443TIP3   OH222819   5.275   4.189  12.424  0.0672 -0.6573 -0.4734
  443TIP3    H122820   5.225   4.267  12.450 -0.0918 -0.3607 -1.6107
  443TIP3    H222821   5.221   4.148  12.357  0.4914 -1.3557 -0.3861
  444TIP3   OH222822   1.280   0.565   0.191  0.0789 -0.2361  0.0731
  444TIP3    H122823   1.223   0.525   0.125  0.2572 -0.7797  0.2402
  444TIP3    H222824   1.220   0.602   0.255 -0.1228  2.0818 -1.4146
  445TIP3   OH222825   1.528   5.412  11.704  0.0331 -0.1970 -0.4225
  445TIP3    H122826   1.504   5.352  11.633  0.3005  0.3510 -0.9855
  445TIP3    H222827   1.489   5.373  11.782 -0.6029 -0.6041 -0.9281
  446TIP3   OH222828   5.682   1.115   4.700  0.2769 -0.2711  0.4612
  446TIP3    H122829   5.682   1.051   4.772 -0.5997  0.1579  0.8472
  446TIP3    H222830   5.722   1.193   4.738  0.0539 -0.1311  0.4096
  447TIP3   OH222831   2.063   3.115  13.873  0.1693  0.0691  0.1871
  447TIP3    H122832   2.117   3.129  13.950  0.7726  0.7461 -0.3554
  447TIP3    H222833   2.122   3.129  13.799 -0.4005 -0.5886 -0.3993
  448TIP3   OH222834   1.257   3.743  16.671 -0.0003  0.7625 -0.2301
  448TIP3    H122835   1.217   3.830  16.671 -2.1679 -0.1838  0.6038
  448TIP3    H222836   1.346   3.757  16.638 -0.4282  3.2245 -0.4416
  449TIP3   OH222837   0.257   5.970   4.575  0.4592 -0.0525  0.4583
  449TIP3    H122838   0.231   5.938   4.488 -0.1060  1.4468  0.0620
  449TIP3    H222839   0.185   5.945   4.632  0.4606 -0.3315  0.3406
  450TIP3   OH222840   6.278   0.956  13.855 -0.3247  0.1517  0.4345
  450TIP3    H122841   6.216   0.971  13.927 -0.7090 -0.6840  0.2825
  450TIP3    H222842   6.315   0.870  13.873  0.2893  0.3505  0.1380
  451TIP3   OH222843   3.139   1.099  14.588 -0.0628 -0.0781  0.3428
  451TIP3    H122844   3.229   1.069  14.603 -1.2119 -2.6690  2.2871
  451TIP3    H222845   3.098   1.029  14.537 -0.8901  1.3139 -0.9557
  452TIP3   OH222846   1.744   1.450  15.068 -0.1444 -0.4178  0.0155
  452TIP3    H122847   1.719   1.377  15.124 -2.4709  0.4139  0.0960
  452TIP3    H222848   1.722   1.528  15.119  1.9500  0.3711 -0.2342
  453TIP3   OH222849   6.720   3.990   0.065 -0.2884 -0.9035 -0.1692
  453TIP3    H122850   6.744   3.949   0.148 -0.7212  2.0358  1.4584
  453TIP3    H222851   6.759   4.077   0.069 -0.7298 -0.5370 -2.8609
  454TIP3   OH222852   3.484   3.880   1.689 -0.4874  0.4314 -0.1220
  454TIP3    H122853   3.400   3.877   1.735 -0.5353 -0.6665 -0.2571
  454TIP3    H222854   3.504   3.788   1.669  1.4481  0.5320  1.1903
  455TIP3   OH222855   4.265   5.111  10.970 -0.5435  0.4565  0.3383
  455TIP3    H122856   4.271   5.024  11.010 -1.1195 -0.1593 -0.8873
  455TIP3    H222857   4.355   5.143  10.968 -0.4020  0.1313  1.3184
  456TIP3   OH222858   6.023   3.891  12.008 -0.4000  0.0951  0.3302
  456TIP3    H122859   5.932   3.888  11.978 -0.2860 -0.8653  0.0559
  456TIP3    H222860   6.037   3.982  12.033 -1.1362  0.4559 -0.5508
  457TIP3   OH222861   5.372   3.392  15.865  0.3130 -0.8866 -0.5612
  457TIP3    H122862   5.307   3.460  15.883  2.0358  0.4649  0.7359
  457TIP3    H222863   5.351   3.363  15.776 -2.3642 -0.8582  0.0161
  458TIP3   OH222864   6.717   3.070  16.956 -0.0464 -0.6616  0.7426
  458TIP3    H122865   6.657   3.017  16.903  1.1653 -0.8581 -0.4693
  458TIP3    H222866   6.776   3.110  16.892 -1.5636  3.0068  1.5324
  459TIP3   OH222867   1.746   4.725   1.279  0.4044 -0.2477 -0.0999
  459TIP3    H122868   1.651   4.712   1.275  0.4780 -0.8009 -0.0558
  459TIP3    H222869   1.781   4.662   1.217  0.7266  0.1565 -0.3276
  460TIP3   OH222870   3.087   2.616   2.358 -0.3110 -0.6596 -0.7424
  460TIP3    H122871   3.175   2.645   2.334 -0.8265  0.0722 -1.8127
  460TIP3    H222872   3.100   2.553   2.429  0.8967  1.4133  0.9037
  461TIP3   OH222873   0.520   0.140  10.584 -0.5576 -0.2139 -0.5495
  461TIP3    H122874   0.604   0.181  10.560  0.3888 -0.7871  1.6539
  461TIP3    H222875   0.470   0.211  10.624  0.0570 -0.5395  0.8450
  462TIP3   OH222876   4.823   1.673  11.685  0.2383 -0.2187 -0.9377
  462TIP3    H122877   4.834   1.723  11.605 -0.7974  0.6556 -0.5451
  462TIP3    H222878   4.896   1.700  11.741 -0.8621  1.5937 -0.3524
  463TIP3   OH222879   4.391   2.685   6.629 -0.4050 -0.6155 -0.3208
  463TIP3    H122880   4.439   2.603   6.637 -1.8243 -1.5666 -1.1813
  463TIP3    H222881   4.382   2.697   6.534  1.3652  1.4938 -0.2452
  464TIP3   OH222882   2.642   0.723  15.043  0.2575  0.1425  0.2272
  464TIP3    H122883   2.600   0.658  15.100  0.3799  0.5473  0.7861
  464TIP3    H222884   2.705   0.673  14.992 -0.1782 -0.3024  0.1187
  465TIP3   OH222885   4.302   2.752   4.137 -0.4039  0.0201 -0.4651
  465TIP3    H122886   4.230   2.704   4.096 -2.3470  2.5205 -0.1373
  465TIP3    H222887   4.266   2.784   4.220  1.4766  0.3272  0.2665
  466TIP3   OH222888   5.469   2.191  14.373  0.1126  0.0938 -0.4767
  466TIP3    H122889   5.499   2.277  14.343  0.5634 -0.1548 -0.7342
  466TIP3    H222890   5.384   2.180  14.331 -0.8119  1.2429  1.0613
  467TIP3   OH222891   5.148   5.445   5.233 -0.0238  0.5276 -0.4181
  467TIP3    H122892   5.238   5.422   5.257 -0.3797 -0.8282 -0.3654
  467TIP3    H222893   5.158   5.495   5.152  0.8023  0.7075 -0.2166
  468TIP3   OH222894   5.995   1.777   0.088 -0.0715  0.2242  0.1409
  468TIP3    H122895   5.900   1.790   0.080  0.0503  0.6576 -0.6652
  468TIP3    H222896   6.013   1.701   0.033  0.2088  0.8326 -0.6175
  469TIP3   OH222897   4.108   5.458   4.152 -0.7293 -0.3604 -0.3451
  469TIP3    H122898   4.104   5.435   4.245 -0.3666 -1.8592 -0.6817
  469TIP3    H222899   4.196   5.492   4.138 -0.8742  0.1188 -0.0802
  470TIP3   OH222900   2.187   2.186   3.065  0.1225  0.1536 -0.1696
  470TIP3    H122901   2.125   2.144   3.124 -1.1945  0.1435 -1.5254
  470TIP3    H222902   2.232   2.114   3.021  0.8310  0.1597  0.5533
  471TIP3   OH222903   2.605   6.279   0.766  0.1655  0.0049  0.1894
  471TIP3    H122904   2.510   6.285   0.777  0.2421  1.5325  0.1471
  471TIP3    H222905   2.619   6.301   0.674  0.4418 -1.7200 -0.1906
  472TIP3   OH222906   3.310   4.428   5.211  0.1113 -0.4577  0.0155
  472TIP3    H122907   3.313   4.338   5.178 -0.7813 -0.4531 -0.0958
  472TIP3    H222908   3.288   4.481   5.135  0.0390 -0.2149  0.2060
  473TIP3   OH222909   3.010   2.729  14.243  0.4197 -0.1983 -0.4263
  473TIP3    H122910   3.041   2.819  14.255  1.4284 -0.3442 -1.7573
  473TIP3    H222911   3.046   2.682  14.318  0.1676  0.4414  0.1024
  474TIP3   OH222912   0.207   3.657   0.806  0.0407  0.0413 -0.1382
  474TIP3    H122913   0.113   3.670   0.793  0.1469 -0.2543 -1.2990
  474TIP3    H222914   0.231   3.590   0.742  0.7613 -0.9774  1.1759
  475TIP3   OH222915   0.654   0.585  16.250 -0.0184  0.4375 -0.2068
  475TIP3    H122916   0.729   0.635  16.218 -0.5929  2.9749  2.1925
  475TIP3    H222917   0.665   0.585  16.346 -1.1894 -2.2281 -0.0476
  476TIP3   OH222918   6.791   3.383   2.718  0.5446 -0.4785 -0.0505
  476TIP3    H122919   6.813   3.290   2.724 -0.3317 -0.5798  1.8975
  476TIP3    H222920   6.845   3.425   2.785 -1.4423 -0.0594  1.3329
  477TIP3   OH222921   2.413   4.198  13.861  0.2498  0.0707  0.1268
  477TIP3    H122922   2.450   4.204  13.773  0.5978 -0.6603  0.2225
  477TIP3    H222923   2.487   4.219  13.919  0.5399 -1.4648  0.3192
  478TIP3   OH222924   4.123   0.488   5.911 -0.1297  0.1271 -0.1309
  478TIP3    H122925   4.114   0.484   6.007  0.8673 -0.1437 -0.0437
  478TIP3    H222926   4.190   0.424   5.890  0.9536  1.4496 -0.8207
  479TIP3   OH222927   0.203   2.744   5.484 -0.4765 -0.2590  0.1952
  479TIP3    H122928   0.118   2.714   5.453 -0.7590  1.2851 -0.6051
  479TIP3    H222929   0.183   2.824   5.533  0.3957 -0.4979  0.9589
  480TIP3   OH222930   0.310   2.339   4.043 -0.3485  0.7962  0.5481
  480TIP3    H122931   0.255   2.416   4.029  0.9232  1.4219 -1.1596
  480TIP3    H222932   0.261   2.267   4.003 -0.5539  1.1130  0.2274
  481TIP3   OH222933   6.211   5.271   2.890 -0.4801 -0.4208 -0.3283
  481TIP3    H122934   6.246   5.306   2.808 -1.6731  1.0729 -0.2269
  481TIP3    H222935   6.245   5.182   2.895 -0.9561 -0.7720 -2.7966
  482TIP3   OH222936   4.147   4.370  15.838 -0.0124 -0.1539  0.0746
  482TIP3    H122937   4.116   4.441  15.894  1.0105 -0.0129  0.4739
  482TIP3    H222938   4.128   4.290  15.888  0.2654 -0.0696  0.3118
  483TIP3   OH222939   5.222   4.097   5.627 -0.3642  0.0522 -0.2668
  483TIP3    H122940   5.213   4.052   5.543  1.4781 -0.2201 -0.3410
  483TIP3    H222941   5.218   4.028   5.692 -0.0275  0.0660 -0.2325
  484TIP3   OH222942   4.045   0.807   5.793 -0.4787  0.6504 -0.1124
  484TIP3    H122943   4.133   0.836   5.770  0.1509 -1.0924  0.0888
  484TIP3    H222944   4.050   0.712   5.796 -2.3074  0.5379  0.1661
  485TIP3   OH222945   4.242   3.007  12.832  0.2643  0.1940 -0.3310
  485TIP3    H122946   4.273   2.916  12.829  0.8691  0.4653 -3.5578
  485TIP3    H222947   4.311   3.053  12.880  0.2735 -0.8907  0.7440
  486TIP3   OH222948   1.448   1.091  14.110  0.2039  0.1279 -0.1799
  486TIP3    H122949   1.525   1.142  14.134 -0.1640  0.3726  0.4790
  486TIP3    H222950   1.470   1.053  14.025  2.3381 -2.4790  1.4617
  487TIP3   OH222951   4.300   5.548   4.859 -0.7496 -0.6450 -0.0062
  487TIP3    H122952   4.210   5.581   4.861  0.1554  1.8383  0.0778
  487TIP3    H222953   4.317   5.519   4.949 -1.2583 -0.6162  0.1023
  488TIP3   OH222954   2.271   5.430  11.821  0.2305  0.4831  0.0517
  488TIP3    H122955   2.240   5.409  11.733  2.0299  0.4082 -0.5848
  488TIP3    H222956   2.358   5.466  11.807  0.4436  0.6638  1.8030
  489TIP3   OH222957   6.531   1.188   0.165 -0.9711 -0.2306  0.4098
  489TIP3    H122958   6.546   1.125   0.095 -0.6390 -1.4442  1.5580
  489TIP3    H222959   6.503   1.268   0.120  0.5565 -0.5641 -1.2041
  490TIP3   OH222960   1.025   2.563  11.115 -0.3710 -0.0437  0.2945
  490TIP3    H122961   0.967   2.494  11.083 -0.7187  0.7918 -0.8831
  490TIP3    H222962   1.087   2.517  11.172 -0.6809 -1.3070 -0.3772
  491TIP3   OH222963   0.427   2.562  13.182  0.6287  0.3484  0.2153
  491TIP3    H122964   0.447   2.517  13.100  0.0490 -0.6366  0.6018
  491TIP3    H222965   0.451   2.654  13.166  0.5400  0.1638 -1.0464
  492TIP3   OH222966   1.364   1.926  11.278  0.0971  0.1297 -0.3964
  492TIP3    H122967   1.454   1.951  11.258 -0.0130  0.3315 -0.6421
  492TIP3    H222968   1.349   1.957  11.367  0.1973  0.2997 -0.4382
  493TIP3   OH222969   5.295   0.791  12.879  0.2721  0.5453  0.6094
  493TIP3    H122970   5.219   0.749  12.840  1.0006  1.4466 -1.9295
  493TIP3    H222971   5.273   0.884  12.880  0.1059  0.4934  2.7933
  494TIP3   OH222972   1.284   0.589   5.394  0.1412  0.6359  0.3413
  494TIP3    H122973   1.303   0.660   5.332 -0.9197 -0.2978 -1.0842
  494TIP3    H222974   1.320   0.511   5.352  1.7438  0.3808  2.1343
  495TIP3   OH222975   2.612   0.271   3.350  0.4738  0.3218  0.6513
  495TIP3    H122976   2.613   0.311   3.437 -1.6834 -0.2857  0.9675
  495TIP3    H222977   2.587   0.180   3.365 -0.1737  0.2758 -0.6317
  496TIP3   OH222978   3.291   5.367   2.133 -0.3982  0.6076 -0.3407
  496TIP3    H122979   3.349   5.412   2.072 -0.3706  1.3975  0.2683
  496TIP3    H222980   3.205   5.368   2.090  0.2194 -1.4508 -1.7033
  497TIP3   OH222981   5.673   5.259  11.427 -0.3274  0.3225 -0.1359
  497TIP3    H122982   5.652   5.176  11.384 -0.5897  1.4939 -2.3369
  497TIP3    H222983   5.690   5.320  11.355 -0.0868  2.1818  1.4457
  498TIP3   OH222984   0.524   3.876  15.481  0.6049  0.5835 -0.6081
  498TIP3    H122985   0.582   3.953  15.480 -0.0821  1.0927 -1.7023
  498TIP3    H222986   0.570   3.811  15.428  0.2121  0.9642 -1.4201
  499TIP3   OH222987   3.465   4.484  12.371  0.1079  0.3310 -0.0964
  499TIP3    H122988   3.530   4.445  12.312 -0.3300  0.5472 -0.7283
  499TIP3    H222989   3.401   4.525  12.312  0.1947  1.4139  0.5414
  500TIP3   OH222990   3.990   1.568   1.040 -0.8857 -0.3667  0.0352
  500TIP3    H122991   3.970   1.601   1.127 -3.3213  1.0593 -1.0299
  500TIP3    H222992   3.986   1.473   1.049 -0.1022 -0.2529  1.6931
  501TIP3   OH222993   2.915   3.491   5.320  0.1461  0.3307  0.2031
  501TIP3    H122994   2.884   3.488   5.411  1.2481  0.9820  0.6126
  501TIP3    H222995   2.981   3.422   5.315 -1.9880 -1.6993 -0.9311
  502TIP3   OH222996   4.013   1.721  13.235 -0.1938 -0.4293 -0.5443
  502TIP3    H122997   3.968   1.647  13.194 -1.6003 -0.1755  0.5096
  502TIP3    H222998   4.074   1.681  13.297 -0.0328 -0.7410 -0.9041
  503TIP3   OH222999   1.292   6.168   4.887  0.5564  0.1136  0.4673
  503TIP3    H123000   1.231   6.164   4.961  0.0598  1.8757  0.1928
  503TIP3    H223001   1.378   6.171   4.927  0.3086  0.5957  0.9788
  504TIP3   OH223002   1.834   5.251   5.358 -0.3788  0.7449  0.3316
  504TIP3    H123003   1.834   5.306   5.437  1.8292  0.5668  0.4837
  504TIP3    H223004   1.925   5.222   5.350 -0.9496 -0.5941 -1.3487
  505TIP3   OH223005   2.668   0.274  12.478  0.1037  0.1393 -0.1786
  505TIP3    H123006   2.630   0.359  12.497 -1.3472 -0.2267 -1.3517
  505TIP3    H223007   2.626   0.214  12.540 -0.3389 -0.0487 -0.6515
  506TIP3   OH223008   2.541   2.121  14.761  0.6495  0.1694  0.1585
  506TIP3    H123009   2.635   2.138  14.758  1.2646 -3.0166  0.0525
  506TIP3    H223010   2.511   2.169  14.839  2.9716 -1.5555  2.1861
  507TIP3   OH223011   5.090   5.663  14.097  0.0219 -0.2921  0.3079
  507TIP3    H123012   5.139   5.666  14.179  0.0742 -0.4669  0.2844
  507TIP3    H223013   5.061   5.753  14.082 -0.2047 -0.3111  0.6505
  508TIP3   OH223014   1.326   2.773  16.029  0.1330 -0.1329  0.0186
  508TIP3    H123015   1.272   2.724  16.091 -0.1190 -0.1195 -0.1908
  508TIP3    H223016   1.407   2.721  16.021  0.6471  0.4683  1.2487
  509TIP3   OH223017   4.615   1.102  14.630 -0.3318  0.3464 -0.3558
  509TIP3    H123018   4.520   1.112  14.620 -0.1163  1.6216 -1.1018
  509TIP3    H223019   4.650   1.113  14.542  0.5871  0.6703  0.0491
  510TIP3   OH223020   4.388   1.443  11.812 -0.1191 -0.2163 -0.0891
  510TIP3    H123021   4.319   1.390  11.772  0.5833 -0.7495 -0.6162
  510TIP3    H223022   4.447   1.463  11.739 -0.8231  2.0096 -0.0681
  511TIP3   OH223023   6.461   0.669  15.751  0.4635 -1.1732  0.2599
  511TIP3    H123024   6.445   0.590  15.803 -0.5058 -0.3108  1.3042
  511TIP3    H223025   6.524   0.642  15.684 -2.0123 -3.5390 -1.1871
  512TIP3   OH223026   3.414   2.157  15.766 -0.3466 -0.1132 -0.3251
  512TIP3    H123027   3.466   2.235  15.787 -1.6568  0.2279  1.7199
  512TIP3    H223028   3.347   2.153  15.834 -0.9705 -2.4304 -1.0223
  513TIP3   OH223029   4.013   0.328  16.959 -0.7187 -0.4552 -0.1664
  513TIP3    H123030   3.969   0.394  16.906  0.1093 -1.7397 -2.5347
  513TIP3    H223031   4.084   0.376  17.003 -0.8504  0.4587 -0.9422
  514TIP3   OH223032   5.920   3.326  12.984  1.0037 -0.0082  0.0995
  514TIP3    H123033   5.901   3.391  13.052  0.9792  0.7144 -0.5903
  514TIP3    H223034   5.890   3.243  13.021 -1.2305  0.7415  0.0012
  515TIP3   OH223035   3.702   0.687  16.404 -0.8857  0.5557  0.3815
  515TIP3    H123036   3.758   0.765  16.401  2.0615 -1.5056  0.2289
  515TIP3    H223037   3.672   0.683  16.495  1.0113  0.4863  1.0274
  516TIP3   OH223038   3.951   4.543   6.227 -0.0995  0.1556  0.1960
  516TIP3    H123039   3.866   4.583   6.247 -0.6006  1.3654 -3.8482
  516TIP3    H223040   3.931   4.478   6.160  2.0031 -0.4431  0.1306
  517TIP3   OH223041   3.301   3.015   5.747  0.2053  0.1375 -0.5060
  517TIP3    H123042   3.300   3.049   5.836 -0.7843 -1.7918  0.2601
  517TIP3    H223043   3.243   3.073   5.698 -1.3476 -0.3169  0.7372
  518TIP3   OH223044   2.986   6.036  13.600 -0.2997 -0.5183  0.2400
  518TIP3    H123045   2.925   6.106  13.620  1.1188  1.0014 -0.6583
  518TIP3    H223046   2.963   6.008  13.511  0.5497  0.3189 -0.2477
  519TIP3   OH223047   2.304   2.044   1.387 -0.7471 -0.4294  0.6741
  519TIP3    H123048   2.327   2.074   1.300 -0.8832 -1.2178  0.3605
  519TIP3    H223049   2.209   2.057   1.392 -0.9729 -1.7520  0.1496
  520TIP3   OH223050   1.255   4.612   3.701  0.6785 -0.0262  0.0946
  520TIP3    H123051   1.247   4.662   3.782 -0.4000 -0.6403  0.3680
  520TIP3    H223052   1.167   4.580   3.683  1.4474 -2.3273  0.2278
  521TIP3   OH223053   2.166   0.995  12.245 -0.0236  0.1004  0.0385
  521TIP3    H123054   2.135   1.038  12.165 -0.6602 -0.8641 -0.2393
  521TIP3    H223055   2.252   1.033  12.261  0.0016  0.4690 -0.9747
  522TIP3   OH223056   3.984   3.461  15.705 -0.2205  0.3902  0.5714
  522TIP3    H123057   3.919   3.391  15.699  0.5126 -0.1786 -0.8179
  522TIP3    H223058   3.944   3.535  15.660 -0.5000  0.5086  1.0049
  523TIP3   OH223059   1.029   3.573   4.944  0.7393 -0.3764 -0.7062
  523TIP3    H123060   1.056   3.634   5.013  0.9523 -1.6664  0.3967
  523TIP3    H223061   0.936   3.590   4.931  1.4082  2.1794 -2.5186
  524TIP3   OH223062   3.304   1.989  12.720  0.2960 -0.1464 -0.3987
  524TIP3    H123063   3.222   2.025  12.752 -1.1625 -2.2042 -1.7074
  524TIP3    H223064   3.340   2.057  12.664 -0.8671  0.4970 -0.3747
  525TIP3   OH223065   6.062   0.533   3.508 -0.1113  1.0601  0.3996
  525TIP3    H123066   6.029   0.462   3.562 -1.2919  1.0761 -0.2829
  525TIP3    H223067   6.142   0.561   3.552 -0.4238  0.2963  1.4862
  526TIP3   OH223068   3.822   5.987  16.547  0.4209 -0.0488  0.0019
  526TIP3    H123069   3.775   6.035  16.479  2.8700 -0.2207 -1.8609
  526TIP3    H223070   3.774   5.904  16.555 -1.6550  1.1689  0.6630
  527TIP3   OH223071   0.417   5.321   6.067 -0.2967  0.0271 -0.6534
  527TIP3    H123072   0.409   5.406   6.025  1.7102  0.0181 -1.1520
  527TIP3    H223073   0.334   5.307   6.112 -1.9220  0.7335 -3.3662
  528TIP3   OH223074   1.938   3.376  13.719 -0.5617 -0.1868 -0.0772
  528TIP3    H123075   1.845   3.398  13.720 -0.2920  1.2018 -2.4720
  528TIP3    H223076   1.979   3.442  13.663  1.9470 -0.5015  1.2849
  529TIP3   OH223077   0.184   4.864  10.384  0.2155  0.1177 -0.1289
  529TIP3    H123078   0.143   4.950  10.375  1.5053  0.6045 -1.8579
  529TIP3    H223079   0.121   4.803  10.347 -0.5303  0.3656  0.7211
  530TIP3   OH223080   5.727   4.384  13.305 -0.1510  0.6352 -0.7310
  530TIP3    H123081   5.637   4.355  13.296 -0.3247  1.0567 -0.3401
  530TIP3    H223082   5.721   4.478  13.322  0.3720  0.7245 -1.0192
  531TIP3   OH223083   3.707   4.568  16.537 -0.4948  0.3841 -0.1314
  531TIP3    H123084   3.709   4.481  16.577  0.7624 -0.2732 -1.5762
  531TIP3    H223085   3.653   4.557  16.459  2.0691  0.1564 -1.9281
  532TIP3   OH223086   3.564   1.836   3.225  0.0473 -0.0516  0.0355
  532TIP3    H123087   3.525   1.904   3.280  2.4466  3.1143 -1.9249
  532TIP3    H223088   3.621   1.786   3.284 -1.2226  0.0727  1.3785
  533TIP3   OH223089   0.189   2.726  15.713  0.4974 -0.8383  0.0816
  533TIP3    H123090   0.202   2.677  15.632  2.9962  1.3451 -0.9033
  533TIP3    H223091   0.135   2.801  15.687 -1.7302 -1.9962  1.2055
  534TIP3   OH223092   3.976   0.907  16.217  0.0443 -0.6297 -0.3246
  534TIP3    H123093   3.938   0.832  16.170  1.8149 -1.1444 -0.9697
  534TIP3    H223094   3.968   0.884  16.309 -3.3212  0.3108 -0.3196
  535TIP3   OH223095   2.506   3.383   6.006 -0.0389 -0.4226  0.0125
  535TIP3    H123096   2.564   3.334   6.064  0.5307  2.1936  1.7437
  535TIP3    H223097   2.429   3.402   6.059 -0.5777 -0.0747 -0.8773
  536TIP3   OH223098   4.346   5.462   1.780 -0.3624 -0.1664 -0.1456
  536TIP3    H123099   4.420   5.431   1.728  0.1983  2.0363 -0.6927
  536TIP3    H223100   4.354   5.413   1.863 -0.4061 -2.5755 -1.5117
  537TIP3   OH223101   6.706   3.583   1.844 -0.2780  0.6407  0.4188
  537TIP3    H123102   6.790   3.550   1.812 -0.6767 -0.6312  0.6465
  537TIP3    H223103   6.724   3.672   1.872  0.6107  0.9642 -1.1479
  538TIP3   OH223104   6.246   3.729   4.162  0.1067  0.2368 -0.2814
  538TIP3    H123105   6.190   3.699   4.233  2.4320 -2.4317  0.5325
  538TIP3    H223106   6.259   3.823   4.179 -0.1982 -0.1478  2.2397
  539TIP3   OH223107   6.365   0.289   3.779 -0.0472 -0.7077  0.2316
  539TIP3    H123108   6.365   0.240   3.861  4.2107  0.0190  0.7547
  539TIP3    H223109   6.393   0.377   3.803 -0.7816  0.1015 -1.7268
  540TIP3   OH223110   4.717   1.662  13.712  0.5035  0.1239 -0.0370
  540TIP3    H123111   4.723   1.665  13.616  0.5218 -1.1813 -0.0756
  540TIP3    H223112   4.729   1.753  13.739  2.8553  0.1719 -1.1262
  541TIP3   OH223113   4.793   2.191  13.695  0.0387 -0.1700 -0.2961
  541TIP3    H123114   4.706   2.156  13.713  0.1922  0.0454  0.9388
  541TIP3    H223115   4.848   2.113  13.682  0.0033 -0.3538  0.6150
  542TIP3   OH223116   1.715   0.261  12.149 -0.5163  0.0891 -0.5549
  542TIP3    H123117   1.805   0.295  12.151 -0.9456  1.2513 -0.7026
  542TIP3    H223118   1.660   0.339  12.140 -1.5384 -0.6275 -0.5877
  543TIP3   OH223119   4.410   2.091   4.736 -0.1285 -0.2732  0.0367
  543TIP3    H123120   4.428   2.184   4.718 -1.8458  0.3014  1.0764
  543TIP3    H223121   4.433   2.080   4.828  0.6840 -1.0505 -0.2609
  544TIP3   OH223122   4.470   5.968   2.511  0.1153 -0.1650 -0.5845
  544TIP3    H123123   4.475   5.927   2.597  1.8009  1.3608  0.0784
  544TIP3    H223124   4.520   5.909   2.454 -0.7244 -1.0041 -0.4673
  545TIP3   OH223125   5.298   4.399  14.086  0.0451  0.7124  0.3371
  545TIP3    H123126   5.367   4.383  14.021  0.1838  0.6637  0.4953
  545TIP3    H223127   5.300   4.321  14.142  0.2246  0.9529  0.6647
  546TIP3   OH223128   2.978   3.076   0.741 -0.3662 -0.9753 -0.4187
  546TIP3    H123129   2.935   3.081   0.655  0.5043 -4.0101 -1.0899
  546TIP3    H223130   3.070   3.058   0.721 -0.0894 -1.3570  1.1487
  547TIP3   OH223131   2.374   0.330  12.288 -0.6057 -0.5638  0.7333
  547TIP3    H123132   2.325   0.365  12.362 -3.4039 -2.8934  0.0371
  547TIP3    H223133   2.348   0.384  12.214 -1.9719 -1.6532  0.4095
  548TIP3   OH223134   1.286   2.355   4.912  0.0544 -0.5792 -0.4151
  548TIP3    H123135   1.209   2.298   4.907  1.0638 -1.9364 -0.9375
  548TIP3    H223136   1.348   2.306   4.966 -0.0629  1.2510  1.4323
  549TIP3   OH223137   5.736   3.933  11.101  0.6033 -0.4340 -0.6227
  549TIP3    H123138   5.764   3.971  11.184 -0.5100 -0.6989 -0.1136
  549TIP3    H223139   5.802   3.867  11.080  1.3574  0.2402 -0.4001
  550TIP3   OH223140   5.877   2.637   0.381  0.3783  0.1622 -0.3055
  550TIP3    H123141   5.831   2.671   0.457 -0.4960 -0.8724 -0.3624
  550TIP3    H223142   5.930   2.565   0.414 -0.1630 -0.4256 -0.7003
  551TIP3   OH223143   0.088   4.258   5.344  0.0941 -0.0378 -0.4326
  551TIP3    H123144   0.031   4.313   5.398 -0.8904 -1.6077  0.1728
  551TIP3    H223145   0.170   4.252   5.394  0.1824  0.8280 -0.4748
  552TIP3   OH223146   1.590   2.110   0.909  0.4235 -0.0059  0.0569
  552TIP3    H123147   1.509   2.160   0.921  0.9442  0.9913 -0.5551
  552TIP3    H223148   1.590   2.085   0.817  0.8677  0.1167  0.0182
  553TIP3   OH223149   0.897   2.521   3.497 -0.1899  0.0950 -0.6750
  553TIP3    H123150   0.978   2.536   3.547  0.5984 -0.7187 -1.6817
  553TIP3    H223151   0.863   2.439   3.532 -0.5833  0.4372 -0.2521
  554TIP3   OH223152   4.288   6.444  16.380 -0.1158  0.1000  0.3561
  554TIP3    H123153   4.304   6.381  16.450 -3.1036 -0.3849  0.6653
  554TIP3    H223154   4.255   6.522  16.425 -1.1053  0.1364 -0.4108
  555TIP3   OH223155   1.709   3.494  15.376 -0.3160  0.5233  0.1379
  555TIP3    H123156   1.676   3.423  15.322  1.2257  0.1193 -0.3152
  555TIP3    H223157   1.631   3.542  15.404 -1.3193 -0.9012 -0.1565
  556TIP3   OH223158   1.051   3.215   2.709  0.1918 -0.0709 -0.2241
  556TIP3    H123159   1.121   3.150   2.708  0.1760 -0.0747 -1.2898
  556TIP3    H223160   1.096   3.299   2.706  0.1302 -0.0892 -3.7403
  557TIP3   OH223161   1.470   4.298   1.341 -0.3410 -0.7845  0.0409
  557TIP3    H123162   1.453   4.213   1.299 -0.6726  0.2864 -2.0601
  557TIP3    H223163   1.385   4.328   1.371 -0.4238 -0.6140 -0.3607
  558TIP3   OH223164   5.739   5.778   3.724 -0.1827  0.1427 -0.5990
  558TIP3    H123165   5.716   5.689   3.751 -0.6392  1.1292  2.4542
  558TIP3    H223166   5.786   5.814   3.800  0.7057  2.2458 -2.1089
  559TIP3   OH223167   3.662   1.528  16.520 -0.1862  0.0216  0.6198
  559TIP3    H123168   3.711   1.482  16.452  0.6339 -0.1433  1.3148
  559TIP3    H223169   3.571   1.512  16.499  0.0060  1.4346 -1.4701
  560TIP3   OH223170   0.056   1.004   3.887  0.1298 -0.5214  0.6706
  560TIP3    H123171   0.126   0.939   3.879 -0.7192 -1.3006 -0.7674
  560TIP3    H223172   0.089   1.081   3.842  1.0325 -0.0351  2.1385
  561TIP3   OH223173   6.517   3.330  12.143  0.1011 -0.5387 -0.2871
  561TIP3    H123174   6.568   3.322  12.062 -0.4324  0.7476 -0.7677
  561TIP3    H223175   6.428   3.351  12.114 -0.5453 -2.0566  0.5726
  562TIP3   OH223176   6.515   4.877  16.457 -0.2709 -0.0002  0.6387
  562TIP3    H123177   6.562   4.804  16.416 -0.9104 -1.2880  2.1358
  562TIP3    H223178   6.537   4.953  16.404  3.3607 -0.5999  1.1799
  563TIP3   OH223179   6.214   4.021  16.413  0.1068 -0.4409 -0.2930
  563TIP3    H123180   6.262   3.966  16.351  1.2217 -0.8375  0.8973
  563TIP3    H223181   6.240   3.988  16.499 -0.3475  0.9975  0.4105
  564TIP3   OH223182   2.699   4.503  11.151  0.1563  0.3542  0.3770
  564TIP3    H123183   2.650   4.444  11.208  0.0719  0.8722  0.8414
  564TIP3    H223184   2.682   4.590  11.186  1.4504  0.5371  0.5938
  565TIP3   OH223185   0.526   3.594   5.577  0.4092 -0.3740  0.0550
  565TIP3    H123186   0.518   3.557   5.489  0.5851 -0.5035  0.0928
  565TIP3    H223187   0.561   3.522   5.630 -2.6808 -1.3358  0.9409
  566TIP3   OH223188   1.899   0.216  16.355 -0.1318  0.4278 -0.2084
  566TIP3    H123189   1.827   0.253  16.303  0.2554 -0.5052 -1.4408
  566TIP3    H223190   1.909   0.127  16.321  3.2610  1.3325 -1.8278
  567TIP3   OH223191   4.277   3.010   2.616 -0.1331 -0.2506 -0.0767
  567TIP3    H123192   4.309   3.100   2.625  0.7118 -0.6341  0.9542
  567TIP3    H223193   4.184   3.019   2.599 -0.4891  0.7983  2.1471
  568TIP3   OH223194   6.684   4.000   3.945  0.4412 -0.8044 -0.0463
  568TIP3    H123195   6.770   3.979   3.908  0.0029 -3.0235  0.1335
  568TIP3    H223196   6.622   3.959   3.884 -0.3774 -1.9780  1.5549
  569TIP3   OH223197   1.257   5.728  16.926  0.2435 -0.3577 -1.1958
  569TIP3    H123198   1.294   5.651  16.883 -2.4293 -1.9432 -0.7794
  569TIP3    H223199   1.220   5.780  16.855  0.3930 -0.4133 -1.3143
  570TIP3   OH223200   2.868   5.566   3.345  0.3044 -0.1629 -0.0688
  570TIP3    H123201   2.839   5.628   3.278 -0.1177 -0.2286  0.0545
  570TIP3    H223202   2.802   5.572   3.414 -0.8315 -2.1978 -0.9265
  571TIP3   OH223203   1.335   0.272  12.551 -0.0641 -0.3540  0.3756
  571TIP3    H123204   1.405   0.320  12.507  0.3422 -1.3495 -0.0690
  571TIP3    H223205   1.376   0.192  12.583 -0.8138 -0.5747  0.8003
  572TIP3   OH223206   3.302   4.176  16.323  0.4859  0.1802 -0.0979
  572TIP3    H123207   3.332   4.115  16.256  0.2510 -0.5328  0.4351
  572TIP3    H223208   3.380   4.224  16.349  0.3019  1.4840 -1.9202
  573TIP3   OH223209   0.853   2.316   0.379 -0.6599 -0.0238  0.7042
  573TIP3    H123210   0.789   2.387   0.380 -0.1011  0.5352 -1.2637
  573TIP3    H223211   0.812   2.249   0.324  0.7002  0.5993 -1.1051
  574TIP3   OH223212   1.454   5.792   4.290  0.1953 -0.2121  0.0977
  574TIP3    H123213   1.507   5.734   4.345  0.1510 -0.6575 -0.3270
  574TIP3    H223214   1.391   5.832   4.350  0.1709 -0.6686  0.3725
  575TIP3   OH223215   4.424   4.161  15.276 -0.3086  0.3521  0.2698
  575TIP3    H123216   4.516   4.146  15.252 -0.3912  0.9738 -0.4158
  575TIP3    H223217   4.404   4.088  15.335 -0.2979 -1.5864 -2.0286
  576TIP3   OH223218   4.521   6.049   0.884  0.2803  0.3125 -0.1987
  576TIP3    H123219   4.484   6.013   0.803  1.4530 -0.6254 -0.3302
  576TIP3    H223220   4.606   6.085   0.858 -0.1719  1.7368  0.2567
  577TIP3   OH223221   3.524   3.430  11.024  0.0643 -0.5458  0.1091
  577TIP3    H123222   3.591   3.462  11.085  0.7468 -1.3003 -0.2350
  577TIP3    H223223   3.573   3.404  10.946 -0.8122  0.5154 -0.8159
  578TIP3   OH223224   1.393   1.341   2.501 -0.3903 -0.5556 -0.2378
  578TIP3    H123225   1.328   1.277   2.531 -0.4029 -0.2798  0.3244
  578TIP3    H223226   1.422   1.385   2.581 -1.4685  1.1785 -0.7614
  579TIP3   OH223227   5.879   3.730   2.825  0.7247 -0.6622  0.1937
  579TIP3    H123228   5.830   3.788   2.883  1.1355 -0.5659  0.4466
  579TIP3    H223229   5.863   3.642   2.859 -0.4509 -0.7715 -0.5946
  580TIP3   OH223230   3.292   0.308  13.172  0.3209  0.1523  0.1557
  580TIP3    H123231   3.333   0.257  13.241  0.4855 -2.3501 -1.7023
  580TIP3    H223232   3.363   0.326  13.110 -0.7411 -1.8341 -1.7183
  581TIP3   OH223233   2.535   1.660  15.554  0.3859 -0.0864 -0.3111
  581TIP3    H123234   2.507   1.592  15.493  2.6655 -1.0932 -0.2829
  581TIP3    H223235   2.506   1.742  15.513  0.7961 -0.8319 -2.1372
  582TIP3   OH223236   2.895   3.276  16.267 -0.2533  0.1212 -0.1244
  582TIP3    H123237   2.962   3.209  16.252 -0.0795  0.7351 -2.2748
  582TIP3    H223238   2.812   3.229  16.263 -0.0760 -0.1746 -0.3847
  583TIP3   OH223239   3.254   3.878   4.754  0.5574  0.8981  0.3968
  583TIP3    H123240   3.199   3.911   4.826 -0.3053  0.5637 -0.1110
  583TIP3    H223241   3.297   3.801   4.791  0.6939  1.1589  0.7927
  584TIP3   OH223242   1.809   4.463  17.163  0.6574  0.6796  0.0000
  584TIP3    H123243   1.814   4.381  17.213  0.8384  1.2972  0.9977
  584TIP3    H223244   1.893   4.468  17.118  0.9453  0.6950  0.5331
  585TIP3   OH223245   4.740   3.919  16.944 -0.0644  0.0869  0.5956
  585TIP3    H123246   4.832   3.904  16.922 -0.3223 -1.7135  0.6561
  585TIP3    H223247   4.704   3.962  16.867  0.5258 -0.4193  0.0206
  586TIP3   OH223248   2.635   3.142  15.342  0.1328  0.3289 -0.0478
  586TIP3    H123249   2.631   3.054  15.380  1.6340  0.5695  0.6816
  586TIP3    H223250   2.642   3.126  15.248  2.7778 -0.4215  0.2248
  587TIP3   OH223251   4.592   1.786  15.715  0.0970 -0.0302 -0.3984
  587TIP3    H123252   4.496   1.790  15.721  0.0345  1.1445 -1.8983
  587TIP3    H223253   4.610   1.710  15.661 -0.0631  0.5589 -1.3011
  588TIP3   OH223254   1.923   6.120   4.155  0.1840 -0.5718  0.3011
  588TIP3    H123255   1.952   6.211   4.168 -2.5605  0.3335  0.4537
  588TIP3    H223256   1.865   6.124   4.079  0.0454 -2.2040  0.3067
  589TIP3   OH223257   1.345   6.496   3.721 -0.1638 -0.4693  0.2664
  589TIP3    H123258   1.366   6.510   3.814  0.2252 -2.0073  0.4211
  589TIP3    H223259   1.334   6.401   3.713 -3.0973 -0.1195 -0.6349
  590TIP3   OH223260   4.374   3.723   3.811  0.5318  0.0987  0.2193
  590TIP3    H123261   4.309   3.760   3.871 -1.2257 -0.9607 -0.9984
  590TIP3    H223262   4.442   3.790   3.805 -1.2265  1.9417  0.2531
  591TIP3   OH223263   2.335   5.560   5.252  0.5335 -0.0181 -0.3762
  591TIP3    H123264   2.263   5.623   5.261  0.0437 -0.5704 -0.3620
  591TIP3    H223265   2.377   5.559   5.338  1.3179  1.2036 -0.7343
  592TIP3   OH223266   4.008   2.073  12.795  0.0759 -0.5774 -0.3948
  592TIP3    H123267   3.929   2.111  12.834 -0.3291 -0.2217 -1.5538
  592TIP3    H223268   3.977   2.023  12.720  0.8425 -1.3747 -0.1825
  593TIP3   OH223269   0.231   2.168  13.631  0.1259 -0.1075  0.0734
  593TIP3    H123270   0.271   2.254  13.624 -0.6146  0.2070 -0.4010
  593TIP3    H223271   0.178   2.160  13.552 -0.5632 -0.6072  0.5794
  594TIP3   OH223272   2.679   2.072  11.975  0.2213  0.5070  0.1033
  594TIP3    H123273   2.763   2.026  11.969  0.1247  0.2764  0.5170
  594TIP3    H223274   2.687   2.145  11.913  1.0226  0.9481  0.7127
  595TIP3   OH223275   4.195   6.572  14.981  0.1538 -0.7918  0.1813
  595TIP3    H123276   4.134   6.625  14.930  1.8966  1.8875  0.7898
  595TIP3    H223277   4.197   6.613  15.068  1.7745 -1.6296  0.5682
  596TIP3   OH223278   0.345   0.114  11.304 -0.0215  0.0847  0.0175
  596TIP3    H123279   0.289   0.046  11.342  0.3540 -0.1439  0.1713
  596TIP3    H223280   0.391   0.151  11.380  1.1221 -0.7305 -0.2643
  597TIP3   OH223281   1.085   3.296  11.110 -0.2581  0.2030 -0.0234
  597TIP3    H123282   1.144   3.307  11.035 -1.5359 -0.3163 -1.1196
  597TIP3    H223283   1.004   3.338  11.083 -0.7724 -0.0937  1.0348
  598TIP3   OH223284   3.760   2.622  11.905  0.3581 -0.9256 -0.1508
  598TIP3    H123285   3.825   2.551  11.903  0.6516 -0.6650  0.0509
  598TIP3    H223286   3.699   2.596  11.974 -0.2709 -1.6179 -0.9508
  599TIP3   OH223287   0.017   3.329   0.788  0.4827  0.5289 -0.6211
  599TIP3    H123288  -0.035   3.292   0.717  0.2935  0.1038 -0.2648
  599TIP3    H223289   0.098   3.360   0.746  1.5213 -2.0818 -0.6469
  600TIP3   OH223290   4.946   5.413   0.736 -0.0225 -0.1916 -0.7730
  600TIP3    H123291   4.934   5.419   0.831 -1.1980  1.0405 -0.9805
  600TIP3    H223292   4.976   5.500   0.710 -0.2989 -0.3421 -1.6102
  601TIP3   OH223293   2.229   4.140  11.398  0.2908  0.2724 -0.2204
  601TIP3    H123294   2.206   4.061  11.448 -0.7468  0.7659  0.0968
  601TIP3    H223295   2.265   4.106  11.316  0.7439 -0.5332  0.3029
  602TIP3   OH223296   5.027   3.278   2.352 -0.4400 -0.1970  0.2404
  602TIP3    H123297   5.077   3.360   2.349 -1.1296  0.2013 -0.5807
  602TIP3    H223298   4.950   3.299   2.405 -0.9151 -0.1360 -0.4612
  603TIP3   OH223299   2.078   0.808   6.001 -0.0127 -0.1090 -0.7348
  603TIP3    H123300   2.038   0.867   6.065  0.7891  0.6248 -0.9069
  603TIP3    H223301   2.169   0.835   5.997  0.2204 -0.9630 -1.2792
  604TIP3   OH223302   3.067   5.645   5.967 -0.1393  0.3795  0.3748
  604TIP3    H123303   3.119   5.644   6.048  0.8009  2.5062 -0.1696
  604TIP3    H223304   2.977   5.657   5.996  0.0379 -0.1852  1.1727
  605TIP3   OH223305   4.564   0.218   0.347  0.4877 -0.7089 -0.0707
  605TIP3    H123306   4.552   0.264   0.264 -0.8648  0.0283  0.5120
  605TIP3    H223307   4.658   0.216   0.360  0.8225 -2.2368 -2.4049
  606TIP3   OH223308   2.239   5.226   1.621  0.2778  0.3419  0.5062
  606TIP3    H123309   2.160   5.273   1.650  0.2965  0.6806  0.0183
  606TIP3    H223310   2.307   5.254   1.682  0.3284  1.0990  0.1157
  607TIP3   OH223311   4.034   5.477  12.249  0.3241  0.4458 -0.0290
  607TIP3    H123312   3.943   5.485  12.278  0.8863  2.2191  1.3554
  607TIP3    H223313   4.029   5.464  12.154 -1.4179 -1.2461  0.2699
  608TIP3   OH223314   0.164   0.981  15.021 -0.4423  0.2510  0.0446
  608TIP3    H123315   0.186   1.055  14.965 -0.1881 -0.4847 -0.8304
  608TIP3    H223316   0.198   0.904  14.975  0.6763 -0.2633  1.6975
  609TIP3   OH223317   1.216   0.437   3.478  0.6414 -0.6574 -0.3995
  609TIP3    H123318   1.279   0.465   3.412  0.4191  1.8517  0.3731
  609TIP3    H223319   1.135   0.483   3.454 -0.2740 -2.0734 -0.0944
  610TIP3   OH223320   6.444   4.537  14.100  0.2138  0.4777 -0.3831
  610TIP3    H123321   6.448   4.632  14.113  0.4781  0.5142 -0.7387
  610TIP3    H223322   6.363   4.511  14.144  0.4490  0.7851  0.2346
  611TIP3   OH223323   2.421   5.164   5.366 -0.0879 -0.2671  0.6869
  611TIP3    H123324   2.509   5.200   5.350  0.1930 -0.7142  1.1898
  611TIP3    H223325   2.433   5.105   5.441 -0.7387 -0.6382  0.5006
  612TIP3   OH223326   0.960   5.637  10.977 -0.0451  0.6880  0.4317
  612TIP3    H123327   1.023   5.630  11.049  1.8633  1.2427 -1.1525
  612TIP3    H223328   0.939   5.731  10.973 -1.0162  0.4972  0.9854
  613TIP3   OH223329   5.029   3.765   5.342 -0.3859  0.2477  0.5083
  613TIP3    H123330   5.102   3.805   5.295 -0.0646 -0.3228  0.5235
  613TIP3    H223331   5.049   3.780   5.434 -0.9092  1.1789  0.4745
  614TIP3   OH223332   4.054   0.881  17.062 -0.4460 -0.5632 -0.2069
  614TIP3    H123333   4.015   0.967  17.045  0.0861 -0.4245 -0.7449
  614TIP3    H223334   4.143   0.901  17.090 -0.1574 -0.9628 -0.8444
  615TIP3   OH223335   0.328   5.301  15.336 -0.0372  0.2275 -0.0805
  615TIP3    H123336   0.337   5.366  15.405  1.6729  0.1343 -0.1823
  615TIP3    H223337   0.302   5.351  15.259 -2.4672  0.2570  0.7437
  616TIP3   OH223338   0.420   6.307   3.389  0.2496  0.7487  0.3423
  616TIP3    H123339   0.480   6.233   3.403  0.9883  1.2705 -0.0065
  616TIP3    H223340   0.391   6.297   3.299  0.0561  0.6691  0.4147
  617TIP3   OH223341   2.019   4.170  14.440  0.3930  0.0010 -0.3283
  617TIP3    H123342   2.069   4.112  14.498  0.8629 -0.1425 -0.8789
  617TIP3    H223343   2.081   4.197  14.373 -0.4957 -0.9051 -1.5397
  618TIP3   OH223344   4.003   0.718  12.321 -0.2328 -0.3346  0.6210
  618TIP3    H123345   4.010   0.645  12.259  1.8830  0.6066 -0.2740
  618TIP3    H223346   4.005   0.796  12.266 -0.6405  0.4506  1.7208
  619TIP3   OH223347   4.494   6.507   2.602  0.0172 -0.1874  0.6126
  619TIP3    H123348   4.450   6.551   2.675 -0.3724  0.1214  0.1932
  619TIP3    H223349   4.423   6.466   2.552  0.5564 -3.1728  2.2262
  620TIP3   OH223350   0.793   5.486   4.539 -0.3365 -0.5890 -0.1619
  620TIP3    H123351   0.807   5.420   4.472  1.3026 -2.3476  1.8635
  620TIP3    H223352   0.729   5.447   4.599  0.7496 -0.4439  1.1271
  621TIP3   OH223353   1.033   2.202   4.418  0.8791  0.0876 -0.6722
  621TIP3    H123354   0.948   2.204   4.374  0.7924 -0.9180 -0.5633
  621TIP3    H223355   1.096   2.184   4.349  0.8873 -0.1700 -0.5996
  622TIP3   OH223356   2.737   0.732   4.858  0.1790 -0.1358  0.2591
  622TIP3    H123357   2.827   0.744   4.828 -0.1689  0.1807 -0.6560
  622TIP3    H223358   2.728   0.637   4.867  1.3802 -0.0596  2.7758
  623TIP3   OH223359   4.166   2.465   4.113 -0.2101  0.2371  0.0727
  623TIP3    H123360   4.150   2.377   4.078  2.1379 -0.1207 -0.2039
  623TIP3    H223361   4.109   2.471   4.190  0.1991 -1.8564  0.5720
  624TIP3   OH223362   0.590   6.591   4.804  0.2402 -0.6561  0.2158
  624TIP3    H123363   0.570   6.498   4.808  0.1368 -0.6001  1.2487
  624TIP3    H223364   0.505   6.633   4.787  0.6016 -0.8755 -2.2048
  625TIP3   OH223365   1.273   3.083   5.868  0.0220  0.6684 -0.1414
  625TIP3    H123366   1.250   3.024   5.796  2.1043 -1.5297  0.9359
  625TIP3    H223367   1.334   3.146   5.829  0.7758 -0.2273 -0.4233
  626TIP3   OH223368   6.026   3.931  17.032 -0.3373  0.4783  0.3155
  626TIP3    H123369   6.011   3.888  16.948 -0.0997  1.5318 -0.2716
  626TIP3    H223370   6.014   3.862  17.097  1.3071 -0.7611 -0.6903
  627TIP3   OH223371   0.368   5.441  15.583  0.3120  0.0990  0.0470
  627TIP3    H123372   0.326   5.384  15.648  0.0276 -0.4592 -0.6081
  627TIP3    H223373   0.428   5.495  15.633 -1.8592  1.5532  1.1434
  628TIP3   OH223374   0.839   3.926   3.465  0.0672  0.0117 -0.6378
  628TIP3    H123375   0.924   3.967   3.450 -0.0045  0.8489  1.1469
  628TIP3    H223376   0.860   3.837   3.492  0.4119  0.5002  0.7118
  629TIP3   OH223377   2.746   2.055  12.600 -0.3093  0.2655  0.7513
  629TIP3    H123378   2.667   2.002  12.598 -0.7301  0.9333 -0.9152
  629TIP3    H223379   2.799   2.016  12.669 -1.1842 -1.4950  0.4573
  630TIP3   OH223380   5.575   3.250  11.467 -0.4673 -0.9027  0.4197
  630TIP3    H123381   5.520   3.327  11.455 -1.3408 -1.6257 -0.3364
  630TIP3    H223382   5.602   3.254  11.558 -1.1513 -0.1240  0.5957
  631TIP3   OH223383   3.819   0.258  11.455  0.3831 -0.0890 -0.0869
  631TIP3    H123384   3.814   0.226  11.365 -1.2413  3.5323 -1.3445
  631TIP3    H223385   3.894   0.318  11.456 -0.0960  0.5074  0.7646
  632TIP3   OH223386   2.551   2.917  16.318 -0.4671 -0.3768 -0.1881
  632TIP3    H123387   2.488   2.895  16.386 -0.3185 -0.1172  0.0311
  632TIP3    H223388   2.598   2.835  16.302  1.8893  0.3780  2.5147
  633TIP3   OH223389   2.283   0.924   0.298  0.5068  0.4284 -0.7208
  633TIP3    H123390   2.226   0.875   0.357  0.1388 -0.2662 -1.6354
  633TIP3    H223391   2.369   0.923   0.341  0.1947  0.1252 -0.0966
  634TIP3   OH223392   1.737   5.383  14.614 -0.4388 -0.0656 -0.2921
  634TIP3    H123393   1.820   5.430  14.601 -0.7079  0.2442 -0.9348
  634TIP3    H223394   1.740   5.354  14.705 -0.3516  1.3741  0.1775
  635TIP3   OH223395   2.650   4.388   0.817  0.2896  0.3285 -0.1537
  635TIP3    H123396   2.645   4.355   0.727  2.1713  1.6785 -0.7851
  635TIP3    H223397   2.562   4.420   0.836 -0.4187 -1.0088 -1.0813
  636TIP3   OH223398   0.269   5.480   3.671 -1.2932 -0.4386 -0.0397
  636TIP3    H123399   0.300   5.400   3.712  0.9591  1.2386  1.6497
  636TIP3    H223400   0.348   5.529   3.651 -2.6471  1.5347 -0.7032
  637TIP3   OH223401   2.847   0.542   4.614 -0.2299  0.3138 -0.3323
  637TIP3    H123402   2.797   0.512   4.690  0.1467  2.9767  1.0495
  637TIP3    H223403   2.790   0.607   4.572 -0.0189 -0.4052 -1.7714
  638TIP3   OH223404   5.317   4.646  11.393  0.3672  0.4876  0.2946
  638TIP3    H123405   5.312   4.716  11.328 -0.1965 -0.0558 -0.2579
  638TIP3    H223406   5.297   4.688  11.476 -0.7352  0.8326 -0.1407
  639TIP3   OH223407   0.896   3.044  15.539 -0.4756 -0.3405 -0.0171
  639TIP3    H123408   0.827   3.075  15.597 -1.0768 -0.3173 -0.7330
  639TIP3    H223409   0.866   3.069  15.451  1.1165  0.9176 -0.2162
  640TIP3   OH223410   6.797   2.608   0.410  0.0370 -0.3729 -0.2549
  640TIP3    H123411   6.702   2.619   0.414  0.0060 -0.5417 -0.5474
  640TIP3    H223412   6.830   2.697   0.395  0.0753  0.0903  2.2876
  641TIP3   OH223413   2.110   2.339  12.066  0.0182 -0.2324 -0.3915
  641TIP3    H123414   2.122   2.421  12.019  0.8795  0.2300  0.6087
  641TIP3    H223415   2.188   2.332  12.121 -0.2195 -1.5450 -0.2015
  642TIP3   OH223416   2.637   5.546   0.718 -0.3223  0.4827  0.2865
  642TIP3    H123417   2.607   5.591   0.639  0.1831  0.3671  0.0294
  642TIP3    H223418   2.587   5.587   0.789  0.1954  1.5120  0.0655
  643TIP3   OH223419   2.935   6.068   6.106 -0.1900  0.3696 -0.0978
  643TIP3    H123420   3.027   6.067   6.080 -0.3079  2.2930 -0.6347
  643TIP3    H223421   2.931   6.128   6.179 -1.0657  0.4569 -0.2128
  644TIP3   OH223422   2.549   2.085  16.248 -0.4391  0.2925 -0.2051
  644TIP3    H123423   2.620   2.094  16.185  0.0028  2.7181  0.5776
  644TIP3    H223424   2.469   2.093  16.195 -0.0910  0.9629 -0.6344
  645TIP3   OH223425   1.707   2.373   6.539 -0.4038  0.4743 -0.2698
  645TIP3    H123426   1.679   2.321   6.613  0.7633 -1.8564 -1.4122
  645TIP3    H223427   1.694   2.464   6.567 -1.9568 -0.3918  1.9548
  646TIP3   OH223428   0.197   6.410  16.997 -0.6189 -0.0054  0.4341
  646TIP3    H123429   0.266   6.367  16.946 -0.6138 -0.4759  0.8408
  646TIP3    H223430   0.116   6.381  16.956 -0.5863  0.5765 -0.0663
  647TIP3   OH223431   0.458   5.306   2.510 -0.6162 -0.0924 -0.4191
  647TIP3    H123432   0.375   5.353   2.498  0.0746  0.9063 -1.3899
  647TIP3    H223433   0.466   5.252   2.432 -0.7733 -0.8325  0.0817
  648TIP3   OH223434   5.070   2.550  15.848  0.6414 -0.3415  0.3611
  648TIP3    H123435   5.055   2.481  15.784 -1.4418 -0.7405  1.2245
  648TIP3    H223436   5.151   2.592  15.820 -0.1681 -0.5460 -2.5106
  649TIP3   OH223437   2.614   5.669   1.026  0.7861  0.4953  0.5034
  649TIP3    H123438   2.622   5.574   1.025  0.0709  0.4440 -1.2897
  649TIP3    H223439   2.702   5.701   1.045  0.9034 -0.5156  1.7672
  650TIP3   OH223440   2.963   6.153  11.847 -0.0980  0.2377 -0.3442
  650TIP3    H123441   3.043   6.200  11.873  1.5250 -2.1577 -0.8946
  650TIP3    H223442   2.978   6.129  11.755 -2.1687  1.1725 -0.9622
  651TIP3   OH223443   3.415   2.562   4.817  0.7324 -0.1277 -0.4426
  651TIP3    H123444   3.354   2.629   4.849  1.6660  1.1880 -1.3458
  651TIP3    H223445   3.479   2.612   4.766  1.6309 -1.6915 -0.8456
  652TIP3   OH223446   0.704   1.689  13.105  0.2469 -0.3114 -0.1731
  652TIP3    H123447   0.762   1.647  13.169  0.1766  0.9610  0.7421
  652TIP3    H223448   0.619   1.694  13.149  0.7557  2.6928  0.5883
  653TIP3   OH223449   2.648   4.535  16.334 -0.6608  0.4306 -0.1248
  653TIP3    H123450   2.716   4.473  16.309 -1.6222 -0.9675  0.6372
  653TIP3    H223451   2.570   4.506  16.286 -0.9882  1.3946 -0.1980
  654TIP3   OH223452   1.961   4.344  16.426  0.1174 -0.0000 -0.2927
  654TIP3    H123453   1.901   4.276  16.395  0.4566 -1.2694  1.7270
  654TIP3    H223454   2.012   4.369  16.349 -0.4701 -1.5623 -1.2040
  655TIP3   OH223455   0.484   5.372   3.143  0.6175 -0.1741  0.0803
  655TIP3    H123456   0.480   5.277   3.134 -1.4656 -0.0183 -0.9294
  655TIP3    H223457   0.562   5.397   3.093  1.8589 -1.4517  1.3573
  656TIP3   OH223458   4.528   4.456  12.819  0.0834 -0.8172  0.2600
  656TIP3    H123459   4.604   4.398  12.822  0.3509 -0.4674  0.2430
  656TIP3    H223460   4.564   4.544  12.829 -0.2225 -0.5767 -0.6953
  657TIP3   OH223461   0.139   2.908  14.459  0.4075  0.0978  0.6823
  657TIP3    H123462   0.116   2.996  14.488  3.0921  0.3598  2.1124
  657TIP3    H223463   0.100   2.850  14.525  0.7742  0.3539  1.1257
  658TIP3   OH223464   5.841   3.742   0.482  0.6775 -0.2965  0.2305
  658TIP3    H123465   5.884   3.682   0.421  0.0804  0.5184 -1.0165
  658TIP3    H223466   5.874   3.717   0.568 -0.0270 -2.7920 -0.2103
  659TIP3   OH223467   0.059   4.881  14.721 -0.2003 -0.2133 -0.3791
  659TIP3    H123468  -0.024   4.834  14.711  0.6956 -2.1948  1.0478
  659TIP3    H223469   0.051   4.926  14.805  0.2905 -0.6560 -0.0963
  660TIP3   OH223470   4.824   1.727  14.133  0.0227 -0.0782 -0.3582
  660TIP3    H123471   4.750   1.698  14.187  1.3057 -0.3878  1.2676
  660TIP3    H223472   4.898   1.674  14.163  0.8879  0.1287 -2.0616
  661TIP3   OH223473   2.661   0.888   5.970  0.5806 -0.3088 -0.0474
  661TIP3    H123474   2.671   0.941   6.049  2.6454 -0.3558 -0.2447
  661TIP3    H223475   2.567   0.873   5.962  0.3941 -0.7150  2.6529
  662TIP3   OH223476   1.727   4.938   1.632  0.9878  0.0901 -0.2304
  662TIP3    H123477   1.737   5.023   1.676  0.7758 -0.3596  0.6928
  662TIP3    H223478   1.633   4.928   1.620  1.1169  0.9097 -2.2012
  663TIP3   OH223479   0.552   6.567   1.228  0.3709 -0.6976 -0.2075
  663TIP3    H123480   0.480   6.630   1.225  1.3397  0.3625 -2.1418
  663TIP3    H223481   0.516   6.488   1.188  0.4230 -0.0263 -1.5822
  664TIP3   OH223482   4.986   0.685  11.248 -0.1062 -0.3698 -0.3550
  664TIP3    H123483   5.010   0.662  11.338  1.1176  2.2794  0.0661
  664TIP3    H223484   4.891   0.691  11.248 -0.1620 -1.2946  0.5336
  665TIP3   OH223485   6.071   4.983   2.656 -0.1300  0.3181 -0.6641
  665TIP3    H123486   6.024   4.912   2.700 -2.1612  2.0514  0.0345
  665TIP3    H223487   6.154   4.991   2.704 -1.4555  0.8387  1.6167
  666TIP3   OH223488   4.661   6.627  13.108 -0.2134 -0.4680  0.7365
  666TIP3    H123489   4.578   6.674  13.096  0.2821  0.2263  0.0087
  666TIP3    H223490   4.652   6.548  13.055  0.6858  0.9854 -1.6383
  667TIP3   OH223491   5.459   1.640   0.488 -0.0353 -0.8213  0.0982
  667TIP3    H123492   5.552   1.630   0.512 -0.0219 -0.6586  0.1133
  667TIP3    H223493   5.460   1.695   0.410 -0.0422 -1.8703 -0.6615
  668TIP3   OH223494   5.338   3.181   0.606  0.1257  0.2688  0.0601
  668TIP3    H123495   5.272   3.216   0.665 -1.4738 -3.2894  0.5007
  668TIP3    H223496   5.292   3.171   0.523  0.1900 -1.9179  0.2816
  669TIP3   OH223497   1.614   4.640   1.696  0.1419  0.6057  0.1993
  669TIP3    H123498   1.592   4.604   1.610  1.3183  0.8621 -0.2121
  669TIP3    H223499   1.660   4.722   1.677  0.5038  0.6079  1.0739
  670TIP3   OH223500   6.142   1.889  15.725  0.0716  0.0457 -0.0434
  670TIP3    H123501   6.102   1.973  15.701  0.2914  0.1053 -0.2013
  670TIP3    H223502   6.142   1.889  15.821 -1.6478 -0.5859 -0.0214
  671TIP3   OH223503   1.269   4.660  13.273 -0.0859  0.8005 -0.0991
  671TIP3    H123504   1.351   4.709  13.286  0.7981 -0.5593 -0.4822
  671TIP3    H223505   1.245   4.678  13.182 -1.8574  3.6432  0.8790
  672TIP3   OH223506   2.960   2.145  15.812  0.2652 -0.2525 -0.6824
  672TIP3    H123507   2.915   2.221  15.846 -0.1734 -0.4724 -0.7649
  672TIP3    H223508   2.963   2.083  15.885 -1.0816 -0.9038 -1.1539
  673TIP3   OH223509   1.731   0.703   2.815  0.0310  0.6070 -0.2632
  673TIP3    H123510   1.708   0.613   2.789 -2.3322  1.1926 -0.3308
  673TIP3    H223511   1.727   0.753   2.733  2.6705  0.5516 -0.4609
  674TIP3   OH223512   6.514   0.976  15.984 -0.3491  0.0607  0.3259
  674TIP3    H123513   6.493   0.915  15.913 -0.4813  0.1468  0.2925
  674TIP3    H223514   6.537   1.058  15.940  3.4219 -0.9552  0.1518
  675TIP3   OH223515   3.828   0.253  13.963  0.2963  0.6327 -0.4099
  675TIP3    H123516   3.924   0.243  13.969  0.3326 -0.6865 -2.6720
  675TIP3    H223517   3.794   0.166  13.986 -0.4000  1.1717  0.6546
  676TIP3   OH223518   4.294   4.677   1.182  0.4009  1.3469 -0.8278
  676TIP3    H123519   4.303   4.620   1.106  0.0837  0.6632 -0.3586
  676TIP3    H223520   4.237   4.629   1.242  1.6133  1.3490  0.3509
  677TIP3   OH223521   2.481   6.740   2.883 -0.0259 -0.0368  0.3833
  677TIP3    H123522   2.523   6.751   2.968 -1.0771 -1.7605  1.1644
  677TIP3    H223523   2.551   6.751   2.819  1.2062 -0.8675  1.5728
  678TIP3   OH223524   5.410   3.354  13.975 -0.0985  0.0824  0.3411
  678TIP3    H123525   5.476   3.351  13.906 -2.1336 -1.2071 -1.6427
  678TIP3    H223526   5.448   3.304  14.047  1.3100 -0.1753 -0.5542
  679TIP3   OH223527   4.796   0.577  13.689  0.2688  0.0226  0.4760
  679TIP3    H123528   4.856   0.605  13.619 -0.1146  2.8108  1.1827
  679TIP3    H223529   4.852   0.529  13.750  0.8249 -1.4916 -1.1814
  680TIP3   OH223530   0.822   2.923  14.829 -0.4470 -0.2416 -0.5578
  680TIP3    H123531   0.811   2.897  14.737  0.0883 -2.1571 -0.1160
  680TIP3    H223532   0.809   2.841  14.878  1.1257  0.3953  0.9413
  681TIP3   OH223533   0.676   1.392   5.398 -0.7034  0.1649  0.1118
  681TIP3    H123534   0.690   1.458   5.467  0.9348  0.0339 -0.0803
  681TIP3    H223535   0.584   1.368   5.407 -0.6102  0.4042  2.0423
  682TIP3   OH223536   2.998   5.557  16.234 -0.7895  0.3003  0.7748
  682TIP3    H123537   2.964   5.635  16.277 -0.8741  0.6537  0.0671
  682TIP3    H223538   3.043   5.589  16.156 -0.8854 -0.3592  0.4410
  683TIP3   OH223539   2.563   1.261  12.147  0.5602 -0.1550  0.7274
  683TIP3    H123540   2.521   1.184  12.185 -0.3896  0.5718  1.1595
  683TIP3    H223541   2.552   1.330  12.212  0.5220  0.6170 -0.0817
  684TIP3   OH223542   6.045   4.734   2.738  0.4023 -0.5963  0.6281
  684TIP3    H123543   5.966   4.752   2.790  0.9676  0.3040  1.1789
  684TIP3    H223544   6.105   4.691   2.800  0.0752 -1.9553  0.0181
  685TIP3   OH223545   1.705   5.235   0.817  0.0242 -0.3089 -0.2712
  685TIP3    H123546   1.701   5.144   0.845 -1.9042 -0.0292  0.4498
  685TIP3    H223547   1.721   5.231   0.723 -0.9924 -1.4228 -0.4109
  686TIP3   OH223548   6.214   5.272  11.001 -0.7118  0.5831 -0.0780
  686TIP3    H123549   6.185   5.344  10.944  0.3201  0.0356 -1.3284
  686TIP3    H223550   6.278   5.313  11.059  1.3645  0.2947 -2.1063
  687TIP3   OH223551   4.855   6.398   0.055 -0.0655  0.2887 -0.4297
  687TIP3    H123552   4.836   6.304   0.055  0.5090  0.1511 -1.5236
  687TIP3    H223553   4.895   6.413  -0.031  0.0763  1.4862 -0.1566
  688TIP3   OH223554   3.675   0.642  16.717  0.6013  0.3180  0.5928
  688TIP3    H123555   3.741   0.694  16.763 -0.2540  2.1445 -0.2265
  688TIP3    H223556   3.597   0.651  16.771  0.5070 -0.3535  0.5763
  689TIP3   OH223557   1.902   3.266   3.265 -0.2785 -0.3647 -0.2693
  689TIP3    H123558   1.983   3.295   3.305 -0.3701 -0.0784 -0.2929
  689TIP3    H223559   1.925   3.246   3.174 -0.3759  0.3495 -0.4514
  690TIP3   OH223560   2.240   2.902  14.819  0.3201  0.4733  0.3379
  690TIP3    H123561   2.321   2.853  14.831 -1.4455 -2.9620 -0.8124
  690TIP3    H223562   2.174   2.851  14.867 -1.6800  1.5455 -1.1556
  691TIP3   OH223563   1.471   2.069  14.006  0.0282  0.1857  0.0983
  691TIP3    H123564   1.380   2.084  13.981 -0.3046  1.5265  2.0216
  691TIP3    H223565   1.484   1.976  13.992 -2.7283 -0.7515  3.1192
  692TIP3   OH223566   5.536   5.944  12.043  0.0247  0.1644  0.3370
  692TIP3    H123567   5.441   5.948  12.058  0.1495 -0.4273  1.3113
  692TIP3    H223568   5.549   5.861  11.996 -0.2305  1.4731 -2.1180
  693TIP3   OH223569   2.511   6.668   0.717  0.3962 -0.0700  0.4886
  693TIP3    H123570   2.513   6.726   0.641  0.2825 -0.9975 -0.2182
  693TIP3    H223571   2.593   6.687   0.764 -0.4092  1.8621  1.1679
  694TIP3   OH223572   2.406   1.384  17.268 -0.2978 -0.2088 -0.8437
  694TIP3    H123573   2.473   1.318  17.288  0.1972  0.1632 -1.2531
  694TIP3    H223574   2.434   1.422  17.185  0.2150  1.5406  0.1050
  695TIP3   OH223575   3.714   0.310  14.225 -0.0654 -0.3736 -0.3278
  695TIP3    H123576   3.797   0.262  14.224 -0.6277 -1.3881  0.6075
  695TIP3    H223577   3.680   0.300  14.137  1.0016  0.4178 -0.8507
  696TIP3   OH223578   1.031   2.048   3.170  0.7730 -0.1199 -0.4071
  696TIP3    H123579   1.003   2.135   3.141 -2.4889 -1.0469 -0.2282
  696TIP3    H223580   1.029   1.994   3.092  1.4545 -0.3484 -0.2668
  697TIP3   OH223581   0.491   1.908  13.348  0.5091  0.0414 -0.1302
  697TIP3    H123582   0.462   1.828  13.304 -0.1334  0.5752 -0.6746
  697TIP3    H223583   0.468   1.978  13.289 -2.0985  0.9452  1.8514
  698TIP3   OH223584   6.381   0.862  17.181  0.0752 -0.6704  0.1694
  698TIP3    H123585   6.392   0.768  17.167 -0.8550 -0.7331 -0.1902
  698TIP3    H223586   6.335   0.892  17.102 -1.3912 -0.2729  1.1568
  699TIP3   OH223587   3.620   4.254  11.994 -0.2574  1.0594 -0.1236
  699TIP3    H123588   3.716   4.249  11.985 -0.2415  1.5961 -0.2467
  699TIP3    H223589   3.605   4.255  12.088 -0.2377 -0.8203 -0.0691
  700TIP3   OH223590   5.086   5.406  10.496  0.0468 -0.5166  0.1984
  700TIP3    H123591   4.994   5.405  10.524  0.1471 -1.9241  0.5306
  700TIP3    H223592   5.083   5.436  10.405 -0.8665 -1.7847 -0.2085
  701TIP3   OH223593   0.337   5.928   2.575 -0.1662 -0.5476 -0.2042
  701TIP3    H123594   0.355   5.957   2.486 -2.2953  1.7216  0.0473
  701TIP3    H223595   0.289   5.846   2.564  0.2175 -0.6557 -1.1150
  702TIP3   OH223596   1.537   3.153  11.925 -0.0755  0.0293 -0.0272
  702TIP3    H123597   1.612   3.183  11.873  1.0630 -0.0226  1.5449
  702TIP3    H223598   1.482   3.106  11.863  1.0535  0.3260 -1.2786
  703TIP3   OH223599   1.893   3.682  11.756 -0.1140  0.2707 -0.8580
  703TIP3    H123600   1.935   3.768  11.761  0.4402  0.0655 -1.8150
  703TIP3    H223601   1.869   3.672  11.664  1.1181 -1.1985 -1.0429
  704TIP3   OH223602   4.405   6.017  15.013 -0.5390 -0.0120 -0.4322
  704TIP3    H123603   4.412   6.001  15.107 -0.1432 -0.0250 -0.4625
  704TIP3    H223604   4.441   5.937  14.973 -0.5866  0.0474 -0.5925
  705TIP3   OH223605   1.807   1.575  16.564 -0.4754 -0.3876 -0.0867
  705TIP3    H123606   1.830   1.546  16.652 -0.6133  0.9265  0.3942
  705TIP3    H223607   1.771   1.663  16.576 -1.1856 -0.4910 -1.3734
  706TIP3   OH223608   4.421   0.102  16.441 -0.2566 -0.4325  0.0212
  706TIP3    H123609   4.461   0.119  16.527 -0.7397 -1.5624  0.4847
  706TIP3    H223610   4.381   0.185  16.416  0.6270  0.1411  0.4960
  707TIP3   OH223611   6.074   5.623  16.385 -0.7124 -0.1823 -0.4974
  707TIP3    H123612   6.074   5.675  16.465  0.6742 -1.8963  0.6488
  707TIP3    H223613   5.985   5.632  16.351 -1.7425 -0.5351  1.9811
  708TIP3   OH223614   6.786   2.824  15.965  0.3113 -0.4934 -0.3743
  708TIP3    H123615   6.738   2.858  16.040  0.0360 -0.4260 -0.5791
  708TIP3    H223616   6.869   2.792  16.001  0.6774  0.6199 -0.2171
  709TIP3   OH223617   1.609   2.051  16.953 -0.1083  0.8843  0.0643
  709TIP3    H123618   1.650   1.997  17.020 -0.1972  0.6377 -0.0797
  709TIP3    H223619   1.597   2.136  16.995 -0.8261  0.5250  0.6023
  710TIP3   OH223620   0.772   1.042  17.131  0.3122  0.2733  0.8604
  710TIP3    H123621   0.700   0.993  17.090  0.2819  1.0152  0.0030
  710TIP3    H223622   0.728   1.105  17.188  0.2495  1.1325 -0.1215
  711TIP3   OH223623   2.672   3.720   1.546  0.0164  0.0710 -0.4553
  711TIP3    H123624   2.710   3.802   1.515  0.2892  0.3780  0.6711
  711TIP3    H223625   2.698   3.714   1.638  0.6139 -1.6349 -0.7022
  712TIP3   OH223626   6.734   5.245  14.236  0.0284 -0.5565  0.4169
  712TIP3    H123627   6.721   5.316  14.298  0.4706 -0.0074 -0.1078
  712TIP3    H223628   6.790   5.283  14.168 -0.3590 -1.1751 -0.2575
  713TIP3   OH223629   3.900   4.624   5.025 -0.4307 -1.0907  0.1274
  713TIP3    H123630   3.888   4.682   4.950 -0.2591  1.3187  1.8943
  713TIP3    H223631   3.811   4.600   5.051 -0.5597 -0.6755  0.0781
  714TIP3   OH223632   3.254   6.484   1.861  0.0330 -0.0205  0.4918
  714TIP3    H123633   3.177   6.503   1.807  1.5804  0.5361 -1.6121
  714TIP3    H223634   3.267   6.564   1.912 -0.0893  0.3304 -0.0186
  715TIP3   OH223635   4.912   5.363  12.270 -0.5773  0.1112  0.6214
  715TIP3    H123636   4.910   5.422  12.194  1.6961  1.0368  1.2366
  715TIP3    H223637   4.990   5.310  12.257  0.3075  0.8501  2.6936
  716TIP3   OH223638   4.432   0.056   1.109 -0.7440 -0.3426 -0.2703
  716TIP3    H123639   4.505   0.094   1.159 -2.9532 -0.0296  2.8758
  716TIP3    H223640   4.466  -0.029   1.079 -0.1465 -1.8625  4.2537
  717TIP3   OH223641   4.425   3.920   5.598  0.2590  0.4590  0.2837
  717TIP3    H123642   4.337   3.886   5.578  1.0124 -2.7345  2.1916
  717TIP3    H223643   4.413   3.970   5.678  0.1030  0.4247  0.2837
  718TIP3   OH223644   4.208   5.887   3.598  0.1200  0.6375 -0.4491
  718TIP3    H123645   4.185   5.798   3.625 -0.4260  0.5738 -1.1036
  718TIP3    H223646   4.132   5.917   3.548 -0.8387  2.4531  2.0091
  719TIP3   OH223647   3.790   3.194  14.178  0.4001  0.2578 -0.3284
  719TIP3    H123648   3.722   3.214  14.114  0.4279  2.3862  0.2508
  719TIP3    H223649   3.789   3.099  14.186 -0.6418  0.0669 -2.3365
  720TIP3   OH223650   5.664   6.336  14.112 -0.3875  0.3106 -0.0481
  720TIP3    H123651   5.602   6.267  14.134 -1.9616  1.6121 -0.3394
  720TIP3    H223652   5.744   6.313  14.159 -0.4319 -2.4565 -1.2402
  721TIP3   OH223653   4.424   6.570  13.473 -0.1570  0.6887  0.4890
  721TIP3    H123654   4.503   6.582  13.526  0.8269 -0.3896 -0.6906
  721TIP3    H223655   4.456   6.530  13.392 -1.8398  0.8498 -0.2698
  722TIP3   OH223656   6.659   2.413   5.903 -0.3106  0.4057  0.1702
  722TIP3    H123657   6.585   2.365   5.939 -0.8092  0.2964 -0.9580
  722TIP3    H223658   6.634   2.431   5.812  0.5710  1.3538  0.1017
  723TIP3   OH223659   0.593   6.002   4.304 -0.0696  0.9538  0.1068
  723TIP3    H123660   0.580   5.928   4.245  1.7019  0.7952 -0.1100
  723TIP3    H223661   0.549   5.976   4.385 -0.4210  0.1472 -0.3399
  724TIP3   OH223662   5.254   3.820   0.149 -0.0518 -0.2952  0.3653
  724TIP3    H123663   5.259   3.807   0.054 -0.0400  0.1468  0.3050
  724TIP3    H223664   5.287   3.909   0.163 -0.5763 -0.1540  0.7281
  725TIP3   OH223665   6.446   4.653   1.962 -0.2761  0.3792  0.0265
  725TIP3    H123666   6.487   4.679   1.880  0.7251  1.2856  0.8002
  725TIP3    H223667   6.373   4.596   1.936  2.3996 -2.5671 -1.3346
  726TIP3   OH223668   2.447   5.241  14.490 -0.0540 -0.0324  0.5812
  726TIP3    H123669   2.453   5.334  14.514 -1.3320  0.1304  0.3216
  726TIP3    H223670   2.385   5.205  14.553 -0.3822 -0.4791  0.0027
  727TIP3   OH223671   1.849   0.944   3.419 -0.4636  0.0184 -0.9852
  727TIP3    H123672   1.775   0.952   3.358 -1.3390  0.4652  0.1002
  727TIP3    H223673   1.848   1.026   3.468  0.8115  0.0526 -1.0101
  728TIP3   OH223674   4.236   6.815  14.375 -0.0163 -0.3108 -0.2339
  728TIP3    H123675   4.292   6.750  14.419 -0.2057  0.2107  0.8011
  728TIP3    H223676   4.276   6.899  14.396 -0.3743 -0.0256 -0.6966
  729TIP3   OH223677   2.173   3.218  16.560  0.1255  0.5449 -0.2980
  729TIP3    H123678   2.150   3.167  16.482  0.2213  0.7902 -0.4898
  729TIP3    H223679   2.260   3.186  16.584 -0.6388 -0.7860  0.7684
  730TIP3   OH223680   6.763   1.304   3.945  0.2580 -0.0864 -0.0319
  730TIP3    H123681   6.812   1.287   3.864  0.3213 -0.7718  0.1417
  730TIP3    H223682   6.782   1.395   3.967  1.1472 -0.2368 -0.1701
  731TIP3   OH223683   4.413   6.094  16.139 -0.0900  0.6236  0.0998
  731TIP3    H123684   4.458   6.178  16.135  1.1093 -0.0188 -0.1277
  731TIP3    H223685   4.483   6.029  16.144 -1.0073 -0.3439  0.6826
  732TIP3   OH223686   3.064   5.351  14.992  0.4655  0.3482  0.3507
  732TIP3    H123687   3.071   5.274  15.048 -0.0945 -0.2057 -0.3477
  732TIP3    H223688   3.086   5.424  15.050 -0.6468 -0.1679  1.4366
  733TIP3   OH223689   5.499   0.130   2.394  0.0956  0.5591 -0.3266
  733TIP3    H123690   5.586   0.110   2.428  0.8052  2.1019 -1.1890
  733TIP3    H223691   5.503   0.223   2.372 -1.8570  0.6991 -0.1230
  734TIP3   OH223692   4.813   4.275  12.544  0.2938  0.1529  0.0328
  734TIP3    H123693   4.806   4.263  12.638 -0.0110  2.2857  0.3079
  734TIP3    H223694   4.734   4.234  12.508 -0.2340  0.4714  0.8166
  735TIP3   OH223695   0.917   1.695   5.770 -0.1750  0.6740  0.2871
  735TIP3    H123696   0.988   1.662   5.825 -0.7798 -1.7831 -0.3481
  735TIP3    H223697   0.959   1.721   5.689  0.1412  0.1866  0.2944
  736TIP3   OH223698   0.599   4.495   3.783  0.4075  0.1903 -0.2839
  736TIP3    H123699   0.686   4.503   3.823 -0.1746 -1.3204  1.3616
  736TIP3    H223700   0.614   4.449   3.700  1.2352  0.3989 -0.2492
  737TIP3   OH223701   1.718   2.323  11.824 -0.2820 -0.3447 -0.0722
  737TIP3    H123702   1.647   2.262  11.844  0.0345 -0.3982  0.9175
  737TIP3    H223703   1.697   2.357  11.737  0.0806 -2.6256 -1.0768
  738TIP3   OH223704   2.328   5.921   3.708  0.2294  0.7354  0.7619
  738TIP3    H123705   2.353   5.948   3.797 -1.5548  2.6053  0.7104
  738TIP3    H223706   2.389   5.967   3.651 -1.4452  3.0556  0.7957
  739TIP3   OH223707   1.584   4.362  14.861 -0.7733  0.2315 -0.6386
  739TIP3    H123708   1.595   4.365  14.766  0.5194 -1.6054 -0.5680
  739TIP3    H223709   1.489   4.368  14.874 -1.0996 -1.3840 -2.1443
  740TIP3   OH223710   2.869   2.444  16.811  0.3629  0.2980  0.0710
  740TIP3    H123711   2.923   2.366  16.825 -0.3847 -0.5118 -1.4832
  740TIP3    H223712   2.816   2.423  16.734  1.0137  2.8079 -1.0907
  741TIP3   OH223713   3.794   1.042  13.965 -0.3611 -0.1869  0.1728
  741TIP3    H123714   3.724   1.007  13.910 -0.8442  1.0953 -0.0370
  741TIP3    H223715   3.758   1.123  14.001  0.4593 -0.3103  1.2759
  742TIP3   OH223716   5.066   1.833   5.452 -0.2036  0.0866  0.5418
  742TIP3    H123717   5.096   1.760   5.505 -1.1845 -0.3260  0.5411
  742TIP3    H223718   5.096   1.911   5.499 -0.4163 -0.2849  1.3027
  743TIP3   OH223719   2.375   5.441   3.595 -0.0185  0.2541 -0.5349
  743TIP3    H123720   2.347   5.362   3.548 -0.4905  0.0462  0.0946
  743TIP3    H223721   2.468   5.448   3.575 -0.6040  1.3331 -3.1913
  744TIP3   OH223722   2.300   6.094  15.046  0.4512 -0.4068 -0.3459
  744TIP3    H123723   2.384   6.119  15.009  0.7293  0.9398  1.1257
  744TIP3    H223724   2.244   6.170  15.032 -0.1391 -0.7986 -0.1403
  745TIP3   OH223725   4.081   4.913   1.684  0.0340 -0.2602 -0.2549
  745TIP3    H123726   4.033   4.904   1.767  2.3362 -0.7258  1.0829
  745TIP3    H223727   4.169   4.941   1.711  0.4685  0.7594 -2.6455
  746TIP3   OH223728   1.214   1.709   4.773 -0.2306 -0.4592 -0.3027
  746TIP3    H123729   1.259   1.790   4.796  1.1938 -1.3837  0.2176
  746TIP3    H223730   1.121   1.732   4.777  0.1337  0.9565  0.5394
  747TIP3   OH223731   3.489   4.856  16.088  0.5108  0.6743  0.1090
  747TIP3    H123732   3.427   4.789  16.061  1.0698  0.3317 -0.3412
  747TIP3    H223733   3.573   4.827  16.052  0.6595  1.9002 -0.5614
  748TIP3   OH223734   0.332   2.253  14.129  0.0318  0.4333 -0.5991
  748TIP3    H123735   0.272   2.280  14.199  0.4037  2.3001 -0.9707
  748TIP3    H223736   0.296   2.292  14.050  0.5404 -0.2519 -1.1694
  749TIP3   OH223737   5.877   3.027  13.075 -0.0969 -0.1094  0.0199
  749TIP3    H123738   5.856   3.017  13.168 -0.2448  0.8352  0.0973
  749TIP3    H223739   5.796   3.006  13.030 -0.9816  2.5475  0.2710
  750TIP3   OH223740   5.757   0.613  11.463 -0.3812 -0.3564 -0.1889
  750TIP3    H123741   5.683   0.633  11.519 -1.8494 -1.8738 -1.5256
  750TIP3    H223742   5.750   0.675  11.391  1.6160  1.7254  1.3417
  751TIP3   OH223743   4.738   6.198   5.212  0.0162 -0.7243  0.2656
  751TIP3    H123744   4.769   6.287   5.224  2.1613 -1.5294  1.0243
  751TIP3    H223745   4.694   6.177   5.295  2.0847 -1.3361  1.2438
  752TIP3   OH223746   1.863   5.148  13.970 -0.2799  0.1243  0.3765
  752TIP3    H123747   1.842   5.151  14.063 -2.1957 -0.3349 -0.0074
  752TIP3    H223748   1.919   5.072  13.960 -1.6817 -1.0054  0.8832
  753TIP3   OH223749   1.465   6.244  11.166  0.2625  0.3538 -0.5647
  753TIP3    H123750   1.500   6.206  11.085 -0.1921  1.0498 -1.0925
  753TIP3    H223751   1.372   6.257  11.148  0.4167  1.7463 -0.4071
  754TIP3   OH223752   5.488   5.711  14.178  0.3674  0.0393  1.0186
  754TIP3    H123753   5.578   5.684  14.163  0.0458 -0.4164 -0.1317
  754TIP3    H223754   5.449   5.640  14.228  0.0441 -0.7714 -0.3754
  755TIP3   OH223755   6.077   5.915   0.375 -0.3052 -0.0680 -0.2361
  755TIP3    H123756   6.030   5.842   0.335 -0.9485  0.1819  0.0511
  755TIP3    H223757   6.109   5.967   0.302 -1.2387  0.2362 -0.4343
  756TIP3   OH223758   3.014   4.016   0.484 -0.0497  0.1207 -0.1661
  756TIP3    H123759   3.021   4.101   0.441  2.8016  1.7335  3.2643
  756TIP3    H223760   2.922   4.010   0.512 -0.6520  1.3086 -1.8276
  757TIP3   OH223761   6.468   0.845   3.104 -0.3391 -0.0658 -0.2809
  757TIP3    H123762   6.442   0.782   3.036 -0.4455  1.1871 -1.4154
  757TIP3    H223763   6.425   0.813   3.183 -1.9153 -0.3931 -1.2394
  758TIP3   OH223764   4.038   2.307   0.537 -0.7082  0.1371 -0.3512
  758TIP3    H123765   3.990   2.247   0.480 -4.5614  1.4954  1.3424
  758TIP3    H223766   4.011   2.394   0.509  1.3546  0.9797  0.1916
  759TIP3   OH223767   2.240   6.066  11.957  0.5110 -0.3301 -0.1524
  759TIP3    H123768   2.327   6.032  11.979  0.0012 -2.0890 -0.7636
  759TIP3    H223769   2.195   5.992  11.916 -1.2722  0.5613  0.1312
  760TIP3   OH223770   4.808   2.161  11.614 -0.3909  0.5460 -0.1022
  760TIP3    H123771   4.815   2.179  11.521  0.4146  0.1718 -0.1204
  760TIP3    H223772   4.795   2.247  11.655  0.5817  0.8614 -0.4409
  761TIP3   OH223773   4.701   0.435   5.019 -0.0067  1.3429  0.0747
  761TIP3    H123774   4.679   0.509   5.076 -1.4847  1.1619 -0.2251
  761TIP3    H223775   4.618   0.413   4.976 -0.0072 -1.6578  1.5063
  762TIP3   OH223776   3.210   4.039   6.335  0.3760 -0.0542  0.3148
  762TIP3    H123777   3.127   4.012   6.373 -0.2535  0.9423 -0.3226
  762TIP3    H223778   3.273   3.975   6.367 -0.8692 -1.6136 -0.2770
  763TIP3   OH223779   6.570   3.705   2.361 -0.0737  0.3248  0.1702
  763TIP3    H123780   6.604   3.615   2.359 -0.7194  0.0838 -0.1723
  763TIP3    H223781   6.595   3.738   2.447 -1.0945 -0.6863  0.8858
  764TIP3   OH223782   1.120   1.689   3.800 -0.2931 -0.1165  0.6510
  764TIP3    H123783   1.052   1.755   3.784  0.7731  0.9753  0.5671
  764TIP3    H223784   1.142   1.699   3.892 -1.1396 -1.3423  0.9985
  765TIP3   OH223785   6.670   4.497  13.744 -0.1553  0.0643 -0.9115
  765TIP3    H123786   6.681   4.424  13.805 -0.2225  0.8175  0.0230
  765TIP3    H223787   6.697   4.463  13.659  2.8585 -0.1265  0.0598
  766TIP3   OH223788   0.967   3.587   2.596  0.4767  0.1694 -0.3250
  766TIP3    H123789   1.042   3.529   2.612 -1.4497 -2.5260 -0.8124
  766TIP3    H223790   0.943   3.619   2.683  0.9355 -0.5942  0.0968
  767TIP3   OH223791   5.043   6.418   3.890  0.1374  0.2117  0.0164
  767TIP3    H123792   5.092   6.352   3.841 -1.2315  0.0980 -1.2297
  767TIP3    H223793   5.068   6.403   3.981  1.6399 -0.4853 -0.4980
  768TIP3   OH223794   4.608   6.586  15.393  0.3436 -0.1969  1.3855
  768TIP3    H123795   4.638   6.553  15.477  1.3440 -4.2051 -0.4138
  768TIP3    H223796   4.685   6.626  15.353  0.9822 -2.1217  0.6445
  769TIP3   OH223797   0.516   5.574  15.244  0.1749  0.2237 -0.0864
  769TIP3    H123798   0.472   5.526  15.173  0.4602 -0.0682 -0.0670
  769TIP3    H223799   0.596   5.609  15.203 -0.3400  1.2140 -0.2657
  770TIP3   OH223800   6.256   1.405  12.424  0.1231 -0.9824  0.1110
  770TIP3    H123801   6.209   1.355  12.491 -2.7876 -1.4656 -2.1912
  770TIP3    H223802   6.195   1.409  12.350  3.3339 -0.6369 -2.5996
  771TIP3   OH223803   5.153   2.499   0.566  0.5854  0.1679 -0.2144
  771TIP3    H123804   5.109   2.553   0.631  0.6803  0.6462 -0.5451
  771TIP3    H223805   5.089   2.491   0.495 -0.1307 -1.6730  0.6090
  772TIP3   OH223806   3.134   4.634  14.929  0.2135  0.1438  0.0378
  772TIP3    H123807   3.115   4.697  14.997  0.2305  0.1329  0.0533
  772TIP3    H223808   3.196   4.573  14.969  0.9695  0.6910 -0.2870
  773TIP3   OH223809   5.366   2.130  15.177 -0.0510 -0.3138 -0.4535
  773TIP3    H123810   5.441   2.070  15.180 -1.5633 -2.3218 -1.4737
  773TIP3    H223811   5.358   2.164  15.266  1.1226 -1.2603  0.0258
  774TIP3   OH223812   3.807   6.504  11.744 -0.2378 -0.7170  0.4565
  774TIP3    H123813   3.779   6.590  11.712 -1.4110 -0.5526  1.9001
  774TIP3    H223814   3.844   6.461  11.667 -2.3101 -0.0433 -0.9605
  775TIP3   OH223815   6.033   1.494  10.425  0.1501  0.7688  0.4056
  775TIP3    H123816   6.123   1.514  10.400 -0.4490  1.6039 -1.1621
  775TIP3    H223817   6.011   1.560  10.490 -0.1648  2.2264 -1.1264
  776TIP3   OH223818   2.222   0.624   5.580 -0.1430  0.2925 -0.0092
  776TIP3    H123819   2.227   0.528   5.578  2.0889  0.3936 -3.1892
  776TIP3    H223820   2.255   0.648   5.667 -0.8267 -1.8002  0.8625
  777TIP3   OH223821   0.492   2.929   4.471  0.1858  0.0681  0.2428
  777TIP3    H123822   0.509   2.935   4.377 -2.4510 -1.3232 -0.3817
  777TIP3    H223823   0.487   2.835   4.488 -1.0893  0.3312  1.4116
  778TIP3   OH223824   2.251   3.957  13.401  0.3769 -0.1991  0.3119
  778TIP3    H123825   2.171   3.918  13.366 -0.7887  0.1290  2.5265
  778TIP3    H223826   2.290   4.003  13.326 -1.7099 -0.0260 -0.7036
  779TIP3   OH223827   2.824   6.401   2.624  0.1505  0.4399 -0.5492
  779TIP3    H123828   2.782   6.438   2.701  1.2991  0.6820 -0.0264
  779TIP3    H223829   2.895   6.462   2.603  2.8876 -2.0365  1.0591
  780TIP3   OH223830   1.307   0.386  13.691 -0.1574  0.2760  0.0615
  780TIP3    H123831   1.318   0.436  13.611  2.7223  1.6680  1.2706
  780TIP3    H223832   1.234   0.428  13.736 -0.6177  0.6007 -0.9750
  781TIP3   OH223833   3.709   5.000  15.339 -0.2189 -0.3362  0.0236
  781TIP3    H123834   3.783   5.061  15.343  0.7797 -1.5730  1.2498
  781TIP3    H223835   3.747   4.919  15.306 -1.2984 -0.6438 -0.4881
  782TIP3   OH223836   0.138   6.230   4.372  0.0065 -0.5329  0.5793
  782TIP3    H123837   0.078   6.173   4.419  1.0138 -1.9835  0.1576
  782TIP3    H223838   0.098   6.241   4.286  0.1539 -1.2229  0.4144
  783TIP3   OH223839   1.918   1.143   4.753  0.0984 -0.2591 -0.1116
  783TIP3    H123840   1.855   1.107   4.816  1.6297  0.8112  2.1260
  783TIP3    H223841   1.867   1.207   4.703 -0.8938 -0.2981  0.8181
  784TIP3   OH223842   4.589   4.446  10.500 -0.4269  0.2938 -0.5442
  784TIP3    H123843   4.604   4.532  10.539 -1.3406  0.7640 -1.2073
  784TIP3    H223844   4.508   4.414  10.540  0.3172 -0.5941  0.2630
  785TIP3   OH223845   3.728   2.527  16.903 -0.0805  0.3088  0.0747
  785TIP3    H123846   3.654   2.587  16.903 -0.4119 -0.0208 -2.5756
  785TIP3    H223847   3.760   2.528  16.812  0.7374 -2.4655  0.2640
  786TIP3   OH223848   6.520   4.428   4.559  0.4507 -0.2565  0.2625
  786TIP3    H123849   6.570   4.359   4.516 -1.2446 -1.0350 -0.5110
  786TIP3    H223850   6.431   4.418   4.525 -0.3475  0.7930  1.9502
  787TIP3   OH223851   6.795   0.404   5.535 -0.1934 -0.2262 -0.7962
  787TIP3    H123852   6.713   0.416   5.581  0.8866 -0.0377  1.1138
  787TIP3    H223853   6.817   0.491   5.502  0.3397  0.1850  0.6014
  788TIP3   OH223854   1.892   6.112  14.481 -0.4503 -0.0023  0.0111
  788TIP3    H123855   1.899   6.053  14.406 -1.9164  1.0633 -0.9996
  788TIP3    H223856   1.884   6.199  14.443 -3.9785  0.3203  1.2291
  789TIP3   OH223857   2.802   1.948   1.884  0.0319 -0.5734 -0.1603
  789TIP3    H123858   2.877   1.894   1.859 -0.6218 -1.3162 -0.5760
  789TIP3    H223859   2.800   2.019   1.820  1.6608  0.6868  1.1611
  790TIP3   OH223860   0.327   4.558   4.383 -0.1690  0.4734 -0.1951
  790TIP3    H123861   0.290   4.488   4.436  0.3799  0.8627  0.7147
  790TIP3    H223862   0.411   4.524   4.352 -0.0918  0.5725 -0.0954
  791TIP3   OH223863   4.742   0.621  15.096  0.7262  0.2213 -0.1199
  791TIP3    H123864   4.822   0.612  15.148  0.2088 -2.2108  0.3064
  791TIP3    H223865   4.760   0.695  15.037  2.0727  1.7380  2.1157
  792TIP3   OH223866   4.127   6.721   3.513  0.2952 -0.5134  0.4626
  792TIP3    H123867   4.136   6.785   3.584  0.4429  0.5520 -0.5098
  792TIP3    H223868   4.172   6.760   3.439  1.1914 -2.1661  0.1108
  793TIP3   OH223869   4.816   1.878  15.864 -0.4694 -0.0507  0.2406
  793TIP3    H123870   4.857   1.797  15.893 -0.9983 -0.4659 -0.1615
  793TIP3    H223871   4.734   1.850  15.823 -1.8655  0.8729  2.3405
  794TIP3   OH223872   3.373   3.284   3.524  0.2707  0.0825 -0.2784
  794TIP3    H123873   3.456   3.281   3.571  0.0444 -0.3192  0.1000
  794TIP3    H223874   3.315   3.335   3.581  0.2574  0.3595 -0.5401
  795TIP3   OH223875   5.966   0.875   1.072 -0.2788  0.0083 -0.0735
  795TIP3    H123876   6.021   0.856   1.148 -1.4687 -0.7288  0.6269
  795TIP3    H223877   5.894   0.927   1.108 -1.3424 -1.1463 -0.5210
  796TIP3   OH223878   6.640   4.809  11.166  0.3081  0.3650  0.0369
  796TIP3    H123879   6.707   4.773  11.223 -0.0295 -1.4088 -0.6617
  796TIP3    H223880   6.575   4.739  11.157 -0.4216  1.1772 -1.2437
  797TIP3   OH223881   3.796   1.792   0.991  0.3973 -0.1150 -0.3803
  797TIP3    H123882   3.721   1.765   0.939 -0.7880  1.4828  0.4814
  797TIP3    H223883   3.847   1.711   1.003  0.2007 -0.6937 -3.1573
  798TIP3   OH223884   6.738   4.525  14.186 -0.6143 -0.0369 -0.0855
  798TIP3    H123885   6.751   4.530  14.281  2.3264 -1.5980 -0.3537
  798TIP3    H223886   6.645   4.506  14.176 -0.3197 -3.4792  2.6973
  799TIP3   OH223887   1.894   4.519  15.911 -0.0942 -0.7541 -0.0398
  799TIP3    H123888   1.838   4.461  15.859 -0.3473  1.4719 -2.4026
  799TIP3    H223889   1.974   4.527  15.858  0.2766  0.3265  0.6782
  800TIP3   OH223890   6.293   1.139  16.440  0.2003 -0.6125 -0.2461
  800TIP3    H123891   6.225   1.163  16.503  0.5636 -1.7666  0.5970
  800TIP3    H223892   6.256   1.066  16.391  0.8756 -1.2952  0.2661
  801TIP3   OH223893   0.546   0.130   0.179  0.3884 -0.0219 -0.0697
  801TIP3    H123894   0.586   0.080   0.250  1.0390 -1.4166 -1.4131
  801TIP3    H223895   0.548   0.072   0.104 -1.1173  1.1252 -1.0182
  802TIP3   OH223896   2.922   3.430   4.726  0.6904 -0.6567  0.3983
  802TIP3    H123897   2.978   3.354   4.741  1.8136 -0.1913 -1.1957
  802TIP3    H223898   2.870   3.406   4.649  0.4588 -0.1440  0.3950
  803TIP3   OH223899   1.102   0.196  11.950 -0.4513  0.5611  0.1547
  803TIP3    H123900   1.150   0.268  11.909  0.5104 -0.2990 -0.2383
  803TIP3    H223901   1.126   0.200  12.043 -0.2329  0.6130  0.0944
  804TIP3   OH223902   3.479   1.476   3.526 -0.1154 -0.4509  0.3894
  804TIP3    H123903   3.508   1.552   3.475  1.5838 -1.2739  0.1069
  804TIP3    H223904   3.429   1.514   3.599 -0.7702  0.8420 -0.6889
  805TIP3   OH223905   2.391   5.881   4.191  0.0506 -0.0672  0.0497
  805TIP3    H123906   2.300   5.908   4.178  0.3877  0.9329 -0.2904
  805TIP3    H223907   2.428   5.878   4.103 -0.2670 -2.7596 -0.0430
  806TIP3   OH223908   2.456   2.354  12.706 -0.6231  0.0356  0.9444
  806TIP3    H123909   2.469   2.424  12.771 -0.3866 -0.9279  1.9495
  806TIP3    H223910   2.384   2.385  12.651  2.0039  2.8878 -1.1174
  807TIP3   OH223911   1.262   4.682  15.372  0.1133 -0.0083 -0.3728
  807TIP3    H123912   1.275   4.775  15.388 -3.2741  0.2419  1.6230
  807TIP3    H223913   1.288   4.640  15.454 -0.6833 -0.5571 -0.3957
  808TIP3   OH223914   1.427   4.606  10.560 -0.0287  0.8523 -0.2350
  808TIP3    H123915   1.400   4.546  10.490  0.0534  2.0574 -1.3225
  808TIP3    H223916   1.455   4.685  10.514  1.1880  1.2202  1.1116
  809TIP3   OH223917   0.211   2.020   5.633 -0.7730  0.3598 -0.4349
  809TIP3    H123918   0.193   2.097   5.688 -1.9112 -0.9330  1.0463
  809TIP3    H223919   0.299   1.992   5.660 -0.9609  0.2667  0.0930
  810TIP3   OH223920   6.461   4.646   2.747 -0.5727 -0.1334  0.2471
  810TIP3    H123921   6.421   4.594   2.677 -0.4628  1.0903 -0.7479
  810TIP3    H223922   6.457   4.736   2.715  3.2080  0.0282 -0.0015
  811TIP3   OH223923   4.158   4.740  17.127 -0.1608  0.2178 -0.4066
  811TIP3    H123924   4.220   4.801  17.086  0.5974 -0.6863 -0.6242
  811TIP3    H223925   4.104   4.709  17.054  1.7791 -2.0917 -0.9433
  812TIP3   OH223926   2.181   4.349   5.310  0.5685 -0.2184  0.1197
  812TIP3    H123927   2.104   4.403   5.292 -0.1857 -1.2384  0.2695
  812TIP3    H223928   2.217   4.386   5.390  1.4723  1.6098 -1.0998
  813TIP3   OH223929   5.574   2.241   0.411  0.2730 -0.2153 -0.1718
  813TIP3    H123930   5.602   2.333   0.403 -0.2525 -0.0603 -0.2240
  813TIP3    H223931   5.486   2.246   0.447 -0.3878 -0.6441 -1.7002
  814TIP3   OH223932   0.141   3.157  13.510 -0.0865  0.2322 -0.1401
  814TIP3    H123933   0.154   3.231  13.450 -0.3462  0.7646  0.4592
  814TIP3    H223934   0.048   3.135  13.500 -0.0755  0.1676 -0.1012
  815TIP3   OH223935   2.395   0.709  13.222 -0.0747 -0.3168 -0.1652
  815TIP3    H123936   2.422   0.699  13.313 -1.2408  0.7074  0.3079
  815TIP3    H223937   2.376   0.620  13.192 -0.5449 -0.5676  0.8616
  816TIP3   OH223938   6.090   3.531   1.428  0.1770  0.3344  0.4008
  816TIP3    H123939   6.157   3.485   1.378  0.0463 -0.5362  1.0242
  816TIP3    H223940   6.086   3.485   1.511 -0.2128  1.2502  0.8994
  817TIP3   OH223941   4.862   6.297  13.542 -0.0119 -0.8088  0.7608
  817TIP3    H123942   4.800   6.348  13.489  1.5217 -1.1823 -1.4835
  817TIP3    H223943   4.827   6.208  13.542 -0.0700 -0.7872  0.4068
  818TIP3   OH223944   2.104   1.574  14.507  0.1775  0.1465 -0.2438
  818TIP3    H123945   2.113   1.579  14.412 -0.7424  0.5190 -0.3138
  818TIP3    H223946   2.129   1.661  14.539 -2.3652  0.9676 -0.3858
  819TIP3   OH223947   3.203   3.805   1.566 -0.3659  0.3107  0.0183
  819TIP3    H123948   3.202   3.875   1.631 -0.1503  0.7841 -0.4837
  819TIP3    H223949   3.257   3.839   1.494 -0.4434 -0.2803 -0.3278
  820TIP3   OH223950   1.509   2.536   3.053  0.2777 -0.1655  0.1515
  820TIP3    H123951   1.603   2.555   3.053  0.2386  0.0325 -0.3693
  820TIP3    H223952   1.502   2.445   3.080  0.6708 -0.4433 -0.6807
  821TIP3   OH223953   5.019   4.489  13.801  0.0602  0.2345  0.1318
  821TIP3    H123954   5.084   4.452  13.741  1.7612  2.0556  0.7770
  821TIP3    H223955   5.054   4.469  13.888 -0.6596  0.5418  0.4886
  822TIP3   OH223956   4.305   2.222  12.073  0.8362  0.2510 -0.1536
  822TIP3    H123957   4.308   2.298  12.131  1.1561 -1.0179  1.5289
  822TIP3    H223958   4.213   2.196  12.072  0.8659  0.1441 -0.0471
  823TIP3   OH223959   6.667   1.241  10.552 -0.0590  0.3815 -0.0884
  823TIP3    H123960   6.654   1.162  10.604  3.2702 -0.2832 -0.1751
  823TIP3    H223961   6.644   1.313  10.611  1.5965 -0.4568  1.6107
  824TIP3   OH223962   0.675   1.548  16.146  0.1270  0.0649 -0.7930
  824TIP3    H123963   0.765   1.563  16.116  0.6669 -1.8734 -0.2049
  824TIP3    H223964   0.672   1.589  16.233  0.1621  0.9023 -1.1776
  825TIP3   OH223965   3.844   3.694  13.632  0.0591  0.0682 -0.4135
  825TIP3    H123966   3.874   3.751  13.561 -0.0869  0.5237 -0.1089
  825TIP3    H223967   3.844   3.606  13.594  2.8076 -0.0982 -0.1256
  826TIP3   OH223968   3.785   0.145  11.206  0.0800  0.2123 -0.0991
  826TIP3    H123969   3.741   0.124  11.124 -1.0868 -1.7731  0.9923
  826TIP3    H223970   3.849   0.074  11.218 -0.5919 -0.1829  1.2791
  827TIP3   OH223971   6.715   1.241  16.192 -0.6573 -0.7528  0.0044
  827TIP3    H123972   6.696   1.174  16.257  0.2000 -0.2003  0.8320
  827TIP3    H223973   6.644   1.305  16.200  0.8617  0.7174  2.2921
  828TIP3   OH223974   4.901   5.011  13.180  0.8716 -0.4959 -0.3151
  828TIP3    H123975   4.837   4.973  13.241  2.1683 -0.6305  0.9951
  828TIP3    H223976   4.867   4.991  13.093 -1.2975  0.1595  0.3560
  829TIP3   OH223977   3.988   1.566  16.311  0.2533  0.5411  0.9942
  829TIP3    H123978   4.044   1.530  16.243 -0.6666  0.4033  0.3010
  829TIP3    H223979   3.903   1.525  16.297  0.0907  0.3850  2.3285
  830TIP3   OH223980   5.350   2.304   1.284 -0.2621  0.7569  0.2106
  830TIP3    H123981   5.385   2.222   1.247  0.8060  1.5381 -0.5401
  830TIP3    H223982   5.404   2.320   1.361 -0.9409  0.3811  0.7665
  831TIP3   OH223983   2.288   3.014   4.770 -0.3651 -0.5586  0.1284
  831TIP3    H123984   2.299   2.929   4.811  0.9463 -0.4155  0.0915
  831TIP3    H223985   2.344   3.011   4.692 -2.3149 -0.6004 -1.3274
  832TIP3   OH223986   1.333   1.262   3.788 -0.5762 -0.0691 -0.1990
  832TIP3    H123987   1.309   1.354   3.775 -0.1432  0.2153  0.9678
  832TIP3    H223988   1.271   1.230   3.853  0.1842 -0.2007  0.4699
  833TIP3   OH223989   2.885   1.891   3.704  0.0615 -0.5308 -0.4494
  833TIP3    H123990   2.856   1.957   3.642  0.6104  0.8341  0.7067
  833TIP3    H223991   2.963   1.930   3.746 -0.2210 -1.4555  0.9898
  834TIP3   OH223992   6.241   6.577  12.304 -0.4516  0.1898 -0.7871
  834TIP3    H123993   6.148   6.581  12.281 -0.9312  0.0418  1.0531
  834TIP3    H223994   6.244   6.600  12.397  1.0632 -2.2054 -0.1851
  835TIP3   OH223995   3.812   0.305  15.975 -0.5201 -0.1066  0.5793
  835TIP3    H123996   3.838   0.215  15.957  0.0688  0.0326  0.7393
  835TIP3    H223997   3.722   0.311  15.942  0.2332 -0.1059 -1.5170
  836TIP3   OH223998   2.291   1.818  14.185  0.4215 -0.2145 -0.3182
  836TIP3    H123999   2.374   1.849  14.223  0.2514 -0.2501  0.0819
  836TIP3    H224000   2.289   1.858  14.097  0.7669 -0.0511 -0.2540
  837TIP3   OH224001   3.550   5.384  10.880  0.4060  0.2541  0.0763
  837TIP3    H124002   3.494   5.356  10.807  0.8272  0.1466 -0.2112
  837TIP3    H224003   3.639   5.364  10.850  0.5025 -0.9935  1.1399
  838TIP3   OH224004   2.113   0.577   3.252 -0.7119 -0.1548 -0.0739
  838TIP3    H124005   2.053   0.639   3.293 -0.9524  0.4910 -1.4020
  838TIP3    H224006   2.058   0.525   3.193 -0.2751 -0.7346  0.0199
  839TIP3   OH224007   6.651   0.347   1.683  0.1958 -0.0897  0.2602
  839TIP3    H124008   6.578   0.299   1.720  0.6386 -0.7741  0.2397
  839TIP3    H224009   6.728   0.295   1.705  0.3315 -1.3380 -2.9332
  840TIP3   OH224010   0.215   0.573   1.242 -0.1856 -0.0569 -0.8956
  840TIP3    H124011   0.229   0.488   1.282 -0.3062 -0.6627 -2.1242
  840TIP3    H224012   0.121   0.577   1.224  0.1527 -0.6587 -2.9941
  841TIP3   OH224013   5.533   0.748   0.325  0.2699  0.2637  0.5786
  841TIP3    H124014   5.452   0.796   0.310  0.4354  0.3898  0.0856
  841TIP3    H224015   5.532   0.728   0.419 -0.3997  0.1356  0.5450
  842TIP3   OH224016   6.311   4.915   4.681 -0.1031  0.0155  0.0850
  842TIP3    H124017   6.305   4.819   4.680  1.7051 -0.1389  1.9048
  842TIP3    H224018   6.330   4.938   4.590  1.2059 -1.5097 -0.0594
  843TIP3   OH224019   0.304   1.331  16.681 -0.0531 -0.3153  0.0370
  843TIP3    H124020   0.224   1.281  16.662 -0.5474 -0.5164  2.4796
  843TIP3    H224021   0.372   1.289  16.628 -1.4920 -0.3383 -1.8222
  844TIP3   OH224022   6.652   0.281  16.057 -0.2435 -0.1552 -0.2949
  844TIP3    H124023   6.615   0.296  16.144  0.2427  1.1329 -0.2943
  844TIP3    H224024   6.732   0.334  16.055 -0.4357  0.1169 -1.6354
  845TIP3   OH224025   3.359   0.164  16.822  0.4035 -0.1982 -0.1604
  845TIP3    H124026   3.406   0.086  16.794 -1.4900 -0.9783 -1.2490
  845TIP3    H224027   3.420   0.236  16.804  2.5191 -1.4512  1.6719
  846TIP3   OH224028   2.016   5.099   1.302 -0.3820  0.1596  0.0013
  846TIP3    H124029   1.947   5.139   1.355 -0.6525  0.2156 -0.3921
  846TIP3    H224030   2.003   5.005   1.314  0.4736  0.1777  1.2090
  847TIP3   OH224031   4.108   6.289   3.344  0.4392  0.0376  0.1896
  847TIP3    H124032   4.083   6.288   3.252  0.7554 -0.5653  0.1079
  847TIP3    H224033   4.026   6.281   3.392  0.2227  0.8900 -0.0256
  848TIP3   OH224034   2.537   4.171   5.401  0.1325  0.0947 -0.1172
  848TIP3    H124035   2.519   4.252   5.353  2.1760  0.0662 -1.0130
  848TIP3    H224036   2.620   4.140   5.364 -0.2111 -1.9785  0.7920
  849TIP3   OH224037   3.261   5.661   1.563  0.4738  0.5570  0.2470
  849TIP3    H124038   3.248   5.654   1.657  1.1033  1.0820  0.3743
  849TIP3    H224039   3.218   5.584   1.527  1.0947 -0.1567  1.0402
  850TIP3   OH224040   6.045   6.689  16.779  0.0679 -0.3467  0.2017
  850TIP3    H124041   6.020   6.641  16.701  0.2509  0.1560 -0.1692
  850TIP3    H224042   6.090   6.766  16.746  1.7012 -1.0042  0.8417
  851TIP3   OH224043   3.544   0.338  15.937  0.1451  0.0330 -0.0663
  851TIP3    H124044   3.486   0.325  15.862  2.4139 -0.1048 -1.8487
  851TIP3    H224045   3.485   0.364  16.009 -2.1117 -0.2759 -1.7507
  852TIP3   OH224046   6.502   3.165   0.062 -0.0072  0.3248  0.5381
  852TIP3    H124047   6.431   3.115   0.102  2.1491 -1.3880  2.3993
  852TIP3    H224048   6.493   3.253   0.098 -0.7616 -0.0657  1.3103
  853TIP3   OH224049   5.223   3.695  16.221 -0.0339  0.6144 -0.2843
  853TIP3    H124050   5.203   3.781  16.258 -0.2446  0.0534  0.9222
  853TIP3    H224051   5.299   3.664  16.271 -1.0908 -0.6834  0.5566
  854TIP3   OH224052   3.572   1.511   0.195 -0.0231 -0.1649 -0.1553
  854TIP3    H124053   3.548   1.573   0.126  1.5209  1.4626  0.7354
  854TIP3    H224054   3.637   1.453   0.155 -0.0709 -0.0218 -0.4371
  855TIP3   OH224055   4.076   5.741   6.224 -0.4723 -0.3415  0.1890
  855TIP3    H124056   4.048   5.823   6.265 -0.1924 -0.6817  1.0846
  855TIP3    H224057   4.047   5.748   6.133 -2.2402 -0.1269  0.7622
  856TIP3   OH224058   4.071   4.592   5.633  0.1049 -0.1052 -0.3689
  856TIP3    H124059   4.120   4.631   5.560  0.0860  0.1128 -0.2658
  856TIP3    H224060   3.987   4.638   5.632 -0.4543 -1.1429 -1.1353
  857TIP3   OH224061   4.731   4.719   4.679 -0.4975  0.2312  0.4058
  857TIP3    H124062   4.826   4.732   4.686 -0.1147 -1.3098 -1.4840
  857TIP3    H224063   4.697   4.742   4.766  2.1475 -3.7830  2.6754
  858TIP3   OH224064   6.297   5.338   2.294 -0.1381  0.0589  0.3433
  858TIP3    H124065   6.351   5.417   2.301  0.3564 -0.1807 -0.7020
  858TIP3    H224066   6.346   5.270   2.341 -0.8593  0.5068  1.7873
  859TIP3   OH224067   5.159   1.360  14.114 -0.5163 -0.1579  0.0126
  859TIP3    H124068   5.151   1.383  14.207  1.5891  0.7041  0.0185
  859TIP3    H224069   5.205   1.276  14.114 -0.2958 -0.0383 -0.2389
  860TIP3   OH224070   5.503   2.451   4.039 -0.2716 -0.0151 -0.1975
  860TIP3    H124071   5.584   2.501   4.043 -0.0670 -0.4805  1.7344
  860TIP3    H224072   5.457   2.472   4.120 -1.1476 -1.3148 -0.3333
  861TIP3   OH224073   5.262   0.436   2.864 -0.1952 -0.3434 -0.0686
  861TIP3    H124074   5.287   0.528   2.849  4.1383 -1.5227 -0.6754
  861TIP3    H224075   5.177   0.442   2.908  0.5992  4.0055  1.1923
  862TIP3   OH224076   4.517   0.542   1.644 -0.7346  0.1008 -0.3368
  862TIP3    H124077   4.508   0.472   1.709 -0.1060  1.4587  1.2428
  862TIP3    H224078   4.454   0.609   1.672 -0.4774  0.6814 -1.1360
  863TIP3   OH224079   2.956   4.901  15.689  0.2479 -0.4269 -0.5039
  863TIP3    H124080   2.864   4.883  15.703 -0.0124  0.6659 -0.7551
  863TIP3    H224081   2.988   4.825  15.640 -0.1359 -1.5579  0.9954
  864TIP3   OH224082   1.662   1.920   1.214  0.0745  0.1007  0.0877
  864TIP3    H124083   1.704   1.913   1.128 -1.0847 -0.5495 -0.4347
  864TIP3    H224084   1.718   1.869   1.272  0.5225  0.0218 -0.4097
  865TIP3   OH224085   6.436   5.086  17.176 -0.4716 -0.2162 -0.1063
  865TIP3    H124086   6.432   5.005  17.226 -0.7143 -0.0686  0.1182
  865TIP3    H224087   6.455   5.059  17.086 -1.9744 -0.6224 -0.3149
  866TIP3   OH224088   6.097   4.478  14.815 -0.1265  0.0271 -0.3635
  866TIP3    H124089   6.099   4.390  14.853 -0.2240  0.1521 -0.0627
  866TIP3    H224090   6.143   4.533  14.880 -0.0327  0.1888 -0.5668
  867TIP3   OH224091   3.127   6.155  14.625  0.5442 -0.5244 -0.4952
  867TIP3    H124092   3.045   6.196  14.597 -0.5274 -1.9681  0.4754
  867TIP3    H224093   3.185   6.165  14.550 -0.1221  1.5695 -0.7797
  868TIP3   OH224094   0.621   3.109   4.062 -0.4295 -0.2967  0.2715
  868TIP3    H124095   0.599   3.190   4.107  1.8524  0.8313 -0.5459
  868TIP3    H224096   0.561   3.043   4.099 -1.5467  1.5047  1.7414
  869TIP3   OH224097   4.292   2.517  12.608  0.2175 -0.4348 -0.2676
  869TIP3    H124098   4.323   2.600  12.571  2.7390 -1.2730 -0.0734
  869TIP3    H224099   4.353   2.498  12.678  0.4743 -3.1557 -1.1937
  870TIP3   OH224100   0.327   3.594   4.744 -0.3212 -0.3023  0.3321
  870TIP3    H124101   0.367   3.659   4.686 -0.3250  0.8492  1.5896
  870TIP3    H224102   0.366   3.511   4.716  1.6010  0.5606  0.3255
  871TIP3   OH224103   2.092   4.627  10.733 -0.1802 -0.6720  0.1380
  871TIP3    H124104   2.069   4.541  10.697  0.9108 -1.5261  1.4245
  871TIP3    H224105   2.171   4.652  10.684  1.7760 -2.2002  2.4118
  872TIP3   OH224106   6.486   2.120  11.790 -0.3413 -0.0830  0.7243
  872TIP3    H124107   6.570   2.111  11.744  0.3918 -1.1533  2.2036
  872TIP3    H224108   6.498   2.198  11.845 -0.7438  0.4534  0.0409
  873TIP3   OH224109   2.006   2.257  11.831  0.4837 -0.3636  0.0633
  873TIP3    H124110   2.016   2.275  11.924 -0.8343 -2.8217  0.7321
  873TIP3    H224111   1.924   2.301  11.807 -0.4681 -1.7998  0.6589
  874TIP3   OH224112   0.192   0.943   0.910  0.0411 -0.2966 -0.3344
  874TIP3    H124113   0.230   0.995   0.981 -0.2324  0.0508 -0.4421
  874TIP3    H224114   0.117   0.899   0.951  0.1217 -0.4065 -0.3061
  875TIP3   OH224115   3.199   1.230   4.384  0.2333  0.4072 -0.6378
  875TIP3    H124116   3.295   1.233   4.383  0.3860 -2.1601  1.1781
  875TIP3    H224117   3.176   1.168   4.315  0.0244 -0.8915  0.5748
  876TIP3   OH224118   3.477   6.732   0.452 -0.0110 -0.1476 -0.3179
  876TIP3    H124119   3.396   6.713   0.404 -0.0222  2.1747 -1.2539
  876TIP3    H224120   3.467   6.684   0.535 -2.0227 -0.4659 -0.7148
  877TIP3   OH224121   5.849   4.774   2.930 -0.0186 -0.0615  0.3345
  877TIP3    H124122   5.862   4.852   2.983  0.5587 -0.8735  1.4107
  877TIP3    H224123   5.758   4.748   2.947 -1.1333  1.9350 -2.1916
  878TIP3   OH224124   4.934   0.149   6.170 -0.7528 -0.4168  0.0916
  878TIP3    H124125   4.998   0.099   6.221 -0.8782 -1.2529 -0.5655
  878TIP3    H224126   4.867   0.085   6.146 -1.3159  0.2352 -0.0942
  879TIP3   OH224127   6.799   6.419  14.509 -0.1830  0.2814 -0.3576
  879TIP3    H124128   6.861   6.394  14.577  0.7009 -0.5875 -1.4542
  879TIP3    H224129   6.722   6.365  14.525  0.0605  0.0128 -0.0977
  880TIP3   OH224130   6.225   3.499  10.536 -0.2932  0.1513  0.4598
  880TIP3    H124131   6.210   3.465  10.447 -2.6016 -0.3772  1.0147
  880TIP3    H224132   6.260   3.587  10.522 -2.7025  0.9426 -1.0371
  881TIP3   OH224133   4.081   6.469   1.471 -0.0702  0.3397  0.0944
  881TIP3    H124134   4.004   6.484   1.527  0.2773  0.9633  0.4136
  881TIP3    H224135   4.048   6.414   1.399 -1.8018  3.9708 -2.0174
  882TIP3   OH224136   0.271   3.657   2.628  0.0639  0.7185  1.0658
  882TIP3    H124137   0.192   3.621   2.668  1.3922 -1.6093  1.6767
  882TIP3    H224138   0.275   3.616   2.542 -0.1834  1.9702  0.4562
  883TIP3   OH224139   2.036   4.586  11.006 -0.4787 -0.3193 -0.3386
  883TIP3    H124140   2.021   4.501  11.048 -1.2456  0.3037  0.6692
  883TIP3    H224141   2.068   4.564  10.918  3.6404 -1.6722  1.3659
  884TIP3   OH224142   3.262   6.783  11.487  0.0060 -0.7881 -0.4792
  884TIP3    H124143   3.168   6.794  11.475 -0.1763  2.2043  2.7487
  884TIP3    H224144   3.301   6.855  11.437  0.4471 -0.6744  0.0241
  885TIP3   OH224145   0.777   1.687  15.345  0.4869 -0.5513 -0.4818
  885TIP3    H124146   0.853   1.632  15.361  1.9140  0.8910 -2.0352
  885TIP3    H224147   0.709   1.627  15.316  1.5087 -1.6804 -0.5748
  886TIP3   OH224148   6.638   4.413  14.717  0.1607 -0.2678  0.4253
  886TIP3    H124149   6.574   4.394  14.785 -1.2066  0.5882 -0.5766
  886TIP3    H224150   6.651   4.330  14.672 -2.6076  0.1608 -1.2953
  887TIP3   OH224151   0.914   1.597   0.064 -0.2140  0.0118 -0.0465
  887TIP3    H124152   0.866   1.600   0.146 -2.0366 -0.3626 -1.0701
  887TIP3    H224153   0.885   1.674   0.016  1.8625  0.9745  0.1891
  888TIP3   OH224154   6.231   3.219  13.641 -0.0385 -0.3452 -0.0363
  888TIP3    H124155   6.318   3.191  13.613  0.0971 -0.0073  0.0439
  888TIP3    H224156   6.221   3.182  13.729  0.9504  1.5210  0.8982
  889TIP3   OH224157   4.734   5.176  11.627  0.4735 -0.4460 -0.1344
  889TIP3    H124158   4.826   5.156  11.642  0.5441  1.0703  1.5418
  889TIP3    H224159   4.733   5.267  11.598 -0.5622 -0.1498  0.7783
  890TIP3   OH224160   6.164   2.500   2.086  0.4069 -0.3780  0.2600
  890TIP3    H124161   6.121   2.436   2.143  0.7452 -0.3672  0.5314
  890TIP3    H224162   6.251   2.512   2.126  0.1568  0.6428  0.4983
  891TIP3   OH224163   4.127   2.677   1.754 -0.4718 -0.1170  0.8098
  891TIP3    H124164   4.214   2.683   1.714  0.4296  2.0622  2.9633
  891TIP3    H224165   4.130   2.595   1.804  0.5348  0.1814  1.2626
  892TIP3   OH224166   3.082   5.456   5.517 -0.1424  0.3882 -0.4453
  892TIP3    H124167   2.990   5.471   5.493 -0.2959  2.1396  1.1454
  892TIP3    H224168   3.097   5.363   5.496 -2.2181  0.1122 -0.8580
  893TIP3   OH224169   2.067   3.463  16.620  0.0890 -0.2517 -0.4045
  893TIP3    H124170   2.096   3.380  16.583 -1.1036 -0.8648 -0.0138
  893TIP3    H224171   1.971   3.458  16.617  0.0090  1.0456 -0.2389
  894TIP3   OH224172   2.634   6.626   2.480 -0.1271 -0.1181 -0.0525
  894TIP3    H124173   2.659   6.684   2.552  0.3635  1.9283 -1.8157
  894TIP3    H224174   2.717   6.599   2.441 -0.4119  0.0061 -0.7639
  895TIP3   OH224175   1.160   3.170  16.599 -0.3636  0.1733 -0.0476
  895TIP3    H124176   1.179   3.247  16.653 -0.7265 -0.5464  1.1177
  895TIP3    H224177   1.125   3.206  16.517 -1.0266  1.2345  0.6932
  896TIP3   OH224178   2.460   1.573   4.585 -0.0750  0.1698  0.1737
  896TIP3    H124179   2.419   1.620   4.511 -0.7637  0.9468  1.0352
  896TIP3    H224180   2.524   1.515   4.544 -1.4147 -0.4091 -1.1464
  897TIP3   OH224181   1.150   4.039  16.821 -0.6226  0.2773  0.2593
  897TIP3    H124182   1.124   4.131  16.828  0.7681  0.7131 -0.2997
  897TIP3    H224183   1.174   4.027  16.730  1.8372  0.0701  0.8970
  898TIP3   OH224184   4.486   4.263  16.943  0.0682  0.2898  0.0535
  898TIP3    H124185   4.418   4.324  16.915 -0.0250  1.4360  2.6262
  898TIP3    H224186   4.444   4.177  16.940 -0.7083  0.6902 -0.7745
  899TIP3   OH224187   1.274   0.910   1.572 -0.5518 -0.1968 -0.3040
  899TIP3    H124188   1.276   0.985   1.512  0.4312 -1.0030 -1.3193
  899TIP3    H224189   1.270   0.949   1.659 -0.8031  1.0246 -0.8511
  900TIP3   OH224190   2.158   1.992  15.096  0.1249  0.6320  0.0276
  900TIP3    H124191   2.071   1.955  15.077 -0.8795  1.4846  2.7460
  900TIP3    H224192   2.218   1.936  15.048 -1.9262 -0.0218 -1.8678
  901TIP3   OH224193   3.617   2.035   6.385  0.2215 -0.0593 -0.1860
  901TIP3    H124194   3.553   2.016   6.316  0.5260 -0.4385 -0.3695
  901TIP3    H224195   3.608   2.129   6.400 -0.6925 -0.1933  0.1144
  902TIP3   OH224196   2.918   3.647   2.108  0.0848  0.4197 -0.1195
  902TIP3    H124197   2.939   3.585   2.178 -1.4040  0.6433  0.5615
  902TIP3    H224198   2.900   3.591   2.032  0.5393  0.1045  0.0071
  903TIP3   OH224199   1.417   6.791  15.295  0.4956  0.4781 -0.4501
  903TIP3    H124200   1.422   6.881  15.264  0.3005 -0.0289 -1.9701
  903TIP3    H224201   1.400   6.739  15.217 -1.3615 -0.6838  0.6878
  904TIP3   OH224202   3.196   3.362   0.429 -0.2757  0.3663  0.2093
  904TIP3    H124203   3.262   3.409   0.380 -0.0918 -2.7123 -2.6521
  904TIP3    H224204   3.231   3.356   0.518  2.3882  0.4498 -0.8124
  905TIP3   OH224205   5.294   0.858  11.966  0.0278 -0.2392  0.6372
  905TIP3    H124206   5.287   0.789  11.900  0.1578 -0.5094  0.9010
  905TIP3    H224207   5.367   0.830  12.021  1.9092  1.5044 -0.8864
  906TIP3   OH224208   3.105   0.334  12.233 -0.1228  0.0325  0.0036
  906TIP3    H124209   3.137   0.246  12.253 -0.9432 -0.0364  1.0767
  906TIP3    H224210   3.046   0.322  12.159  0.8321 -0.1152 -0.7412
  907TIP3   OH224211   4.966   5.369   2.036 -0.2933  0.2681 -0.2850
  907TIP3    H124212   5.010   5.285   2.019  1.1871  1.3180 -1.8922
  907TIP3    H224213   4.881   5.361   1.993 -0.5016 -0.7182  0.2983
  908TIP3   OH224214   4.044   2.946  11.821  0.6424 -0.2026  0.1165
  908TIP3    H124215   4.045   2.921  11.729  1.8050  0.5553 -0.0975
  908TIP3    H224216   3.999   3.030  11.823  0.8854 -0.0753  0.2066
  909TIP3   OH224217   4.617   3.066   4.421 -0.3881 -0.5614  0.1644
  909TIP3    H124218   4.625   3.063   4.326 -4.5277 -0.4663 -0.2832
  909TIP3    H224219   4.666   2.991   4.453  0.0190 -1.2845 -2.1420
  910TIP3   OH224220   5.809   6.052  12.838 -0.0847 -0.1799 -0.2863
  910TIP3    H124221   5.752   6.084  12.768  1.4206 -0.8455 -1.8694
  910TIP3    H224222   5.896   6.045  12.797  0.6272 -1.5426  1.3667
  911TIP3   OH224223   2.732   2.206  13.386 -0.0830  0.0936  0.0247
  911TIP3    H124224   2.751   2.120  13.348  0.2929  0.7656 -1.3338
  911TIP3    H224225   2.664   2.189  13.452  1.8724 -1.6436  1.6770
  912TIP3   OH224226   4.955   0.987   3.174 -0.7136  0.0778  0.5780
  912TIP3    H124227   4.906   1.050   3.120  0.8685  2.0250  1.3244
  912TIP3    H224228   4.989   1.040   3.247  0.9101 -1.5991  1.0775
  913TIP3   OH224229   0.685   2.500   0.280  0.0158  0.3823  0.1859
  913TIP3    H124230   0.646   2.492   0.367 -0.3227  0.7659  0.0703
  913TIP3    H224231   0.613   2.526   0.223  0.5528  1.6733  0.0819
  914TIP3   OH224232   1.625   0.577  15.343 -0.4365 -0.2339 -0.1348
  914TIP3    H124233   1.677   0.627  15.280  0.3850 -1.3149 -0.3159
  914TIP3    H224234   1.592   0.643  15.405  0.5665  0.5401 -0.4226
  915TIP3   OH224235   4.295   6.304   3.787  0.4174 -0.4742  0.0854
  915TIP3    H124236   4.291   6.397   3.766 -1.7686 -0.7155 -0.6919
  915TIP3    H224237   4.312   6.260   3.704  0.6185 -0.8237  0.3065
  916TIP3   OH224238   0.001   5.161   2.716 -0.2654  0.2683  0.2033
  916TIP3    H124239   0.015   5.252   2.743  1.1932  0.1802 -0.2000
  916TIP3    H224240   0.060   5.149   2.642 -1.6705 -0.5280 -0.7954
  917TIP3   OH224241   5.552   6.244  11.254  0.3852 -0.0601 -0.1088
  917TIP3    H124242   5.471   6.292  11.241 -0.1748 -0.6005  1.2923
  917TIP3    H224243   5.602   6.299  11.315 -0.1377 -1.0902  1.2724
  918TIP3   OH224244   5.698   2.761   0.588 -0.5526 -0.4714 -0.3537
  918TIP3    H124245   5.647   2.814   0.527  0.7607  2.2231  0.8100
  918TIP3    H224246   5.633   2.713   0.639 -1.8288  0.9071 -0.6540
  919TIP3   OH224247   2.338   0.075  14.029  0.2480  0.2509 -0.0394
  919TIP3    H124248   2.392   0.011  14.077 -1.3996  0.5070  2.2711
  919TIP3    H224249   2.362   0.159  14.067  0.8163  0.7746 -1.5388
  920TIP3   OH224250   5.069   1.123   2.574  0.0218  0.2287  0.2511
  920TIP3    H124251   5.095   1.099   2.663 -1.7254 -1.4387  0.3613
  920TIP3    H224252   5.054   1.217   2.577  3.5160  0.8336  0.7693
  921TIP3   OH224253   1.294   4.034   4.160 -0.0914  0.0150 -0.4348
  921TIP3    H124254   1.301   4.007   4.252  0.3619  0.6728 -0.2722
  921TIP3    H224255   1.236   3.969   4.121  0.7360 -1.0270  0.0232
  922TIP3   OH224256   5.792   1.521  15.310  0.9641 -0.0774  0.0057
  922TIP3    H124257   5.871   1.498  15.263  1.0325 -3.0994  1.4927
  922TIP3    H224258   5.823   1.568  15.388  1.0171  2.0896 -1.2667
  923TIP3   OH224259   3.169   4.747   1.114 -0.2239 -0.3280  0.4350
  923TIP3    H124260   3.242   4.792   1.157  0.5414  0.6233 -1.7523
  923TIP3    H224261   3.172   4.658   1.148  1.5307 -0.1102  0.9167
  924TIP3   OH224262   3.933   4.889   0.968 -0.3755  0.3632  0.0384
  924TIP3    H124263   3.845   4.897   1.004 -0.4665 -1.1299  0.2018
  924TIP3    H224264   3.991   4.921   1.037 -0.7583  0.8967  0.1130
  925TIP3   OH224265   3.344   3.338   0.705  0.3390 -0.9021  0.3455
  925TIP3    H124266   3.401   3.289   0.765  1.4819 -0.0911 -0.0780
  925TIP3    H224267   3.283   3.384   0.763  0.6260 -1.1219  0.8258
  926TIP3   OH224268   0.099   0.590  14.196  0.3142 -0.2676 -0.1109
  926TIP3    H124269   0.103   0.548  14.110  0.1587  0.6280 -0.5680
  926TIP3    H224270   0.113   0.519  14.259 -0.0527 -1.0122 -0.8576
  927TIP3   OH224271   5.430   4.968   2.873 -0.3954 -0.5641 -0.2975
  927TIP3    H124272   5.511   5.019   2.877 -0.4863 -0.4095 -0.4476
  927TIP3    H224273   5.449   4.898   2.811  0.3602 -1.8187  1.3022
  928TIP3   OH224274   4.003   6.698  14.826 -0.0877 -0.0314 -0.2295
  928TIP3    H124275   3.976   6.780  14.784  0.4507  0.7524  0.9344
  928TIP3    H224276   3.953   6.694  14.907 -1.0359 -1.4911 -0.8690
  929TIP3   OH224277   6.315   1.102  12.487  0.3787  0.0038  0.2724
  929TIP3    H124278   6.279   1.020  12.521  0.9221  0.1026  1.0877
  929TIP3    H224279   6.240   1.162  12.484  0.3699  0.0620  1.5042
  930TIP3   OH224280   2.323   6.684   0.900 -0.3401  0.1230 -0.4918
  930TIP3    H124281   2.384   6.686   0.826  0.1714 -1.0693 -0.1129
  930TIP3    H224282   2.357   6.616   0.958 -1.0713  0.6367  0.5639
  931TIP3   OH224283   2.567   6.543  16.257 -0.8700 -0.2262 -0.0663
  931TIP3    H124284   2.649   6.509  16.222 -1.3946 -1.5222 -0.0734
  931TIP3    H224285   2.593   6.596  16.332 -0.0286 -0.7272 -0.0009
  932TIP3   OH224286   3.188   0.693   1.807  0.4872  0.7512 -0.2353
  932TIP3    H124287   3.201   0.618   1.749  2.4371 -1.8821  3.3840
  932TIP3    H224288   3.259   0.753   1.784  1.1691 -0.1950 -0.6400
  933TIP3   OH224289   4.715   1.572  15.167  0.3147  0.0202 -0.0725
  933TIP3    H124290   4.781   1.579  15.098  1.7495 -1.9873  1.0428
  933TIP3    H224291   4.722   1.482  15.198 -2.4274  0.0166  0.6284
  934TIP3   OH224292   3.256   1.690   4.003 -0.3180 -0.1963  0.0157
  934TIP3    H124293   3.178   1.721   4.049 -0.8809 -0.2057 -0.9222
  934TIP3    H224294   3.233   1.602   3.972  0.7132 -0.9418  1.3064
  935TIP3   OH224295   5.013   1.354  14.832  0.0626  0.0890  0.4650
  935TIP3    H124296   5.009   1.277  14.776 -0.2158  0.1631  0.3854
  935TIP3    H224297   5.038   1.425  14.773 -0.3081  0.1821  0.4220
  936TIP3   OH224298   0.413   3.218  15.722 -0.3347 -0.8102 -0.4125
  936TIP3    H124299   0.419   3.122  15.730  1.7140 -0.6775 -0.0850
  936TIP3    H224300   0.497   3.244  15.687 -0.3274  1.0328  0.9028
  937TIP3   OH224301   1.658   1.311  13.690 -0.1362  0.0902  0.1429
  937TIP3    H124302   1.603   1.352  13.623 -1.2497 -0.7598  0.5225
  937TIP3    H224303   1.694   1.384  13.739  0.0677  0.6982 -0.8960
  938TIP3   OH224304   1.729   3.842  16.520 -0.1798  0.1807 -0.3038
  938TIP3    H124305   1.806   3.844  16.578  0.2198 -0.6582 -0.7859
  938TIP3    H224306   1.762   3.875  16.436 -0.5133  0.4643 -0.3218
  939TIP3   OH224307   0.390   5.308  14.824 -0.2637 -0.1377  0.4847
  939TIP3    H124308   0.325   5.238  14.826  1.0897 -1.5598 -1.8582
  939TIP3    H224309   0.355   5.371  14.761  0.6213 -0.9455 -0.8421
  940TIP3   OH224310   4.476   1.808  15.094 -0.1187  0.3040 -0.2871
  940TIP3    H124311   4.485   1.715  15.117  0.3066  0.3468 -0.2750
  940TIP3    H224312   4.400   1.837  15.144  0.4912  0.2641  0.6770
  941TIP3   OH224313   2.155   3.739   4.915  0.3815  0.2488  0.1231
  941TIP3    H124314   2.173   3.747   5.008  1.0165 -0.5987  0.0877
  941TIP3    H224315   2.119   3.823   4.889 -0.4455  0.2582  1.2762
  942TIP3   OH224316   1.230   3.683  13.477  0.2433 -0.1327  0.3476
  942TIP3    H124317   1.154   3.741  13.487 -1.1838 -1.7435 -0.7578
  942TIP3    H224318   1.269   3.709  13.394 -0.7338 -1.0920 -0.4308
  943TIP3   OH224319   2.153   5.282   3.019  0.1887 -0.0341  0.1315
  943TIP3    H124320   2.142   5.323   3.105  1.6520 -2.1986  1.4002
  943TIP3    H224321   2.067   5.247   2.997 -0.5707  1.8706 -0.0257
  944TIP3   OH224322   0.175   4.481  12.568 -0.1415 -0.0932 -0.1842
  944TIP3    H124323   0.257   4.467  12.615 -0.3444  1.6843  0.7496
  944TIP3    H224324   0.112   4.505  12.637 -1.2519 -0.7088 -0.9792
  945TIP3   OH224325   6.307   3.004  16.247 -0.1405  0.2137 -0.3258
  945TIP3    H124326   6.311   2.926  16.193  0.1936  0.4473 -0.6425
  945TIP3    H224327   6.235   2.988  16.308  1.5921 -1.4776  1.3506
  946TIP3   OH224328   4.971   6.528   1.499  0.0872  0.1773 -0.2319
  946TIP3    H124329   4.945   6.592   1.433  0.5629 -1.2277 -1.8413
  946TIP3    H224330   4.901   6.531   1.565  0.5942  2.9871  0.2139
  947TIP3   OH224331   2.483   5.178  13.048  0.1004  0.3508 -0.6701
  947TIP3    H124332   2.518   5.190  13.136  1.4943 -1.0353 -1.0173
  947TIP3    H224333   2.508   5.258  13.001 -2.6503  2.1541  0.7771
  948TIP3   OH224334   4.663   6.088   0.003  0.3659 -0.3771 -0.5464
  948TIP3    H124335   4.592   6.131   0.051  1.0619  0.3623 -0.1832
  948TIP3    H224336   4.685   6.012   0.057 -0.5076 -0.9129 -0.9289
  949TIP3   OH224337   5.323   1.306   5.978 -0.1918 -0.4226  0.0721
  949TIP3    H124338   5.258   1.281   6.043 -0.8723 -0.2982 -0.5548
  949TIP3    H224339   5.290   1.387   5.940  1.0383  0.3986  0.7351
  950TIP3   OH224340   6.344   4.549  16.321  0.3649  0.1748  0.1343
  950TIP3    H124341   6.351   4.591  16.407 -2.9788 -1.0072  1.0440
  950TIP3    H224342   6.321   4.458  16.340  1.1969 -0.5089 -1.9847
  951TIP3   OH224343   1.565   6.412  15.839  0.4247 -0.0393 -0.0821
  951TIP3    H124344   1.475   6.434  15.865 -0.4065 -2.4060 -0.8320
  951TIP3    H224345   1.556   6.382  15.748  1.5622 -2.7744  0.6670
  952TIP3   OH224346   5.914   4.317   2.481 -0.6944  0.5129  0.0868
  952TIP3    H124347   5.884   4.373   2.553 -1.2132 -0.1678  0.4001
  952TIP3    H224348   5.926   4.378   2.408 -2.7988  0.8213 -0.0294
  953TIP3   OH224349   6.074   4.992   4.400  0.1344 -0.2012  0.1189
  953TIP3    H124350   6.076   5.060   4.468 -1.0655  0.7725 -0.8136
  953TIP3    H224351   6.033   4.917   4.443  1.9028 -0.5264  1.3017
  954TIP3   OH224352   0.885   4.745   3.175  0.1709  0.9303  0.0076
  954TIP3    H124353   0.959   4.805   3.178 -0.1191  1.2977 -0.2213
  954TIP3    H224354   0.836   4.764   3.255  0.8709 -0.0208  0.6850
  955TIP3   OH224355   4.228   2.841   3.450  0.0930 -0.4033  0.0395
  955TIP3    H124356   4.182   2.843   3.366  1.1160 -3.1954 -0.6225
  955TIP3    H224357   4.179   2.778   3.503  0.4520  0.0861  0.9565
  956TIP3   OH224358   0.816   2.018   1.679 -0.1271  0.0412 -0.4516
  956TIP3    H124359   0.733   2.040   1.722  0.2140  0.1516  0.1544
  956TIP3    H224360   0.793   1.953   1.613 -0.9529  1.2470 -1.3667
  957TIP3   OH224361   0.237   0.997  14.671  0.5775 -0.1654  0.2864
  957TIP3    H124362   0.265   1.063  14.733  0.1750  0.5715 -0.3077
  957TIP3    H224363   0.144   1.015  14.656  1.0955  0.8260 -1.9311
  958TIP3   OH224364   0.404   4.485   1.226  0.4190 -0.4461 -0.2094
  958TIP3    H124365   0.320   4.480   1.181  0.5854  0.6597 -0.6629
  958TIP3    H224366   0.460   4.535   1.166  0.6229  1.1105  1.2711
  959TIP3   OH224367   3.617   0.228   0.097  0.2425  0.5119 -0.2835
  959TIP3    H124368   3.687   0.292   0.102  1.0354 -0.2294 -1.6871
  959TIP3    H224369   3.653   0.150   0.139 -0.7818  0.9962  1.5791
  960TIP3   OH224370   2.366   5.925  16.074  0.2234  0.0895 -0.3964
  960TIP3    H124371   2.406   5.879  16.000 -0.2799  2.0012 -1.9134
  960TIP3    H224372   2.431   5.990  16.100 -0.7078  1.2592 -0.9675
  961TIP3   OH224373   6.109   0.172  16.630  0.2253  0.0807  0.3046
  961TIP3    H124374   6.113   0.192  16.723  2.2600  0.2420  0.2072
  961TIP3    H224375   6.180   0.109  16.616 -0.1648 -0.0683 -1.1045
  962TIP3   OH224376   3.425   2.777  14.214  0.1755 -0.9032 -0.4508
  962TIP3    H124377   3.451   2.776  14.122  1.5995 -2.2750 -0.0653
  962TIP3    H224378   3.452   2.691  14.247  5.4370  1.7568  2.8156
  963TIP3   OH224379   4.185   6.659  10.811 -0.2723 -0.8700  0.0018
  963TIP3    H124380   4.181   6.742  10.858  0.2924  0.1800 -1.7383
  963TIP3    H224381   4.233   6.600  10.869 -1.1880 -0.1768  1.5020
  964TIP3   OH224382   4.316   6.517  12.607 -0.1716 -0.5299 -0.3044
  964TIP3    H124383   4.285   6.501  12.696  1.4143 -0.3736  0.2783
  964TIP3    H224384   4.267   6.454  12.553  0.0371 -1.7197  0.8854
  965TIP3   OH224385   3.539   4.159  17.209  0.1500 -0.3192  0.0594
  965TIP3    H124386   3.524   4.070  17.180  0.5655 -1.0134  1.8825
  965TIP3    H224387   3.451   4.196  17.221 -0.0483 -1.0690  0.9894
  966TIP3   OH224388   0.470   1.029  11.149  0.2549  0.0492  0.8035
  966TIP3    H124389   0.411   0.985  11.088  1.6305 -0.8198  0.0669
  966TIP3    H224390   0.414   1.089  11.199 -1.1332 -0.3527 -0.2616
  967TIP3   OH224391   4.378   4.904  11.762 -0.0386  0.2610 -0.5027
  967TIP3    H124392   4.322   4.973  11.727 -0.2156  0.1925 -0.3553
  967TIP3    H224393   4.320   4.827  11.768  0.5166 -0.2919 -2.0192
  968TIP3   OH224394   0.665   0.598  12.462 -0.3950 -0.3244 -0.1162
  968TIP3    H124395   0.572   0.613  12.443 -0.0891  0.5501 -0.9912
  968TIP3    H224396   0.668   0.582  12.556 -1.6593 -2.2874 -0.3896
  969TIP3   OH224397   0.553   4.144  11.492  0.1154 -0.0304 -0.0463
  969TIP3    H124398   0.576   4.219  11.439 -1.8841  1.3552  0.9613
  969TIP3    H224399   0.461   4.158  11.515 -0.7834 -3.5515 -1.1135
  970TIP3   OH224400   5.386   2.905   4.166 -0.4950  0.5003 -0.5036
  970TIP3    H124401   5.370   2.909   4.072 -2.8536 -0.1833 -0.1624
  970TIP3    H224402   5.332   2.832   4.197  2.8127 -1.4828  0.9138
  971TIP3   OH224403   6.051   3.027   3.864 -0.0610 -0.0597  0.5294
  971TIP3    H124404   6.114   3.005   3.933 -0.6995  2.2704  1.9135
  971TIP3    H224405   5.966   3.001   3.900 -0.2702  0.0152  0.0936
  972TIP3   OH224406   1.854   1.576  12.975  0.1565  0.5193 -0.2261
  972TIP3    H124407   1.919   1.637  13.011  1.8782 -0.9950 -0.7111
  972TIP3    H224408   1.894   1.544  12.895 -1.0148 -0.7956 -0.2966
  973TIP3   OH224409   1.407   0.244  15.603 -0.1035 -0.2500  0.1650
  973TIP3    H124410   1.459   0.200  15.537 -0.2704 -0.4630  0.1715
  973TIP3    H224411   1.424   0.195  15.684  1.5817  1.1665  0.6968
  974TIP3   OH224412   5.098   6.810  13.376  0.3932 -0.0324  0.1505
  974TIP3    H124413   5.159   6.883  13.376  0.3935 -0.0202 -1.0324
  974TIP3    H224414   5.152   6.733  13.393  0.6042  0.0819  0.0002
  975TIP3   OH224415   4.346   2.375   5.372 -0.3174 -0.6161 -0.1325
  975TIP3    H124416   4.282   2.305   5.384  1.3425 -2.3252 -1.1586
  975TIP3    H224417   4.329   2.407   5.283 -1.0496  0.2966  0.3202
  976TIP3   OH224418   2.015   6.573  13.736  0.4260 -0.1560 -0.3659
  976TIP3    H124419   2.093   6.569  13.680  1.2654  1.7109  0.6262
  976TIP3    H224420   2.041   6.630  13.809 -1.6775 -0.0212  0.3035
  977TIP3   OH224421   0.891   2.275   6.428 -0.7293  0.2793  0.0305
  977TIP3    H124422   0.933   2.278   6.343  0.9165 -2.8503  0.6614
  977TIP3    H224423   0.910   2.360   6.468 -1.8100  1.9172 -2.7729
  978TIP3   OH224424   5.382   2.277  11.095  0.0499  0.3603 -0.9563
  978TIP3    H124425   5.369   2.182  11.100 -0.3019  0.4169 -0.8182
  978TIP3    H224426   5.440   2.289  11.020  0.3803  0.0082 -0.7570
  979TIP3   OH224427   2.873   5.595   4.958  0.1332 -0.3113  0.4311
  979TIP3    H124428   2.930   5.651   4.904 -1.0279  1.5623  1.1011
  979TIP3    H224429   2.786   5.633   4.948  0.0418  0.8049  4.4544
  980TIP3   OH224430   2.717   3.233   4.650 -0.1440  0.5542  0.4729
  980TIP3    H124431   2.781   3.216   4.581 -1.7490  1.9868 -1.4277
  980TIP3    H224432   2.759   3.203   4.730  2.2974  0.0841 -0.9481
  981TIP3   OH224433   0.652   3.900   4.636  0.2209 -0.0937  0.2820
  981TIP3    H124434   0.738   3.869   4.666  0.5116 -0.3709 -0.8270
  981TIP3    H224435   0.609   3.823   4.600 -0.3863  0.1093  0.5624
  982TIP3   OH224436   1.802   3.297   3.883 -0.0138  0.3513  0.2187
  982TIP3    H124437   1.819   3.222   3.941 -0.9150 -0.8893 -1.0877
  982TIP3    H224438   1.755   3.359   3.939  0.3747 -0.2261  1.2123
  983TIP3   OH224439   5.015   4.839  13.422  0.3955 -0.2026 -0.1333
  983TIP3    H124440   4.933   4.886  13.411  0.4991  0.2246  0.8327
  983TIP3    H224441   4.989   4.748  13.434  0.1557 -0.2929 -1.3244
  984TIP3   OH224442   3.646   3.783  14.245 -0.0108  0.2970  0.3394
  984TIP3    H124443   3.688   3.698  14.261  0.6733  0.3564 -1.0393
  984TIP3    H224444   3.719   3.842  14.226 -0.6944  0.3104 -2.5135
  985TIP3   OH224445   4.220   6.390   4.385 -0.1341  0.4386 -0.5463
  985TIP3    H124446   4.303   6.369   4.428 -1.2601  0.0135  1.4480
  985TIP3    H224447   4.242   6.391   4.291  2.4363  1.8046  0.0173
  986TIP3   OH224448   5.946   1.885   2.116  0.0762 -0.0599 -1.1314
  986TIP3    H124449   5.908   1.809   2.072  2.0950 -2.0999  0.5326
  986TIP3    H224450   6.033   1.896   2.076  0.1454  0.8328 -0.7692
  987TIP3   OH224451   0.313   0.925   1.965 -0.4787  0.0314  0.4093
  987TIP3    H124452   0.377   0.912   2.035 -1.2996  2.2650  1.6212
  987TIP3    H224453   0.350   0.996   1.913 -1.9832  1.3851  1.1571
  988TIP3   OH224454   3.167   6.659  15.954  0.5330  0.4136  0.0201
  988TIP3    H124455   3.127   6.578  15.925  2.9790 -1.1666  0.8914
  988TIP3    H224456   3.259   6.637  15.968  0.8389  2.7989  2.2576
  989TIP3   OH224457   5.869   1.318   3.287  0.4323 -0.1850  0.8382
  989TIP3    H124458   5.818   1.328   3.367  0.3480 -0.1458  0.7800
  989TIP3    H224459   5.850   1.229   3.257  0.6754 -0.2925  1.0081
  990TIP3   OH224460   5.094   2.081   5.621  0.3453  0.1828 -0.2160
  990TIP3    H124461   5.011   2.044   5.650  0.3665  0.7270  0.5413
  990TIP3    H224462   5.156   2.058   5.689  0.5342  0.9017 -0.1428
  991TIP3   OH224463   3.445   2.686   4.074  0.2100  0.0058  0.0540
  991TIP3    H124464   3.409   2.744   4.007  2.5611 -0.4903 -1.7029
  991TIP3    H224465   3.486   2.745   4.137 -0.0897  0.3780 -0.0978
  992TIP3   OH224466   0.923   1.862  14.439  0.1600  0.1158  0.0779
  992TIP3    H124467   0.928   1.921  14.365  1.8785  1.4390  1.2055
  992TIP3    H224468   1.013   1.856  14.472 -0.4730 -0.8431  1.7390
  993TIP3   OH224469   0.625   3.694   3.005 -0.1880 -0.2207  0.1152
  993TIP3    H124470   0.581   3.697   2.920  0.5443 -2.2542 -0.3648
  993TIP3    H224471   0.634   3.786   3.031 -1.1014  0.3802 -1.6426
  994TIP3   OH224472   3.281   2.543  10.845 -0.0677 -0.2183 -0.0215
  994TIP3    H124473   3.307   2.607  10.911  0.6108 -0.1343 -0.3719
  994TIP3    H224474   3.226   2.481  10.893 -0.2918  0.3288  0.4318
  995TIP3   OH224475   3.807   2.557   3.131  0.1383 -0.1367  0.1727
  995TIP3    H124476   3.719   2.594   3.121  0.9667  1.5238 -1.2249
  995TIP3    H224477   3.819   2.503   3.053 -0.0071 -1.1194  0.8345
  996TIP3   OH224478   0.746   5.860   3.740  0.7353 -0.8283  0.3017
  996TIP3    H124479   0.701   5.815   3.812  1.1314 -0.4646  0.7844
  996TIP3    H224480   0.760   5.792   3.674 -0.4502 -0.9550  0.1840
  997TIP3   OH224481   6.584   3.603  12.135  0.2534  0.5147 -0.8704
  997TIP3    H124482   6.531   3.528  12.161  1.5054 -0.2566 -0.5203
  997TIP3    H224483   6.621   3.636  12.217  1.0690  0.4751 -1.2232
  998TIP3   OH224484   0.415   5.791  16.834  0.1084  0.2472 -0.3320
  998TIP3    H124485   0.502   5.752  16.824 -0.4368 -1.3915  1.0435
  998TIP3    H224486   0.363   5.750  16.765 -0.3578 -1.1783  0.8459
  999TIP3   OH224487   3.452   3.700  13.233  0.3752 -0.3901  0.7617
  999TIP3    H124488   3.450   3.646  13.311  0.6876 -0.5202  0.6759
  999TIP3    H224489   3.434   3.789  13.265 -1.5038 -0.7412  0.7365
 1000TIP3   OH224490   4.359   3.418  11.843  1.1174  0.5842  0.2825
 1000TIP3    H124491   4.336   3.404  11.935 -0.5330  0.2317 -0.1760
 1000TIP3    H224492   4.347   3.333  11.801 -0.2430  1.2357 -0.6891
 1001TIP3   OH224493   2.791   0.425   0.846  0.2133 -0.4064  0.2769
 1001TIP3    H124494   2.697   0.431   0.864 -0.1145 -1.0711 -1.1448
 1001TIP3    H224495   2.804   0.336   0.812  1.0351  0.2598 -1.2470
 1002TIP3   OH224496   2.552   6.123  17.041  0.5070  0.2301 -0.5518
 1002TIP3    H124497   2.519   6.035  17.023  1.3595 -0.3766  0.7391
 1002TIP3    H224498   2.592   6.152  16.959 -1.5217  0.2232 -1.5755
 1003TIP3   OH224499   5.195   3.821  13.360  0.4470  0.3509 -0.0457
 1003TIP3    H124500   5.116   3.831  13.412  0.8207  0.6190  0.4789
 1003TIP3    H224501   5.250   3.762  13.411  1.0178  1.0099  0.1062
 1004TIP3   OH224502   2.238   4.993   4.636 -0.0745 -0.4845  0.2558
 1004TIP3    H124503   2.179   5.048   4.584  0.2313  1.0502  1.4648
 1004TIP3    H224504   2.204   4.999   4.725  1.2404 -0.4986  0.7730
 1005TIP3   OH224505   5.939   6.396  15.859 -0.0326  0.0262  0.5999
 1005TIP3    H124506   5.983   6.480  15.875 -0.9836  0.7615 -0.5747
 1005TIP3    H224507   5.872   6.391  15.926 -2.1618  1.7829 -1.3245
 1006TIP3   OH224508   2.940   6.402   1.849 -0.3551 -0.0912 -0.0133
 1006TIP3    H124509   2.961   6.309   1.851  1.3487  0.2797  0.2261
 1006TIP3    H224510   2.972   6.433   1.764 -0.2289  0.4218  0.2164
 1007TIP3   OH224511   5.067   5.835  13.678  0.3356  0.4465 -0.3749
 1007TIP3    H124512   5.035   5.771  13.615 -0.3205 -1.2503  1.6436
 1007TIP3    H224513   4.988   5.867  13.722  0.9448  0.1283  0.9681
 1008TIP3   OH224514   2.837   1.253  12.110  0.0035 -0.3716  0.1465
 1008TIP3    H124515   2.741   1.257  12.109 -0.0359 -1.2782  0.3511
 1008TIP3    H224516   2.858   1.169  12.069  0.6570 -0.9848  1.7087
 1009TIP3   OH224517   0.288   4.405  11.254  0.1940  0.1186  0.1779
 1009TIP3    H124518   0.239   4.353  11.318  0.2498  1.7969  1.6111
 1009TIP3    H224519   0.352   4.453  11.306 -1.3712  3.3834 -0.7921
 1010TIP3   OH224520   0.480   0.445   2.216  0.4642  0.1746 -0.5035
 1010TIP3    H124521   0.416   0.373   2.213  0.1527  0.5284 -2.8487
 1010TIP3    H224522   0.427   0.524   2.204  1.0719  0.6582 -0.0397
 1011TIP3   OH224523   6.318   1.955   1.253  0.4768  0.1190 -0.0792
 1011TIP3    H124524   6.238   2.004   1.272  0.5161  0.1021  0.1405
 1011TIP3    H224525   6.328   1.959   1.158 -0.9336 -1.6576 -0.3327
 1012TIP3   OH224526   2.423   6.484   1.494  0.0790 -0.3163 -0.5189
 1012TIP3    H124527   2.493   6.485   1.428 -0.1587 -2.6252 -0.8477
 1012TIP3    H224528   2.342   6.480   1.443 -0.1764 -0.3180 -0.1102
 1013TIP3   OH224529   2.878   2.851   5.168 -0.4458 -0.0802  0.1175
 1013TIP3    H124530   2.798   2.800   5.158  0.2071 -0.9744 -0.6529
 1013TIP3    H224531   2.923   2.811   5.242 -0.7470  0.4697  0.5987
 1014TIP3   OH224532   0.555   1.719   3.966 -0.1224 -0.6220  0.1658
 1014TIP3    H124533   0.476   1.747   3.920 -0.7231  0.1776  1.6794
 1014TIP3    H224534   0.537   1.735   4.058  2.3537  0.9955  0.4334
 1015TIP3   OH224535   2.130   6.197  11.081  0.2876 -0.0618  0.3847
 1015TIP3    H124536   2.122   6.280  11.128 -0.1949  0.7066 -1.0141
 1015TIP3    H224537   2.058   6.199  11.017  0.0934 -1.6908  0.5361
 1016TIP3   OH224538   4.098   6.442  10.625  0.1246  0.1065 -0.0580
 1016TIP3    H124539   4.130   6.464  10.538 -2.0300  0.8331 -0.7143
 1016TIP3    H224540   4.136   6.508  10.682 -1.5700  2.0264 -1.0884
 1017TIP3   OH224541   1.665   6.558   2.478 -0.0374 -0.6693  0.3278
 1017TIP3    H124542   1.721   6.504   2.534  2.1132 -0.5994 -1.6850
 1017TIP3    H224543   1.605   6.495   2.437 -0.1387 -1.0057  0.9808
 1018TIP3   OH224544   5.974   1.967   5.484 -0.3105 -0.7655 -0.1557
 1018TIP3    H124545   5.926   1.900   5.532 -1.8364  0.8044  0.5933
 1018TIP3    H224546   5.905   2.021   5.444  0.8605  0.8766 -0.0014
 1019TIP3   OH224547   2.640   1.885  12.331 -0.2139  0.4779  0.5974
 1019TIP3    H124548   2.550   1.907  12.310  0.0596 -0.1842 -1.3919
 1019TIP3    H224549   2.687   1.968  12.328 -0.9675  1.0182  2.9143
 1020TIP3   OH224550   5.245   0.741   0.689 -0.0766 -0.7538  0.2497
 1020TIP3    H124551   5.227   0.819   0.742  1.9007 -0.0537 -0.0493
 1020TIP3    H224552   5.167   0.730   0.634 -0.5269  0.8076  0.5629
 1021TIP3   OH224553   2.374   5.264   2.188  0.8987  0.2294 -0.1551
 1021TIP3    H124554   2.370   5.171   2.208 -0.5348  0.5176  0.9206
 1021TIP3    H224555   2.352   5.270   2.095 -2.4126 -0.2260  0.5442
 1022TIP3   OH224556   6.767   5.200  16.324 -0.1898  0.0028  0.1016
 1022TIP3    H124557   6.721   5.120  16.297 -0.1108 -0.0133  0.0130
 1022TIP3    H224558   6.847   5.168  16.366 -0.8982 -0.0055  1.4523
 1023TIP3   OH224559   5.018   4.673  10.645 -0.5587 -0.2286  0.0830
 1023TIP3    H124560   5.080   4.703  10.578 -1.2261  3.1048  0.8350
 1023TIP3    H224561   4.934   4.672  10.600 -0.6696 -0.1450  0.2892
 1024TIP3   OH224562   3.518   0.871   0.122  0.1028  0.1611 -0.0302
 1024TIP3    H124563   3.588   0.818   0.084 -0.8176  0.1212 -1.7550
 1024TIP3    H224564   3.559   0.917   0.195  0.8985 -2.9930  1.5945
 1025TIP3   OH224565   1.159   2.203   5.247 -0.4274  0.2312  0.3121
 1025TIP3    H124566   1.138   2.295   5.267 -0.1030  1.3542 -3.9971
 1025TIP3    H224567   1.108   2.184   5.168  0.7987 -2.7885  0.1965
 1026TIP3   OH224568   5.022   5.082  15.744 -0.0745  0.1256 -0.4073
 1026TIP3    H124569   4.935   5.097  15.706  0.2457 -0.3010 -1.3056
 1026TIP3    H224570   5.083   5.112  15.677  0.4982 -0.7972 -0.3040
 1027TIP3   OH224571   2.740   6.168   5.553  0.2689 -0.5695 -0.3039
 1027TIP3    H124572   2.645   6.158   5.561  0.1307  1.1872  0.6101
 1027TIP3    H224573   2.774   6.150   5.641  0.3297  2.9350  0.4880
 1028TIP3   OH224574   2.035   4.863  16.435 -0.5041  0.1629  0.6691
 1028TIP3    H124575   2.094   4.789  16.421  0.2641  0.6091  1.5201
 1028TIP3    H224576   2.023   4.866  16.530 -0.1278  1.4302  0.6815
 1029TIP3   OH224577   0.532   4.042   3.571 -0.6919  0.4060  0.2158
 1029TIP3    H124578   0.442   4.027   3.542 -0.2209 -4.3460  0.8259
 1029TIP3    H224579   0.586   3.987   3.513  2.0680  4.2673 -1.1194
 1030TIP3   OH224580   1.137   5.492  13.661 -0.1753  0.3585 -0.0629
 1030TIP3    H124581   1.231   5.479  13.655 -0.0203  1.4541  0.0160
 1030TIP3    H224582   1.101   5.403  13.663  0.9994 -0.1017  2.3889
 1031TIP3   OH224583   3.768   3.604  13.307  0.0313 -0.1747 -0.0937
 1031TIP3    H124584   3.762   3.519  13.351 -1.0848 -0.6304 -1.1087
 1031TIP3    H224585   3.677   3.632  13.297  0.3080  0.1736 -1.6484
 1032TIP3   OH224586   0.679   5.403  11.608 -0.4361 -0.1684  0.1639
 1032TIP3    H124587   0.602   5.357  11.643 -1.2451  0.6378 -0.5434
 1032TIP3    H224588   0.648   5.491  11.587  0.7697  0.2786  0.1943
 1033TIP3   OH224589   0.285   1.354  14.045  0.3140  0.0707 -0.5246
 1033TIP3    H124590   0.302   1.287  14.111 -0.7411 -0.9972 -1.3330
 1033TIP3    H224591   0.364   1.409  14.046  0.0821  0.3793  1.9779
 1034TIP3   OH224592   1.840   5.065   3.720  0.1459 -0.2256  0.1534
 1034TIP3    H124593   1.879   4.980   3.742  0.1682 -0.5060 -0.9616
 1034TIP3    H224594   1.846   5.071   3.625 -0.8635  0.5451  0.1297
 1035TIP3   OH224595   5.950   3.376   5.536  0.4860  0.0061 -0.2135
 1035TIP3    H124596   5.870   3.382   5.588  0.9250  1.1953  0.3273
 1035TIP3    H224597   5.943   3.291   5.492 -0.0293 -0.8890  1.5602
 1036TIP3   OH224598   0.340   1.089  14.179 -0.1470  0.1016 -0.0667
 1036TIP3    H124599   0.351   1.030  14.104  1.3523  0.2126  0.0549
 1036TIP3    H224600   0.281   1.041  14.238 -1.5683  0.1471 -1.4421
 1037TIP3   OH224601   6.669   2.366  14.235 -0.1464 -0.4955  0.1980
 1037TIP3    H124602   6.667   2.357  14.331 -0.2593 -0.7425  0.1727
 1037TIP3    H224603   6.741   2.426  14.218 -0.3237 -0.2061  0.4565
 1038TIP3   OH224604   3.747   3.990  13.512  0.3627  0.1561 -0.1352
 1038TIP3    H124605   3.679   4.040  13.466 -0.7194 -1.0090  0.1748
 1038TIP3    H224606   3.705   3.960  13.592  2.3168  2.3864  1.8221
 1039TIP3   OH224607   6.576   4.470  11.672 -0.1216  0.3519 -1.0928
 1039TIP3    H124608   6.496   4.503  11.630  0.0972  1.5490 -0.5877
 1039TIP3    H224609   6.559   4.377  11.685 -1.0997  0.4223 -1.7654
 1040TIP3   OH224610   3.078   6.641  11.752 -0.4458 -0.4917 -0.7072
 1040TIP3    H124611   3.083   6.736  11.751  1.2662 -0.5268  1.7186
 1040TIP3    H224612   3.155   6.613  11.800 -3.8700 -2.8410  3.7410
 1041TIP3   OH224613   3.192   2.124   6.002 -0.0122 -0.7214  0.0592
 1041TIP3    H124614   3.109   2.148   5.961  0.5102  0.7790 -0.1361
 1041TIP3    H224615   3.258   2.150   5.939  0.6134 -2.2179  0.0737
 1042TIP3   OH224616   2.828   6.517  16.154 -0.1932 -0.0390  0.3758
 1042TIP3    H124617   2.910   6.555  16.187  0.1702 -1.2990  0.9642
 1042TIP3    H224618   2.855   6.466  16.077 -0.9782  2.5652 -1.6903
 1043TIP3   OH224619   1.618   4.161  13.770  0.2559 -0.8402  0.4025
 1043TIP3    H124620   1.704   4.202  13.781  0.9797 -2.0359 -0.6702
 1043TIP3    H224621   1.606   4.153  13.675 -2.4327  2.1328  0.4008
 1044TIP3   OH224622   6.079   0.834   3.576 -0.1609 -0.7137  0.0496
 1044TIP3    H124623   6.007   0.883   3.537  0.3269 -0.6001 -0.7336
 1044TIP3    H224624   6.087   0.755   3.522  0.8998 -0.2746 -0.4716
 1045TIP3   OH224625   2.366   5.220   5.059  0.0836 -0.2254 -0.1917
 1045TIP3    H124626   2.293   5.247   5.114  0.1300  0.6457 -0.5572
 1045TIP3    H224627   2.435   5.284   5.076 -0.1774  0.5366 -1.8511
 1046TIP3   OH224628   5.734   1.869  14.854  0.2086 -0.3637 -0.3832
 1046TIP3    H124629   5.712   1.858  14.762  0.3922  0.5849 -0.5402
 1046TIP3    H224630   5.688   1.796  14.898 -1.1309  0.0670 -1.0332
 1047TIP3   OH224631   6.019   4.850  14.762  0.1518  0.9474 -0.6179
 1047TIP3    H124632   6.081   4.853  14.689 -0.9678  0.1929 -1.6392
 1047TIP3    H224633   5.941   4.809  14.724  0.2757 -1.4368  1.5287
 1048TIP3   OH224634   1.098   3.336   6.162 -0.1467 -0.2234 -0.0282
 1048TIP3    H124635   1.074   3.244   6.177  1.1125 -0.1462  2.7178
 1048TIP3    H224636   1.069   3.381   6.241  1.2946  1.3650 -0.3847
 1049TIP3   OH224637   0.557   4.748   3.099 -0.4234  0.2447 -0.0372
 1049TIP3    H124638   0.584   4.664   3.061  0.4824  0.7210 -0.4562
 1049TIP3    H224639   0.627   4.809   3.075 -1.9107  1.5379 -1.2461
 1050TIP3   OH224640   3.862   3.816   3.742  0.3247  0.6008  0.2178
 1050TIP3    H124641   3.823   3.734   3.774  0.0524  0.0038 -1.6010
 1050TIP3    H224642   3.810   3.885   3.782 -0.0517 -0.1250  0.9998
 1051TIP3   OH224643   4.316   2.344   6.026  0.5313 -0.2724 -0.1328
 1051TIP3    H124644   4.371   2.266   6.038 -0.2668 -0.6031  1.4254
 1051TIP3    H224645   4.255   2.342   6.099 -0.2625  1.1945 -0.7412
 1052TIP3   OH224646   1.711   2.808  11.573 -0.0236  0.0561  0.2672
 1052TIP3    H124647   1.726   2.854  11.656  2.2084 -0.2322  0.0637
 1052TIP3    H224648   1.756   2.724  11.585  0.4168  0.0590 -1.2637
 1053TIP3   OH224649   3.420   5.647  10.920 -0.1419 -0.5366  0.1901
 1053TIP3    H124650   3.463   5.573  10.878 -1.4891 -1.3896  0.2882
 1053TIP3    H224651   3.384   5.612  11.002  0.8167  0.6670  1.1441
 1054TIP3   OH224652   1.238   5.307   5.346  0.0888 -0.3981 -0.1411
 1054TIP3    H124653   1.260   5.323   5.254 -0.5013  2.6400  0.1711
 1054TIP3    H224654   1.149   5.341   5.355 -0.4648 -2.1663  1.1839
 1055TIP3   OH224655   1.581   5.367   0.251  0.2913  0.2844 -0.1634
 1055TIP3    H124656   1.548   5.449   0.213  1.4701  1.3193  0.9865
 1055TIP3    H224657   1.673   5.363   0.223  0.4698 -0.2021  0.4862
 1056TIP3   OH224658   2.790   6.295  14.279  0.1687 -0.4141  0.4681
 1056TIP3    H124659   2.831   6.240  14.213  0.0514  0.2594 -0.1669
 1056TIP3    H224660   2.849   6.369  14.288  1.0167 -1.2698  2.2912
 1057TIP3   OH224661   3.298   3.494  12.509  0.4446  0.2418 -0.1284
 1057TIP3    H124662   3.383   3.448  12.513  1.4286  1.9479 -0.7829
 1057TIP3    H224663   3.236   3.427  12.479  1.2026 -1.4884  2.0898
 1058TIP3   OH224664   2.459   6.296  16.149  0.6365  0.3512 -0.0734
 1058TIP3    H124665   2.431   6.303  16.058 -0.3069  1.5874  0.2812
 1058TIP3    H224666   2.507   6.377  16.166 -0.7052  0.9571  1.0035
 1059TIP3   OH224667   1.500   5.335  16.635 -0.7201  0.8507  0.4777
 1059TIP3    H124668   1.458   5.314  16.552  1.7267  0.3438 -0.6948
 1059TIP3    H224669   1.469   5.268  16.695  0.0781 -0.7968 -0.9134
 1060TIP3   OH224670   5.215   5.057   4.114  0.7243 -0.1371  0.2863
 1060TIP3    H124671   5.131   5.057   4.160  0.8524  1.5484  0.5426
 1060TIP3    H224672   5.265   4.988   4.157 -0.6811 -1.4904 -0.1904
 1061TIP3   OH224673   1.838   1.436   3.910  0.3543 -0.1892 -0.3437
 1061TIP3    H124674   1.926   1.435   3.871 -0.5999  0.5313 -2.6430
 1061TIP3    H224675   1.822   1.529   3.929 -0.5966 -0.0696 -1.6420
 1062TIP3   OH224676   6.308   5.379  11.974 -0.7342 -0.2569  0.1370
 1062TIP3    H124677   6.393   5.334  11.981  0.2395  1.3666 -0.9786
 1062TIP3    H224678   6.289   5.406  12.064 -0.7338 -1.7853  0.6169
 1063TIP3   OH224679   3.945   2.078   1.464  0.2061  0.3229  0.2307
 1063TIP3    H124680   3.853   2.099   1.476  0.3420  0.5360  0.9278
 1063TIP3    H224681   3.961   2.095   1.371 -0.7953 -1.1180 -0.2102
 1064TIP3   OH224682   6.536   0.986  14.202 -0.1351  0.0645  0.2662
 1064TIP3    H124683   6.465   0.937  14.160  0.6765 -0.7708 -0.1366
 1064TIP3    H224684   6.614   0.963  14.153  0.2984  1.6335  0.1951
 1065TIP3   OH224685   4.446   4.560   5.484 -0.0703 -0.5429  0.6789
 1065TIP3    H124686   4.463   4.487   5.425  0.9395 -0.5071  0.9233
 1065TIP3    H224687   4.465   4.638   5.433  1.3022 -0.5275  1.2110
 1066TIP3   OH224688   0.822   5.043   1.735  0.0263  0.1664  0.1422
 1066TIP3    H124689   0.899   5.070   1.784  2.5571 -1.0166 -2.9584
 1066TIP3    H224690   0.794   5.122   1.689  0.5363  0.1904 -0.1382
 1067TIP3   OH224691   3.531   5.508   0.570 -0.4645  0.3850 -0.3708
 1067TIP3    H124692   3.582   5.459   0.506 -0.8837  0.4133 -0.7330
 1067TIP3    H224693   3.461   5.447   0.595  0.7425 -0.3108  1.4425
 1068TIP3   OH224694   1.678   1.858   4.418 -0.7432  0.4175  0.2415
 1068TIP3    H124695   1.601   1.822   4.374 -1.2994  1.9754 -0.0931
 1068TIP3    H224696   1.718   1.783   4.462 -3.0286 -0.2292  1.2918
 1069TIP3   OH224697   2.885   0.756  14.670 -0.6600 -0.3973 -0.0944
 1069TIP3    H124698   2.888   0.713  14.755  0.1060  0.3493  0.2659
 1069TIP3    H224699   2.856   0.846  14.689 -0.1256 -0.1197 -0.5694
 1070TIP3   OH224700   0.122   2.512  12.606 -0.2030  0.1309 -0.4585
 1070TIP3    H124701   0.185   2.562  12.658  0.3592 -0.1276 -0.8750
 1070TIP3    H224702   0.051   2.491  12.666 -1.0735  2.5370 -0.5930
 1071TIP3   OH224703   0.274   5.484  10.379  0.0310  0.1728 -0.0136
 1071TIP3    H124704   0.244   5.563  10.334 -0.3625 -0.2646 -0.5202
 1071TIP3    H224705   0.225   5.412  10.337  1.7128 -0.5372 -0.8036
 1072TIP3   OH224706   3.238   3.941   6.032  0.5284 -0.0096  0.1948
 1072TIP3    H124707   3.277   3.984   6.108 -0.9732  1.3100  0.2283
 1072TIP3    H224708   3.165   3.891   6.066  0.0117  0.3704 -0.3457
 1073TIP3   OH224709   6.083   2.319  11.246  0.1081 -0.6816 -0.4880
 1073TIP3    H124710   6.056   2.393  11.192 -0.6736 -1.4504 -1.1581
 1073TIP3    H224711   6.073   2.243  11.189  1.2884 -1.2629  0.0679
 1074TIP3   OH224712   3.656   3.624  16.917  0.1502  0.2049  0.5658
 1074TIP3    H124713   3.580   3.681  16.901  1.2091  2.1460  2.2012
 1074TIP3    H224714   3.621   3.551  16.968 -1.5813 -1.6851 -3.0541
 1075TIP3   OH224715   1.114   3.195  15.775 -0.1314  0.0820 -0.0645
 1075TIP3    H124716   1.026   3.223  15.748 -0.2619  0.9232  1.1552
 1075TIP3    H224717   1.171   3.266  15.747 -0.1472  0.5414  1.0295
 1076TIP3   OH224718   3.262   3.882  12.671  0.0960 -0.3831 -0.1703
 1076TIP3    H124719   3.324   3.943  12.711 -0.1974 -1.8364  2.6135
 1076TIP3    H224720   3.184   3.934  12.653  0.5860  0.5046  0.2670
 1077TIP3   OH224721   5.398   0.958   4.913  0.1935  0.2542 -0.4498
 1077TIP3    H124722   5.373   0.951   4.821  0.8510 -0.1739 -0.5952
 1077TIP3    H224723   5.320   0.993   4.956 -0.7730 -1.3284 -0.8561
 1078TIP3   OH224724   2.300   3.193   3.089 -0.8479  0.2140 -0.3679
 1078TIP3    H124725   2.313   3.230   3.176  0.3562  0.1723 -0.5288
 1078TIP3    H224726   2.342   3.256   3.030 -0.6260 -0.3613 -0.8186
 1079TIP3   OH224727   2.150   1.432   2.523  0.0957  0.5112 -0.2539
 1079TIP3    H124728   2.142   1.463   2.433 -0.3014 -1.2575 -0.8345
 1079TIP3    H224729   2.062   1.441   2.560 -0.3145 -1.0973 -0.8150
 1080TIP3   OH224730   1.474   0.030  12.596  0.9292  0.4340  0.4662
 1080TIP3    H124731   1.564   0.030  12.629  1.0196  0.5396  0.2198
 1080TIP3    H224732   1.435  -0.049  12.633  1.8438 -0.9386 -1.4271
 1081TIP3   OH224733   1.654   0.359   1.519  0.8260  0.1593  0.0342
 1081TIP3    H124734   1.578   0.377   1.575 -0.6819  0.1738 -1.9576
 1081TIP3    H224735   1.703   0.441   1.518  1.2862 -0.0854  1.9566
 1082TIP3   OH224736   6.063   1.555   3.296  0.3054 -0.5157  0.3311
 1082TIP3    H124737   5.987   1.507   3.263  1.6645 -0.9972 -2.1649
 1082TIP3    H224738   6.056   1.547   3.391 -3.4684  0.5467  0.2315
 1083TIP3   OH224739   6.594   1.090   5.921 -0.3465  0.1785 -0.9533
 1083TIP3    H124740   6.538   1.013   5.921 -1.6091  1.0879  0.2084
 1083TIP3    H224741   6.667   1.068   5.978 -1.0552  0.0801 -0.0798
 1084TIP3   OH224742   0.637   5.210   2.754 -0.3213 -0.1509  0.6397
 1084TIP3    H124743   0.717   5.174   2.716  0.4027  0.1951  1.7850
 1084TIP3    H224744   0.580   5.227   2.680  0.6583 -0.4531 -0.1928
 1085TIP3   OH224745   4.719   5.107   1.997 -0.5371  0.2592 -0.1500
 1085TIP3    H124746   4.705   5.180   1.938  2.1409  0.3918 -0.6585
 1085TIP3    H224747   4.678   5.134   2.080 -2.9294  0.6986 -1.4403
 1086TIP3   OH224748   0.964   0.552  16.526 -0.1668 -0.2189  0.3685
 1086TIP3    H124749   0.926   0.628  16.482 -0.6407 -2.4805 -3.2556
 1086TIP3    H224750   1.058   0.558  16.509 -0.0693  0.0982  0.9949
 1087TIP3   OH224751   6.747   1.659   2.383  0.2043  0.2336  0.0013
 1087TIP3    H124752   6.696   1.636   2.461 -1.6508  0.5114 -1.0949
 1087TIP3    H224753   6.827   1.608   2.391  0.0325  0.2533  2.0807
 1088TIP3   OH224754   6.177   3.734   3.025 -0.1703  0.1210 -0.5372
 1088TIP3    H124755   6.128   3.814   3.041  0.8074  0.1224  2.9921
 1088TIP3    H224756   6.153   3.677   3.099  0.2569 -2.2748 -2.2062
 1089TIP3   OH224757   2.820   3.389   3.161  0.1954  0.4825  0.5069
 1089TIP3    H124758   2.825   3.480   3.132 -0.8716  0.1488 -0.7857
 1089TIP3    H224759   2.816   3.339   3.080  1.3560 -0.7637  1.2043
 1090TIP3   OH224760   2.090   5.899  12.383  0.0486  0.3829  0.9279
 1090TIP3    H124761   2.133   5.952  12.450 -0.7725  2.1245  0.1000
 1090TIP3    H224762   2.163   5.864  12.331  0.5720  2.5303  0.1279
 1091TIP3   OH224763   3.921   2.149  13.593  0.0494 -0.1503 -0.4751
 1091TIP3    H124764   3.861   2.188  13.656  0.7853 -2.1605  1.5258
 1091TIP3    H224765   3.866   2.129  13.517 -1.5252 -0.6453  0.7826
 1092TIP3   OH224766   3.967   6.226  16.551 -0.3898 -0.0272  0.1927
 1092TIP3    H124767   4.062   6.214  16.555 -0.3931 -0.5153 -1.0712
 1092TIP3    H224768   3.931   6.138  16.558 -0.7856  0.2199  1.3688
 1093TIP3   OH224769   2.868   4.101  14.094  0.3691 -0.1600 -0.0858
 1093TIP3    H124770   2.797   4.105  14.158  0.6735 -0.2245  0.2621
 1093TIP3    H224771   2.947   4.123  14.145  0.6258 -0.3050 -0.4180
 1094TIP3   OH224772   1.300   3.379   1.747 -0.2591  0.2467 -0.0611
 1094TIP3    H124773   1.283   3.286   1.763 -0.2069  0.0408 -1.1974
 1094TIP3    H224774   1.395   3.387   1.748 -0.2573  0.2424 -0.2253
 1095TIP3   OH224775   4.846   1.759   2.475  0.3929  0.3564 -0.0847
 1095TIP3    H124776   4.930   1.733   2.514 -0.9725 -0.9850  2.0670
 1095TIP3    H224777   4.817   1.833   2.528 -0.3182  0.0884 -0.0966
 1096TIP3   OH224778   3.167   1.399  12.214 -0.0161  0.1728 -0.0524
 1096TIP3    H124779   3.187   1.490  12.190 -2.1124  1.1376  1.7675
 1096TIP3    H224780   3.075   1.388  12.191 -0.3201 -0.8645  1.6191
 1097TIP3   OH224781   4.564   5.924   5.578 -0.2195 -0.3405 -0.4972
 1097TIP3    H124782   4.570   6.018   5.558  2.8481 -0.5529 -0.8491
 1097TIP3    H224783   4.559   5.921   5.674  0.3161  0.1909 -0.4426
 1098TIP3   OH224784   4.190   0.055   2.860 -0.2764 -0.6491 -0.3325
 1098TIP3    H124785   4.183   0.100   2.945 -1.6592  0.2582 -0.8985
 1098TIP3    H224786   4.105   0.012   2.849  0.6134 -2.4414 -0.3556
 1099TIP3   OH224787   0.493   5.397  10.738 -0.4195  0.2321  0.4159
 1099TIP3    H124788   0.505   5.327  10.802 -2.5929 -1.0144 -0.5310
 1099TIP3    H224789   0.561   5.382  10.673  1.0280  0.7976  1.7444
 1100TIP3   OH224790   3.317   1.273   1.966  0.3456  0.2646  0.7093
 1100TIP3    H124791   3.236   1.224   1.979  0.4517 -0.1803 -0.3027
 1100TIP3    H224792   3.292   1.347   1.911  0.6730 -0.0099  0.1878
 1101TIP3   OH224793   4.805   6.015  16.013 -0.0589  0.3344 -0.0406
 1101TIP3    H124794   4.753   6.019  15.933  0.3851  0.4094 -0.3297
 1101TIP3    H224795   4.823   6.106  16.036  0.2903  0.3003 -0.1731
 1102TIP3   OH224796   1.936   6.182   5.635  0.0289  0.3772  0.6708
 1102TIP3    H124797   1.957   6.204   5.544 -0.5606  0.4185  0.5424
 1102TIP3    H224798   1.851   6.137   5.630  0.9203 -1.4012  0.9875
 1103TIP3   OH224799   1.588   6.722  14.642 -0.0215  0.2571  0.0378
 1103TIP3    H124800   1.593   6.647  14.583  0.2704  0.5778 -0.3507
 1103TIP3    H224801   1.654   6.704  14.709 -0.8940 -0.4870  0.7186
 1104TIP3   OH224802   0.062   4.995  12.906  0.1280  0.2959  0.5164
 1104TIP3    H124803   0.028   4.977  12.994  1.0531  1.9537  1.2343
 1104TIP3    H224804  -0.002   5.056  12.868  0.2234  0.3214  0.3980
 1105TIP3   OH224805   5.217   2.183  16.327 -0.1215  0.0134 -0.2172
 1105TIP3    H124806   5.160   2.259  16.319  0.6310  0.6361  0.1904
 1105TIP3    H224807   5.244   2.163  16.238  0.8703  1.1668 -0.1869
 1106TIP3   OH224808   2.725   1.869   0.622 -0.4538 -0.4311 -0.2622
 1106TIP3    H124809   2.701   1.777   0.612 -1.4159 -0.4908  2.2133
 1106TIP3    H224810   2.643   1.917   0.608 -0.6707 -0.1908  1.6912
 1107TIP3   OH224811   5.554   0.105   4.795  0.2620  0.2978  0.3533
 1107TIP3    H124812   5.639   0.146   4.779  0.0821  0.7763  0.6222
 1107TIP3    H224813   5.497   0.142   4.727  0.0228  0.7232  0.7867
 1108TIP3   OH224814   1.435   2.933   5.542  0.5823 -0.2092  0.2405
 1108TIP3    H124815   1.477   2.881   5.611  0.6682 -0.5098 -0.0378
 1108TIP3    H224816   1.451   3.024   5.568 -1.5559 -0.2989  1.9604
 1109TIP3   OH224817   5.842   5.155   1.192  0.9265 -0.4633 -0.5271
 1109TIP3    H124818   5.857   5.209   1.115  0.8706 -0.5459 -0.5960
 1109TIP3    H224819   5.824   5.067   1.157 -0.7324 -0.1446 -0.4901
 1110TIP3   OH224820   5.649   4.491   4.090 -0.0945 -0.7942  0.4543
 1110TIP3    H124821   5.571   4.524   4.047 -0.8788 -2.3810  0.6141
 1110TIP3    H224822   5.646   4.528   4.178 -0.7710 -0.9967  0.5173
 1111TIP3   OH224823   2.218   4.894  14.230 -0.4088  0.2448 -0.1762
 1111TIP3    H124824   2.156   4.926  14.296 -0.0196  0.8571 -0.1050
 1111TIP3    H224825   2.214   4.960  14.160 -2.1352 -1.2818 -1.5797
 1112TIP3   OH224826   2.966   6.278  17.240  0.0961 -0.1041  0.5111
 1112TIP3    H124827   2.997   6.188  17.255 -1.2265 -0.4112  1.5546
 1112TIP3    H224828   3.033   6.334  17.279  0.3889 -0.6754  0.8359
 1113TIP3   OH224829   2.471   6.602   0.332  0.4170 -0.8220  0.1565
 1113TIP3    H124830   2.491   6.673   0.393  0.5647  0.5224 -1.4254
 1113TIP3    H224831   2.508   6.524   0.373 -0.4620 -0.1387  2.3096
 1114TIP3   OH224832   0.942   0.543   1.621 -0.5442 -0.0225 -0.2460
 1114TIP3    H124833   0.967   0.631   1.594  0.6312 -0.5262 -0.7907
 1114TIP3    H224834   0.846   0.543   1.614 -0.6254  1.4512  0.5091
 1115TIP3   OH224835   2.070   6.199  15.449 -0.4360 -0.0255  0.4029
 1115TIP3    H124836   1.979   6.169  15.457 -0.7410  0.1621 -2.0047
 1115TIP3    H224837   2.084   6.253  15.527 -2.5314  0.2899  0.5986
 1116TIP3   OH224838   4.329   5.486   3.714  0.3203  0.0577 -0.2208
 1116TIP3    H124839   4.283   5.424   3.771 -0.3071  2.0173  1.4707
 1116TIP3    H224840   4.422   5.466   3.726  0.1349 -0.2861  0.6357
 1117TIP3   OH224841   1.942   0.695  16.114 -0.7391 -0.7683  0.0370
 1117TIP3    H124842   1.974   0.742  16.037 -1.6142 -0.6656 -0.2702
 1117TIP3    H224843   1.895   0.762  16.165  0.1841 -0.7392  0.8728
 1118TIP3   OH224844   6.463   5.977  13.790  0.3200 -0.6295 -0.3947
 1118TIP3    H124845   6.451   6.019  13.705 -1.3567 -0.4927 -0.1057
 1118TIP3    H224846   6.407   6.026  13.849 -0.0142 -1.9385  0.3966
 1119TIP3   OH224847   5.567   2.342  12.238  0.4884 -0.9201  0.2043
 1119TIP3    H124848   5.605   2.394  12.167 -0.6529 -1.4754 -0.8269
 1119TIP3    H224849   5.565   2.401  12.313  0.5922  0.0528 -0.5541
 1120TIP3   OH224850   4.768   3.878   5.381  0.0649 -0.2801 -0.1710
 1120TIP3    H124851   4.770   3.887   5.476  0.1624 -0.5653 -0.1476
 1120TIP3    H224852   4.842   3.820   5.361  1.8775  2.0904 -0.6529
 1121TIP3   OH224853   2.790   3.251   1.765  0.1577  0.2538  0.0824
 1121TIP3    H124854   2.767   3.200   1.687  0.3791 -0.2600  0.3455
 1121TIP3    H224855   2.710   3.250   1.818 -0.3769  1.6475 -0.6897
 1122TIP3   OH224856   4.445   5.596  11.481 -0.4495 -0.1176 -0.2160
 1122TIP3    H124857   4.353   5.624  11.483 -1.0298 -2.0231  0.5579
 1122TIP3    H224858   4.448   5.528  11.414  0.2141 -0.6660  0.3583
 1123TIP3   OH224859   6.343   5.585   3.784  0.4985  0.2396  0.0897
 1123TIP3    H124860   6.321   5.641   3.858 -0.8431 -1.6354  1.1548
 1123TIP3    H224861   6.433   5.557   3.801  0.2614 -0.0234  0.9250
 1124TIP3   OH224862   0.399   4.491  12.769  0.3597  0.0119 -0.2557
 1124TIP3    H124863   0.376   4.418  12.826  0.2683  0.7987  0.7310
 1124TIP3    H224864   0.475   4.461  12.719  1.3332 -0.1736  1.3072
 1125TIP3   OH224865   0.068   0.109   0.730  0.3509 -0.4616 -0.2431
 1125TIP3    H124866   0.156   0.128   0.762  0.7479  0.2475 -1.7041
 1125TIP3    H224867   0.031   0.194   0.709 -0.3729 -0.8171 -0.4167
 1126TIP3   OH224868   5.269   5.645   4.204  0.1286 -0.4284 -0.2764
 1126TIP3    H124869   5.332   5.712   4.178  0.3709 -0.1535  0.9775
 1126TIP3    H224870   5.191   5.662   4.150  0.8712 -0.3458 -1.3369
 1127TIP3   OH224871   3.453   2.019  17.007 -0.1916 -0.2821 -0.2406
 1127TIP3    H124872   3.515   2.083  16.973  1.6447 -1.9696 -0.1475
 1127TIP3    H224873   3.408   1.985  16.929 -1.9957  1.8890 -0.1985
 1128TIP3   OH224874   2.261   0.903   0.956 -1.0093 -0.3557 -0.4539
 1128TIP3    H124875   2.262   0.886   0.862 -1.0766  0.5346 -0.6186
 1128TIP3    H224876   2.291   0.821   0.995 -2.0532 -1.0893 -1.1880
 1129TIP3   OH224877   1.848   2.587  13.718  0.2632  0.1023  0.0884
 1129TIP3    H124878   1.789   2.532  13.769 -2.2530 -0.1167 -2.9289
 1129TIP3    H224879   1.829   2.676  13.748 -1.5802  0.0234 -0.7851
 1130TIP3   OH224880   4.350   3.671  13.107 -0.3052  0.1816  0.2358
 1130TIP3    H124881   4.398   3.742  13.150  2.8342 -1.6014 -0.1412
 1130TIP3    H224882   4.353   3.599  13.170 -1.4640 -0.3393 -0.2956
 1131TIP3   OH224883   6.085   5.075   4.733  0.1406  0.4067  0.6858
 1131TIP3    H124884   6.152   5.005   4.729 -0.2827  0.0189  0.2865
 1131TIP3    H224885   6.122   5.139   4.793  1.0968  0.4171  0.1154
 1132TIP3   OH224886   2.551   2.239   0.730  0.4170  0.4288  0.0258
 1132TIP3    H124887   2.545   2.197   0.816  1.4750 -0.7609 -0.4617
 1132TIP3    H224888   2.645   2.247   0.715  0.2407 -0.1534 -1.4005
 1133TIP3   OH224889   0.597   5.450   4.215 -0.2893 -0.1095 -0.2852
 1133TIP3    H124890   0.533   5.427   4.282  2.0914  1.9565  2.8641
 1133TIP3    H224891   0.546   5.489   4.145 -2.4012  3.0605  2.8739
 1134TIP3   OH224892   4.867   1.539   0.025  0.5205  0.5708  0.3290
 1134TIP3    H124893   4.863   1.450   0.061 -1.1683 -0.0615 -1.3369
 1134TIP3    H224894   4.805   1.589   0.078  3.0189  1.3323  2.6611
 1135TIP3   OH224895   1.623   2.201  14.838 -0.2582  0.1258 -0.0064
 1135TIP3    H124896   1.605   2.293  14.816  0.4598  0.1531 -0.4618
 1135TIP3    H224897   1.696   2.176  14.782 -0.5871 -0.7926 -0.0311
 1136TIP3   OH224898   0.380   4.904   1.557  0.7656  0.0894 -0.4382
 1136TIP3    H124899   0.438   4.978   1.543  0.5292 -0.0131 -2.0218
 1136TIP3    H224900   0.376   4.860   1.472  0.7544 -1.6284  0.4273
 1137TIP3   OH224901   4.334   6.431  10.445  0.1351 -0.4189  0.0270
 1137TIP3    H124902   4.373   6.398  10.526  0.1642 -0.4998 -0.0199
 1137TIP3    H224903   4.400   6.413  10.378  0.7261  0.9774  0.2246
 1138TIP3   OH224904   4.059   3.928  16.007 -0.1469 -0.0229  0.0011
 1138TIP3    H124905   3.978   3.895  16.045 -1.0429  0.0192 -1.8438
 1138TIP3    H224906   4.107   3.964  16.082 -0.5716 -2.5462  1.5664
 1139TIP3   OH224907   1.050   4.388   4.138 -0.6239  0.1952 -0.0618
 1139TIP3    H124908   1.123   4.449   4.149 -0.6188  0.2335 -0.3160
 1139TIP3    H224909   1.022   4.369   4.227 -0.9516  0.9661  0.0096
 1140TIP3   OH224910   6.814   6.733   2.962 -0.3335 -0.4371  0.7214
 1140TIP3    H124911   6.720   6.741   2.978 -0.4747 -4.6933  2.7742
 1140TIP3    H224912   6.855   6.757   3.045  0.1626 -2.1241  0.9734
 1141TIP3   OH224913   3.843   3.261  15.554  0.3061  0.4801 -0.2127
 1141TIP3    H124914   3.749   3.254  15.572  0.2120  0.1243 -0.8276
 1141TIP3    H224915   3.878   3.175  15.578  0.2583  0.1662 -1.2314
 1142TIP3   OH224916   6.132   4.424  13.804 -0.0855  0.0620  0.6386
 1142TIP3    H124917   6.142   4.396  13.713  0.2965  0.5281  0.5354
 1142TIP3    H224918   6.214   4.469  13.824 -0.8130  1.4046  0.6922
 1143TIP3   OH224919   6.044   2.293  16.626  0.0976  0.5497  0.0503
 1143TIP3    H124920   6.009   2.328  16.708 -0.9833  1.0636 -0.6238
 1143TIP3    H224921   6.044   2.367  16.566 -2.9349 -0.7221 -1.6252
 1144TIP3   OH224922   6.697   1.480   3.617  0.2038  1.0090 -0.4620
 1144TIP3    H124923   6.607   1.450   3.609 -0.3013  2.2155  0.6093
 1144TIP3    H224924   6.702   1.556   3.558  0.4547  1.1000 -0.3254
 1145TIP3   OH224925   4.811   0.091   0.155 -0.4012 -0.9628  0.0373
 1145TIP3    H124926   4.872   0.078   0.082  0.9571 -0.7088  1.1070
 1145TIP3    H224927   4.760   0.010   0.158 -0.6169 -0.8845 -1.3302
 1146TIP3   OH224928   6.375   5.692  12.606 -0.1091  0.1518  0.0808
 1146TIP3    H124929   6.329   5.703  12.523 -2.3211 -0.2256  1.2270
 1146TIP3    H224930   6.363   5.775  12.652  0.9430  0.2942  0.1048
 1147TIP3   OH224931   5.635   6.639   1.837  0.3032 -1.3199 -0.1718
 1147TIP3    H124932   5.583   6.583   1.894 -1.8604  0.1466 -0.6504
 1147TIP3    H224933   5.589   6.638   1.753  1.2789 -0.3350 -0.7390
 1148TIP3   OH224934   2.588   2.627  15.955 -0.0570 -0.4421  0.3717
 1148TIP3    H124935   2.611   2.546  16.000 -1.0697  0.8382  3.3838
 1148TIP3    H224936   2.669   2.678  15.954 -0.0147 -0.5045  0.6852
 1149TIP3   OH224937   4.002   1.150  17.065  0.4450  0.2808 -0.1370
 1149TIP3    H124938   3.909   1.173  17.071  0.4341  0.1878  0.0516
 1149TIP3    H224939   4.045   1.207  17.129  0.3570 -0.5447  0.6644
 1150TIP3   OH224940   2.848   1.318  16.078 -0.3819 -0.3368 -0.7325
 1150TIP3    H124941   2.847   1.379  16.003  0.1721 -0.9798 -1.2701
 1150TIP3    H224942   2.905   1.361  16.142 -1.5494  0.6249 -0.3239
 1151TIP3   OH224943   4.750   1.237   3.337  0.3628  0.0425  0.0518
 1151TIP3    H124944   4.837   1.276   3.326 -0.5031  2.0555  0.0141
 1151TIP3    H224945   4.741   1.178   3.262  0.9448  1.3012 -1.0306
 1152TIP3   OH224946   5.955   1.438   5.057  0.0788  0.0815 -0.3157
 1152TIP3    H124947   5.900   1.410   5.130  1.5645  1.4108  1.3638
 1152TIP3    H224948   5.927   1.528   5.040  0.1428 -0.0254 -0.9845
 1153TIP3   OH224949   0.529   1.464   5.154 -0.1530 -0.1640  0.0619
 1153TIP3    H124950   0.443   1.445   5.192  0.0232 -0.5703  0.2593
 1153TIP3    H224951   0.579   1.383   5.165  1.0412  0.8055  2.0875
 1154TIP3   OH224952   1.266   4.798  12.836 -0.2889 -0.1240 -0.1089
 1154TIP3    H124953   1.339   4.735  12.837 -0.3171 -0.1660 -0.6232
 1154TIP3    H224954   1.260   4.827  12.745  0.4034  1.4179  0.3147
 1155TIP3   OH224955   1.860   5.974  13.453 -0.7355  0.3468 -0.5479
 1155TIP3    H124956   1.765   5.981  13.462 -1.3678 -3.4779 -3.0342
 1155TIP3    H224957   1.879   6.013  13.368 -0.2097  0.3750 -0.4195
 1156TIP3   OH224958   4.171   0.544   1.109 -0.0676 -0.0351 -0.6521
 1156TIP3    H124959   4.090   0.575   1.150  0.5035 -1.4989  1.6857
 1156TIP3    H224960   4.142   0.484   1.040 -0.9710 -1.6423  1.1030
 1157TIP3   OH224961   0.227   2.305  15.823 -0.2376  0.6720 -0.2987
 1157TIP3    H124962   0.289   2.247  15.868 -0.8519 -0.2923 -0.6903
 1157TIP3    H224963   0.275   2.387  15.813 -0.6326  1.4750  3.6072
 1158TIP3   OH224964   2.607   0.392  16.248  0.0555  0.5979  0.4607
 1158TIP3    H124965   2.553   0.362  16.174 -0.5140 -0.2673  1.2200
 1158TIP3    H224966   2.606   0.487  16.240 -1.1732  0.5732  0.1652
 1159TIP3   OH224967   6.052   3.949  15.373 -0.4138  0.1449  0.0793
 1159TIP3    H124968   6.131   3.900  15.350 -0.6663 -0.8396  1.2583
 1159TIP3    H224969   5.982   3.883  15.376 -1.2980  1.0193 -1.0245
 1160TIP3   OH224970   4.383   2.786  12.839  0.3626 -0.1818 -0.1326
 1160TIP3    H124971   4.419   2.699  12.855 -0.0605 -0.2397  0.5336
 1160TIP3    H224972   4.459   2.842  12.825  0.6979 -0.3576  0.9766
 1161TIP3   OH224973   1.049   0.188   4.777  0.4680  0.1792 -0.4746
 1161TIP3    H124974   0.994   0.110   4.787  1.0654 -0.2398 -0.4684
 1161TIP3    H224975   0.986   0.260   4.767 -0.0907 -0.4718 -1.8708
 1162TIP3   OH224976   3.220   6.264   4.230  0.2955  0.2539 -0.3920
 1162TIP3    H124977   3.137   6.301   4.261  0.1828 -0.4258  0.1426
 1162TIP3    H224978   3.209   6.169   4.240 -0.5304 -0.1469 -4.5034
 1163TIP3   OH224979   3.797   3.959  12.138 -0.1273  0.3573 -0.2757
 1163TIP3    H124980   3.799   4.039  12.085  2.3223  0.9432  0.6473
 1163TIP3    H224981   3.768   3.989  12.225  1.1597  0.3229  0.1734
 1164TIP3   OH224982   1.246   4.102   5.334 -0.4490  0.1786 -0.0604
 1164TIP3    H124983   1.280   4.090   5.246 -0.1890  1.5292 -0.1473
 1164TIP3    H224984   1.264   4.193   5.356 -0.7804 -0.0541  1.2769
 1165TIP3   OH224985   2.936   0.484  11.596 -0.1706 -0.2899 -0.4029
 1165TIP3    H124986   3.016   0.486  11.543 -0.9403  1.1665 -1.5241
 1165TIP3    H224987   2.968   0.485  11.686  1.1581 -2.9379 -0.7724
 1166TIP3   OH224988   1.687   6.632  14.899 -0.8917 -0.1441 -0.2116
 1166TIP3    H124989   1.606   6.613  14.945 -2.0858 -3.1598 -3.3379
 1166TIP3    H224990   1.754   6.586  14.949 -1.4529  0.3982  1.0560
 1167TIP3   OH224991   2.196   2.072   2.208  0.1597  0.7817 -0.2807
 1167TIP3    H124992   2.263   2.125   2.251  1.9501 -1.1125 -0.6241
 1167TIP3    H224993   2.188   2.110   2.120 -0.5491  2.1296  0.3537
 1168TIP3   OH224994   2.474   0.682  11.933  0.2295  0.2167 -0.0885
 1168TIP3    H124995   2.471   0.669  12.028  1.5643 -0.3140 -0.1166
 1168TIP3    H224996   2.468   0.777  11.922  3.1408  0.5355  0.6879
 1169TIP3   OH224997   5.943   0.052  14.601  0.4913  0.0769  0.2575
 1169TIP3    H124998   5.874   0.007  14.552  1.4367 -1.5106  0.3576
 1169TIP3    H224999   5.997  -0.018  14.637  0.3074  1.2275  2.8886
 1170TIP3   OH225000   1.987   2.492  15.884  0.8759  0.2587 -0.0837
 1170TIP3    H125001   2.043   2.483  15.806 -0.6717  0.0037 -1.1930
 1170TIP3    H225002   1.922   2.558  15.859  0.0961 -0.1552  0.8296
 1171TIP3   OH225003   2.137   3.328  12.342  0.0031  0.0508  0.3612
 1171TIP3    H125004   2.050   3.322  12.302  0.1968  2.0187 -0.4605
 1171TIP3    H225005   2.134   3.268  12.416 -1.8983 -0.2764  0.0559
 1172TIP3   OH225006   1.598   1.519   3.314 -0.1986 -0.3379 -0.0319
 1172TIP3    H125007   1.669   1.550   3.258  0.8632 -0.3004  1.3323
 1172TIP3    H225008   1.626   1.539   3.403 -1.7693 -0.6197  0.5477
 1173TIP3   OH225009   6.380   0.751   0.918 -0.0809 -0.7963 -0.2139
 1173TIP3    H125010   6.423   0.824   0.961  1.0365 -1.3464 -0.3579
 1173TIP3    H225011   6.416   0.673   0.961 -0.8703 -1.2718 -0.4013
 1174TIP3   OH225012   4.892   1.461  13.462 -0.5318  0.0737 -0.1482
 1174TIP3    H125013   4.907   1.370  13.439  1.6892  0.2717  0.4626
 1174TIP3    H225014   4.894   1.463  13.557  0.6728  0.9482 -0.1807
 1175TIP3   OH225015   6.060   2.736  16.338 -0.3405 -0.5568  0.0130
 1175TIP3    H125016   6.017   2.700  16.260 -0.7584  0.8933 -0.4432
 1175TIP3    H225017   6.148   2.698  16.337 -0.4177 -0.7206 -1.0490
 1176TIP3   OH225018   2.847   1.292   0.812 -0.0173  0.2643 -0.1157
 1176TIP3    H125019   2.763   1.288   0.765 -0.0188 -0.3990 -0.0580
 1176TIP3    H225020   2.824   1.282   0.904  0.0763  0.6502 -0.0471
 1177TIP3   OH225021   2.155   3.433  12.063  0.0897 -0.2700 -0.6830
 1177TIP3    H125022   2.217   3.420  11.991  0.0877 -0.9882 -0.5562
 1177TIP3    H225023   2.114   3.348  12.075 -2.0751  0.5690 -1.8176
 1178TIP3   OH225024   5.343   2.359  14.028  0.2257  0.4755 -0.3664
 1178TIP3    H125025   5.343   2.418  14.103  0.1818  0.6316 -0.4891
 1178TIP3    H225026   5.257   2.318  14.029 -0.0367  1.0162 -0.7554
 1179TIP3   OH225027   0.906   3.101   5.584 -0.4904  0.2764  0.5041
 1179TIP3    H125028   0.900   3.112   5.489  1.5492  2.0216  0.5488
 1179TIP3    H225029   0.987   3.054   5.599 -0.4607  0.5953  1.4176
 1180TIP3   OH225030   5.383   5.319   0.010 -0.3089 -0.6748  0.3690
 1180TIP3    H125031   5.325   5.250  -0.021 -0.1881 -0.8410  0.5090
 1180TIP3    H225032   5.356   5.397  -0.038 -0.5178 -0.7950  0.2898
 1181TIP3   OH225033   3.172   2.913   1.054 -0.3228 -0.0540  0.1831
 1181TIP3    H125034   3.092   2.959   1.078 -0.3395 -0.6311  1.2469
 1181TIP3    H225035   3.150   2.866   0.974 -0.6486  0.8532 -0.2646
 1182TIP3   OH225036   5.754   0.755  10.486 -0.1706  0.5524  0.2204
 1182TIP3    H125037   5.658   0.758  10.492 -0.1174  1.1461  0.9092
 1182TIP3    H225038   5.779   0.686  10.547 -0.2209 -0.4119 -0.8291
 1183TIP3   OH225039   5.380   1.818   0.959 -0.1215 -0.3540  0.2676
 1183TIP3    H125040   5.296   1.821   1.005 -0.5435 -1.8841 -0.3745
 1183TIP3    H225041   5.357   1.808   0.867  0.7582  0.7789 -0.0824
 1184TIP3   OH225042   2.286   1.570  11.871  0.4684  0.8700 -0.1469
 1184TIP3    H125043   2.284   1.532  11.783 -0.3696 -0.1688  0.2971
 1184TIP3    H225044   2.378   1.591  11.886  0.8256 -0.1888 -0.7632
 1185TIP3   OH225045   6.175   6.647  14.332 -0.0101 -0.0590 -0.7027
 1185TIP3    H125046   6.106   6.704  14.300  0.8722  0.5846 -1.4889
 1185TIP3    H225047   6.178   6.575  14.269  1.1657  0.7831 -1.6320
 1186TIP3   OH225048   5.544   5.323  13.762 -0.2195  0.3385  0.8940
 1186TIP3    H125049   5.580   5.361  13.842  2.1849 -1.4380  0.7093
 1186TIP3    H225050   5.530   5.398  13.704  2.2220  1.1927  1.3687
 1187TIP3   OH225051   6.254   5.014   6.458 -0.0466 -0.6225  0.1637
 1187TIP3    H125052   6.291   5.100   6.478  0.7770 -0.7921 -0.6251
 1187TIP3    H225053   6.222   4.982   6.543 -0.0050  0.2898  0.5305
 1188TIP3   OH225054   4.583   2.299  16.457 -0.2722 -0.3296  0.4754
 1188TIP3    H125055   4.516   2.230  16.456 -2.2227  1.5025 -0.1553
 1188TIP3    H225056   4.597   2.318  16.550 -0.0125 -1.3077  0.6362
 1189TIP3   OH225057   3.620   1.796  15.202 -0.2080  0.2294 -0.3368
 1189TIP3    H125058   3.611   1.744  15.123  0.1959  0.2514 -0.4000
 1189TIP3    H225059   3.715   1.804  15.215 -0.2165 -2.5650  1.9640
 1190TIP3   OH225060   6.059   2.078   5.711  0.3306  0.1771 -0.1192
 1190TIP3    H125061   6.035   2.045   5.625  1.7197  0.9457 -0.8223
 1190TIP3    H225062   6.047   2.173   5.705  1.8125  0.3845  0.0695
 1191TIP3   OH225063   3.979   4.354   4.987  0.7347  0.0839  0.0073
 1191TIP3    H125064   4.033   4.380   5.062  0.1632 -0.8770  0.7701
 1191TIP3    H225065   3.926   4.431   4.968  0.3474  0.0914  1.0726
 1192TIP3   OH225066   1.753   3.000   0.697 -0.5430 -0.4882 -0.2312
 1192TIP3    H125067   1.663   2.989   0.727 -1.2493  0.3884 -2.0150
 1192TIP3    H225068   1.780   3.086   0.730 -1.5173  0.7331 -2.5432
 1193TIP3   OH225069   1.871   1.169  14.548 -0.1136 -0.5076 -0.1643
 1193TIP3    H125070   1.811   1.129  14.611 -0.9690 -0.4529 -0.9361
 1193TIP3    H225071   1.958   1.158  14.587 -0.7742  0.9121  1.7430
 1194TIP3   OH225072   0.692   0.808  11.344 -0.1816  0.4802 -0.1433
 1194TIP3    H125073   0.727   0.888  11.306 -0.3956 -0.5480 -2.5839
 1194TIP3    H225074   0.744   0.794  11.423  2.0638  1.2657 -1.4388
 1195TIP3   OH225075   4.988   1.160  15.403 -0.4587 -0.3956 -0.1207
 1195TIP3    H125076   4.938   1.150  15.483 -1.1877 -0.3223 -0.5620
 1195TIP3    H225077   4.926   1.141  15.333  0.6606 -2.3143 -0.6144
 1196TIP3   OH225078   3.632   6.201  11.358  0.0857  0.2083  0.0434
 1196TIP3    H125079   3.582   6.127  11.323 -2.0106  1.0695  1.1100
 1196TIP3    H225080   3.711   6.205  11.304 -1.2752 -0.8387 -2.0895
 1197TIP3   OH225081   2.094   1.756   1.895 -0.6722  0.0230  0.1628
 1197TIP3    H125082   2.060   1.792   1.976  1.0027  0.9454  0.4777
 1197TIP3    H225083   2.116   1.665   1.916 -0.7400  0.1075  0.5906
 1198TIP3   OH225084   3.096   1.998   1.336  0.3909 -0.6076 -0.1365
 1198TIP3    H125085   3.147   1.925   1.370  1.0278 -0.0940  0.0261
 1198TIP3    H225086   3.099   2.064   1.406  2.6087  0.8832 -1.5491
 1199TIP3   OH225087   4.838   1.185   4.174 -0.4121 -0.4556  0.4055
 1199TIP3    H125088   4.885   1.247   4.119 -0.3397  0.4414  1.4436
 1199TIP3    H225089   4.746   1.196   4.150 -0.2478 -1.0681 -0.5083
 1200TIP3   OH225090   3.238   2.598  12.413  0.4768  0.0188  0.3859
 1200TIP3    H125091   3.277   2.547  12.484 -0.3346 -0.5761  0.3982
 1200TIP3    H225092   3.212   2.534  12.348 -1.4932  0.3056  0.8545
 1201TIP3   OH225093   6.014   3.085  11.291  0.2793  0.4499  0.1935
 1201TIP3    H125094   6.088   3.138  11.321  0.8827 -0.7321  0.8431
 1201TIP3    H225095   6.031   3.071  11.198  1.1008 -0.1350  0.4170
 1202TIP3   OH225096   5.235   2.294   0.737 -0.3940 -0.4039 -1.1572
 1202TIP3    H125097   5.206   2.363   0.679 -0.4680 -2.1152 -3.2281
 1202TIP3    H225098   5.299   2.244   0.685 -1.0369 -2.4338 -0.0733
 1203TIP3   OH225099   0.001   5.670   1.904 -0.0589 -0.4730 -0.6337
 1203TIP3    H125100  -0.002   5.763   1.879  2.7941 -0.5426 -1.2869
 1203TIP3    H225101   0.002   5.672   2.000 -1.8494  0.0637 -0.5872
 1204TIP3   OH225102   2.038   3.936  15.597 -0.2173  0.1000 -0.8208
 1204TIP3    H125103   2.012   4.005  15.658  0.7864 -0.3858  0.1654
 1204TIP3    H225104   1.970   3.870  15.606 -0.3298  0.2463 -0.5824
 1205TIP3   OH225105   3.321   5.161   2.974 -0.2265  0.3003  0.0201
 1205TIP3    H125106   3.399   5.214   2.956 -0.5556  1.5508  2.1530
 1205TIP3    H225107   3.273   5.160   2.891  1.9879 -0.4256 -1.3177
 1206TIP3   OH225108   2.833   2.204  13.737 -0.3491  0.1718 -0.4865
 1206TIP3    H125109   2.780   2.128  13.713 -1.7243  0.1360  2.4417
 1206TIP3    H225110   2.771   2.277  13.738  0.2226  0.6525  0.2609
 1207TIP3   OH225111   5.091   0.328  11.216  0.8233 -0.0008  0.9592
 1207TIP3    H125112   5.017   0.319  11.157  1.1015 -3.0072  0.9962
 1207TIP3    H225113   5.060   0.386  11.286 -1.6275 -1.5655  1.2021
 1208TIP3   OH225114   5.953   1.276  13.531 -0.1985  0.2035 -0.3782
 1208TIP3    H125115   6.028   1.236  13.488 -0.5746  0.2758 -1.1221
 1208TIP3    H225116   5.985   1.303  13.617  0.9500  1.3260 -1.1532
 1209TIP3   OH225117   1.037   0.257   0.328 -0.0079  0.0155 -0.0184
 1209TIP3    H125118   1.049   0.177   0.278  1.9673 -0.0366  0.4929
 1209TIP3    H225119   1.087   0.243   0.408 -0.9652  1.1350  0.8008
 1210TIP3   OH225120   3.118   4.582   5.438 -0.1659  0.3450 -0.5920
 1210TIP3    H125121   3.093   4.493   5.462 -0.8216  0.2388 -1.6502
 1210TIP3    H225122   3.181   4.571   5.367  1.2456  0.6763  0.5734
 1211TIP3   OH225123   3.079   5.675   5.342 -0.2042  0.4172 -0.3161
 1211TIP3    H125124   2.991   5.701   5.316  0.0022  0.4453 -0.9901
 1211TIP3    H225125   3.066   5.598   5.398 -0.5686 -0.5950 -1.7599
 1212TIP3   OH225126   0.462   3.681  16.622  0.5205 -0.0268 -0.4747
 1212TIP3    H125127   0.369   3.668  16.641  0.1642  1.0784 -1.4185
 1212TIP3    H225128   0.477   3.634  16.540  0.6739  0.2530 -0.6079
 1213TIP3   OH225129   5.646   1.557  16.929 -0.2916  0.4731 -0.0811
 1213TIP3    H125130   5.726   1.540  16.879 -0.1688  0.8167  0.0016
 1213TIP3    H225131   5.576   1.545  16.865 -0.2308 -0.8251  0.0766
 1214TIP3   OH225132   5.373   5.469  14.222 -0.2899 -0.9983 -0.0367
 1214TIP3    H125133   5.348   5.401  14.285 -2.1442  0.3447  0.7411
 1214TIP3    H225134   5.336   5.440  14.139 -0.3171 -1.3795  0.1095
 1215TIP3   OH225135   2.012   6.771  16.677  0.2495 -0.4688  0.2842
 1215TIP3    H125136   1.922   6.779  16.643  0.0353 -2.2993  0.3649
 1215TIP3    H225137   2.033   6.859  16.710 -2.5156 -0.6350  2.7109
 1216TIP3   OH225138   5.055   0.664   1.852  0.4896 -0.2313 -0.1473
 1216TIP3    H125139   4.961   0.651   1.867  0.1515  1.8911 -0.3370
 1216TIP3    H225140   5.097   0.606   1.916 -0.9503 -0.8107  0.2989
 1217TIP3   OH225141   5.242   2.863   6.606 -0.2540  0.0880 -0.7367
 1217TIP3    H125142   5.246   2.896   6.696 -1.9064 -1.1183 -0.2044
 1217TIP3    H225143   5.317   2.804   6.598  0.7192  1.2846 -0.6118
 1218TIP3   OH225144   3.916   6.479   2.858  0.1931  0.1793  0.0188
 1218TIP3    H125145   3.824   6.502   2.843 -0.0901 -1.0131 -0.1545
 1218TIP3    H225146   3.952   6.466   2.770  0.3115 -0.1674  0.1193
 1219TIP3   OH225147   6.261   3.015   0.189  0.0265  0.3883  0.1522
 1219TIP3    H125148   6.233   3.049   0.275  0.4073 -0.9493  0.8218
 1219TIP3    H225149   6.239   2.922   0.193  3.3122 -0.4462  0.1757
 1220TIP3   OH225150   3.060   6.671  16.221 -0.1064 -0.0632 -0.3056
 1220TIP3    H125151   3.128   6.658  16.155 -1.0133 -0.5202 -1.1690
 1220TIP3    H225152   3.024   6.758  16.201 -0.0532  0.0018 -0.1163
 1221TIP3   OH225153   0.395   5.704   1.135 -0.8035 -0.3053 -0.2241
 1221TIP3    H125154   0.327   5.742   1.191 -0.2064  0.8305 -0.2505
 1221TIP3    H225155   0.468   5.688   1.194 -0.3508  0.4295 -0.5824
 1222TIP3   OH225156   3.263   5.686  14.910  0.5016  0.0703  0.0034
 1222TIP3    H125157   3.340   5.640  14.876  1.1383  1.5183 -0.5491
 1222TIP3    H225158   3.298   5.743  14.979 -0.0934  0.5871 -0.1145
 1223TIP3   OH225159   3.796   1.970   0.077 -0.1138 -0.2272 -0.1390
 1223TIP3    H125160   3.776   1.917   0.154  0.4179  0.2146  0.3150
 1223TIP3    H225161   3.890   1.989   0.086 -0.0615 -0.1462 -0.8778
 1224TIP3   OH225162   4.304   0.477  12.722 -0.6677 -0.3393  0.4743
 1224TIP3    H125163   4.327   0.516  12.807 -1.4596  0.9508  0.1179
 1224TIP3    H225164   4.229   0.422  12.741  0.2830 -1.4991  0.9334
 1225TIP3   OH225165   3.544   6.479   5.984  0.0561 -0.4274  0.2244
 1225TIP3    H125166   3.554   6.432   6.067  0.5434 -0.3860  0.1865
 1225TIP3    H225167   3.488   6.421   5.931  2.0506 -1.7915 -0.4510
 1226TIP3   OH225168   1.399   5.622  14.364  0.2599 -0.5596  0.5843
 1226TIP3    H125169   1.374   5.711  14.337  1.3793 -1.2133 -2.8608
 1226TIP3    H225170   1.318   5.585  14.399 -0.5741  1.3618  0.7787
 1227TIP3   OH225171   6.374   0.079  12.282 -0.5183 -0.0237 -0.4354
 1227TIP3    H125172   6.402   0.108  12.196  1.3687 -1.3777 -0.3107
 1227TIP3    H225173   6.336  -0.007  12.268 -1.0371  0.1304 -0.0259
 1228TIP3   OH225174   2.230   2.880   2.642 -0.3938 -0.3001  0.2238
 1228TIP3    H125175   2.193   2.804   2.686 -1.2767 -0.0613 -0.0958
 1228TIP3    H225176   2.214   2.864   2.549  2.0145 -1.1048 -0.0865
 1229TIP3   OH225177   3.892   6.608   1.168  0.4252  0.0881 -0.1690
 1229TIP3    H125178   3.974   6.654   1.182 -0.2978  1.4309 -0.2341
 1229TIP3    H225179   3.911   6.517   1.190  2.0312  0.3094 -0.5911
 1230TIP3   OH225180   0.073   5.857  12.937 -0.5234  0.4730  0.1400
 1230TIP3    H125181   0.010   5.866  12.866 -1.7297 -1.7472  0.8644
 1230TIP3    H225182   0.158   5.860  12.895 -1.1705  1.1436 -1.1440
 1231TIP3   OH225183   1.477   3.955  11.936 -0.3463  0.1095  0.2177
 1231TIP3    H125184   1.527   3.911  12.005  0.2851  0.7012  0.1351
 1231TIP3    H225185   1.451   3.884  11.877 -0.8155 -0.3881  1.0132
 1232TIP3   OH225186   5.500   3.493   5.599 -0.2580 -0.5616  0.2343
 1232TIP3    H125187   5.596   3.502   5.605 -0.2031 -0.7726 -0.3363
 1232TIP3    H225188   5.469   3.583   5.589 -0.1528 -0.4504  0.8963
 1233TIP3   OH225189   2.336   0.642   5.825  0.2763 -0.0873  0.1185
 1233TIP3    H125190   2.429   0.643   5.803  0.0518  2.5052 -0.8079
 1233TIP3    H225191   2.325   0.714   5.888 -1.1508 -0.2050  0.0124
 1234TIP3   OH225192   0.789   3.633  15.836 -0.2048 -0.3212  0.5615
 1234TIP3    H125193   0.861   3.600  15.890 -0.0114 -2.8256 -1.1073
 1234TIP3    H225194   0.824   3.713  15.796  1.5274 -1.2547  0.1402
 1235TIP3   OH225195   2.214   5.220  16.644  0.0977  0.7171 -0.7263
 1235TIP3    H125196   2.269   5.297  16.630 -1.3168  1.8098 -0.5139
 1235TIP3    H225197   2.159   5.215  16.566  0.2596 -0.1446 -0.7824
 1236TIP3   OH225198   6.449   5.366  17.129  0.0754  0.0989 -0.5904
 1236TIP3    H125199   6.399   5.287  17.149  0.5040  0.1609  0.7713
 1236TIP3    H225200   6.416   5.394  17.044  0.3030 -1.8626 -1.3663
 1237TIP3   OH225201   0.578   1.040  16.008  0.3939 -0.5078 -0.2941
 1237TIP3    H125202   0.645   1.099  15.973  0.0905 -0.6224 -1.0595
 1237TIP3    H225203   0.505   1.046  15.947  0.2606 -1.4947 -0.2467
 1238TIP3   OH225204   5.023   3.898   6.012 -0.1816  0.4846  0.0741
 1238TIP3    H125205   5.003   3.979   5.965  0.9465  0.8613  0.2228
 1238TIP3    H225206   5.053   3.927   6.098 -0.1078 -0.1017  0.2497
 1239TIP3   OH225207   5.963   5.243  16.029  0.3970 -0.3071  0.3971
 1239TIP3    H125208   5.872   5.272  16.043  1.4905  3.0033  1.0417
 1239TIP3    H225209   5.971   5.164  16.083 -2.1318 -0.7571  0.2144
 1240TIP3   OH225210   3.974   3.090  12.772  0.3333 -0.2997 -0.1164
 1240TIP3    H125211   4.055   3.086  12.823  0.4544 -1.7003 -0.3930
 1240TIP3    H225212   3.963   3.182  12.751  3.1995 -0.3673 -2.2162
 1241TIP3   OH225213   1.743   4.330  15.809 -0.4166 -0.1023  0.1806
 1241TIP3    H125214   1.744   4.289  15.895  1.0445 -0.2753  0.0918
 1241TIP3    H225215   1.650   4.337  15.787 -0.7687 -1.0207  1.3106
 1242TIP3   OH225216   0.146   1.899  13.225  0.2651 -0.0145 -0.4903
 1242TIP3    H125217   0.084   1.901  13.152  0.5386 -0.4016 -0.7333
 1242TIP3    H225218   0.091   1.887  13.303  0.3005 -4.2775 -1.0312
 1243TIP3   OH225219   5.494   1.046   4.352 -0.0699 -0.2273 -0.4877
 1243TIP3    H125220   5.417   1.065   4.406 -0.5778  0.0372 -1.2979
 1243TIP3    H225221   5.458   1.025   4.266  0.6625 -1.8916 -0.4031
 1244TIP3   OH225222   5.874   3.928   2.010  0.7951 -0.0696  0.1554
 1244TIP3    H125223   5.894   3.905   1.919  0.4996 -1.7987  0.5040
 1244TIP3    H225224   5.818   3.856   2.040  0.8475  0.5243  1.6889
 1245TIP3   OH225225   1.255   4.579  15.923  0.1565 -0.2677 -0.5854
 1245TIP3    H125226   1.196   4.648  15.953  1.3864  0.5817 -0.1090
 1245TIP3    H225227   1.218   4.552  15.838 -2.3479 -1.4898  0.8287
 1246TIP3   OH225228   4.992   1.493   3.091  0.4149 -0.1680 -0.3892
 1246TIP3    H125229   4.971   1.417   3.144  1.6788  0.4748  1.0444
 1246TIP3    H225230   4.907   1.535   3.075  0.0053 -0.4626  0.9835
 1247TIP3   OH225231   5.850   3.559   3.139 -0.0068 -0.4153  0.0057
 1247TIP3    H125232   5.933   3.546   3.183 -0.8745  0.0317  1.8237
 1247TIP3    H225233   5.787   3.573   3.210 -1.6174 -0.6860 -1.3369
 1248TIP3   OH225234   1.225   1.831  10.520 -0.1735  0.2822  0.2998
 1248TIP3    H125235   1.300   1.777  10.545 -0.2599  0.1209  0.2059
 1248TIP3    H225236   1.185   1.784  10.447 -0.2931  0.4327  0.2694
 1249TIP3   OH225237   1.173   3.021   3.455 -0.0841 -0.5029  0.3306
 1249TIP3    H125238   1.189   3.098   3.401  0.1729  0.9890  2.5071
 1249TIP3    H225239   1.259   2.999   3.491 -0.1852 -1.7220 -0.1510
 1250TIP3   OH225240   2.415   3.767  13.060  0.2746 -0.8774 -0.0604
 1250TIP3    H125241   2.457   3.795  12.980  0.7371 -1.0611  0.1172
 1250TIP3    H225242   2.426   3.840  13.121 -2.6532  0.4888 -1.0687
 1251TIP3   OH225243   1.405   3.921  15.217 -0.4341 -0.7125  0.4044
 1251TIP3    H125244   1.394   3.938  15.311 -2.3408 -2.0123  0.4651
 1251TIP3    H225245   1.316   3.924  15.182  0.3234  0.2728 -1.4685
 1252TIP3   OH225246   0.560   4.276  16.831  0.0218 -0.1303 -0.7804
 1252TIP3    H125247   0.618   4.344  16.795 -0.0466 -0.2019 -1.0257
 1252TIP3    H225248   0.609   4.195  16.821 -0.0368 -0.1630 -0.7973
 1253TIP3   OH225249   6.814   3.285   4.269  0.1833 -0.0274 -0.2422
 1253TIP3    H125250   6.807   3.272   4.174  0.0979  1.0021 -0.3808
 1253TIP3    H225251   6.893   3.237   4.293  0.4258  0.0295 -0.9047
 1254TIP3   OH225252   1.346   1.131   0.334 -0.2910  0.4784 -0.2692
 1254TIP3    H125253   1.389   1.049   0.358 -0.4335  0.2202 -0.8844
 1254TIP3    H225254   1.417   1.194   0.325 -0.2675  0.6960  1.2563
 1255TIP3   OH225255   3.173   6.380   0.486 -0.3915 -0.6777 -0.2692
 1255TIP3    H125256   3.207   6.420   0.566 -2.2972  1.4263 -0.4735
 1255TIP3    H225257   3.225   6.300   0.476  0.2770 -0.6977  2.7436
 1256TIP3   OH225258   3.266   3.656   2.927  0.4111 -0.0258 -0.2408
 1256TIP3    H125259   3.205   3.611   2.985  2.1603 -1.6462  0.3942
 1256TIP3    H225260   3.221   3.737   2.903 -1.5986 -0.7612  0.9197
 1257TIP3   OH225261   4.354   2.577   0.274 -0.3354 -0.5922 -0.3525
 1257TIP3    H125262   4.310   2.531   0.346 -0.1587  1.2106  0.9617
 1257TIP3    H225263   4.440   2.534   0.267 -0.5609 -1.1338  0.1542
 1258TIP3   OH225264   3.431   1.725   4.371 -0.0470 -0.2886 -0.0627
 1258TIP3    H125265   3.447   1.757   4.459  2.0811  0.4347 -0.6762
 1258TIP3    H225266   3.345   1.683   4.375 -0.0606 -0.0649  2.2831
 1259TIP3   OH225267   1.834   3.404  13.089 -0.2213 -0.1494 -0.1145
 1259TIP3    H125268   1.877   3.442  13.165 -0.3234 -2.7047  1.2842
 1259TIP3    H225269   1.741   3.425  13.100 -0.0118  1.0124 -0.4933
 1260TIP3   OH225270   6.354   6.364  15.034  0.0554 -0.0699 -0.5446
 1260TIP3    H125271   6.382   6.307  15.105  0.0658  1.8463  1.0137
 1260TIP3    H225272   6.271   6.400  15.063  0.9156  2.1098 -0.6767
 1261TIP3   OH225273   5.327   6.623  16.870 -0.2523 -0.4192 -0.5606
 1261TIP3    H125274   5.375   6.680  16.929 -1.2603  0.5437 -0.6445
 1261TIP3    H225275   5.371   6.538  16.876  0.5751  0.0763  0.4140
 1262TIP3   OH225276   3.024   4.575   4.426 -0.1221 -0.3931  0.2207
 1262TIP3    H125277   2.946   4.542   4.470 -1.8953  0.1032 -2.3888
 1262TIP3    H225278   3.017   4.671   4.433  1.2012 -0.3775  1.5076
 1263TIP3   OH225279   1.876   6.044   2.826  0.0231  0.0290 -0.0217
 1263TIP3    H125280   1.896   6.135   2.849  0.7088 -0.2673  0.5513
 1263TIP3    H225281   1.953   5.995   2.852 -0.2344 -0.6861 -0.5879
 1264TIP3   OH225282   0.584   5.143  15.250  0.9969 -0.1634  0.8976
 1264TIP3    H125283   0.537   5.215  15.291  0.1860  0.2939 -0.7981
 1264TIP3    H225284   0.676   5.168  15.256  0.7022  1.1461  0.1075
 1265TIP3   OH225285   5.244   3.058  15.053 -0.3049  0.2582 -0.1150
 1265TIP3    H125286   5.240   3.079  15.146 -1.0912  2.5217 -0.6390
 1265TIP3    H225287   5.324   3.102  15.023 -2.2032  2.9698 -1.3190
 1266TIP3   OH225288   4.151   5.962   2.181  0.0878  0.5821  0.0406
 1266TIP3    H125289   4.199   5.964   2.264 -1.6426  0.0671  1.0772
 1266TIP3    H225290   4.059   5.963   2.206 -0.5006 -1.8218 -1.7793
 1267TIP3   OH225291   0.508   1.337  11.170 -1.0278  0.0386  0.2556
 1267TIP3    H125292   0.471   1.372  11.251 -0.4431 -1.5831  1.2457
 1267TIP3    H225293   0.441   1.278  11.137 -0.6358 -0.4615  0.3553
 1268TIP3   OH225294   2.284   0.176  13.245  0.1410 -0.0114  0.1562
 1268TIP3    H125295   2.245   0.118  13.310  0.9733  0.2061  0.8569
 1268TIP3    H225296   2.224   0.172  13.170 -0.0956 -1.3280  0.4084
 1269TIP3   OH225297   3.638   3.376  14.883  0.0861 -0.0566 -0.1567
 1269TIP3    H125298   3.688   3.363  14.802 -0.1804  1.3049 -0.5617
 1269TIP3    H225299   3.694   3.430  14.938 -0.4644  0.5115 -0.1489
 1270TIP3   OH225300   2.523   1.206   5.982 -0.5559  0.1365  0.2445
 1270TIP3    H125301   2.565   1.148   6.045  0.7120  0.3433 -0.4019
 1270TIP3    H225302   2.594   1.239   5.927 -1.5908  0.1696 -1.1308
 1271TIP3   OH225303   3.409   4.798   2.675  0.0612 -0.1791  0.0546
 1271TIP3    H125304   3.343   4.766   2.613  0.8990 -1.0476 -0.3849
 1271TIP3    H225305   3.493   4.777   2.634  0.6154  0.2473  0.9693
 1272TIP3   OH225306   3.481   1.053   0.725 -0.4351 -0.2194  0.0756
 1272TIP3    H125307   3.439   1.138   0.712 -1.7880 -0.8219  0.4308
 1272TIP3    H225308   3.487   1.016   0.636  1.1296  0.6938 -0.2045
 1273TIP3   OH225309   2.913   4.826   1.012  0.5196 -0.2839 -0.2124
 1273TIP3    H125310   3.008   4.816   1.014  0.5087 -0.3127  0.2432
 1273TIP3    H225311   2.879   4.747   1.054  0.3089 -0.0806  0.0008
 1274TIP3   OH225312   4.772   2.038  12.387  0.1422 -0.8995  0.3589
 1274TIP3    H125313   4.685   2.018  12.350 -0.2708 -1.3864  1.5767
 1274TIP3    H225314   4.769   2.133  12.404  0.5486 -0.5527 -1.3755
 1275TIP3   OH225315   2.105   5.507   2.172  0.7309 -0.5218 -0.2666
 1275TIP3    H125316   2.024   5.470   2.207 -0.7514  1.2019 -1.7551
 1275TIP3    H225317   2.077   5.585   2.124  3.2981  0.1820 -0.7008
 1276TIP3   OH225318   0.085   4.213   1.897  0.1616  0.5158 -0.2525
 1276TIP3    H125319   0.028   4.192   1.824 -0.0937  0.3700 -0.0120
 1276TIP3    H225320   0.126   4.129   1.921  1.0239  0.7452 -0.8834
 1277TIP3   OH225321   4.317   1.994  15.458 -0.7045  0.0256  0.5336
 1277TIP3    H125322   4.286   2.076  15.419 -1.4933 -0.4458  0.1513
 1277TIP3    H225323   4.408   1.987  15.430 -0.7272  0.6131  0.3031
 1278TIP3   OH225324   1.066   0.738   2.294 -0.5379 -0.1982  0.1190
 1278TIP3    H125325   1.074   0.776   2.381 -1.6849 -0.8275  0.5011
 1278TIP3    H225326   1.135   0.672   2.290 -0.8791 -0.5894  0.7624
 1279TIP3   OH225327   5.136   4.574   3.214  0.0754 -0.3265  0.3393
 1279TIP3    H125328   5.184   4.646   3.174  0.4943 -1.1814 -0.7293
 1279TIP3    H225329   5.085   4.536   3.143 -0.9872 -0.4094  1.1243
 1280TIP3   OH225330   3.638   1.367   5.960 -0.4344 -0.1421  0.4429
 1280TIP3    H125331   3.564   1.307   5.959  1.2506 -2.2948 -1.0972
 1280TIP3    H225332   3.700   1.328   6.022 -0.9971  2.2404  2.6110
 1281TIP3   OH225333   0.997   3.782   0.173 -0.7563  0.2130 -0.0844
 1281TIP3    H125334   0.991   3.686   0.176 -0.5997  0.1195 -1.9054
 1281TIP3    H225335   0.931   3.808   0.109 -0.4399  1.2837  0.0109
 1282TIP3   OH225336   2.104   0.898   3.345 -0.5804  0.5538  0.0155
 1282TIP3    H125337   2.014   0.908   3.377 -0.4063  0.8975  0.4032
 1282TIP3    H225338   2.159   0.927   3.418 -0.1574  0.4504 -0.2605
 1283TIP3   OH225339   4.415   5.658  15.950 -0.0767 -0.0554 -0.4887
 1283TIP3    H125340   4.497   5.655  15.999 -0.6635  0.2319  0.5293
 1283TIP3    H225341   4.370   5.576  15.973 -0.4568  0.1864 -0.3620
 1284TIP3   OH225342   6.649   2.608  12.162  0.4822  0.2240 -0.4910
 1284TIP3    H125343   6.724   2.553  12.186  1.2425  1.2436 -0.4763
 1284TIP3    H225344   6.624   2.649  12.245 -1.2544 -1.4883 -0.1380
 1285TIP3   OH225345   1.101   5.629   2.984  0.2481 -0.3772 -0.4032
 1285TIP3    H125346   1.006   5.622   2.982  0.4244 -3.2148 -0.4389
 1285TIP3    H225347   1.118   5.723   2.997 -2.5294  0.0987  0.0499
 1286TIP3   OH225348   4.977   1.685  16.731  0.4486  0.1971  0.4297
 1286TIP3    H125349   4.993   1.623  16.802  0.5420  0.2839  0.4850
 1286TIP3    H225350   5.059   1.734  16.723  0.5297  0.0064  0.0840
 1287TIP3   OH225351   5.854   4.817  16.634 -0.4043  0.0846  0.2151
 1287TIP3    H125352   5.862   4.768  16.552 -2.5808 -0.5092  0.3219
 1287TIP3    H225353   5.912   4.893  16.623 -0.1634 -0.3471 -1.5969
 1288TIP3   OH225354   0.512   6.221   2.730 -0.1935 -0.0481  0.4251
 1288TIP3    H125355   0.431   6.201   2.682  0.7108  0.4519 -1.3729
 1288TIP3    H225356   0.564   6.142   2.722  1.0453  0.9189 -1.7830
 1289TIP3   OH225357   0.812   1.940  15.438  0.2888 -0.2832 -0.0449
 1289TIP3    H125358   0.802   1.855  15.396 -0.2069 -0.8074  1.0926
 1289TIP3    H225359   0.735   1.990  15.410  0.8187 -0.0588 -1.0778
 1290TIP3   OH225360   5.288   0.384  12.282 -0.0083 -0.6494 -0.0095
 1290TIP3    H125361   5.278   0.425  12.195  1.8238 -0.2907 -0.0693
 1290TIP3    H225362   5.235   0.439  12.340  0.9384  0.7575 -0.4297
 1291TIP3   OH225363   0.624   2.835  12.727 -0.5274 -0.3560 -0.2126
 1291TIP3    H125364   0.593   2.910  12.677 -2.0995 -1.3072 -0.7127
 1291TIP3    H225365   0.696   2.798  12.674 -2.4913 -1.6357 -2.0580
 1292TIP3   OH225366   5.041   6.275  12.809  0.1478 -0.2440 -0.0739
 1292TIP3    H125367   4.995   6.239  12.884 -0.7681  0.7265 -0.1511
 1292TIP3    H225368   5.133   6.255  12.825  0.4775  3.3383  3.2945
 1293TIP3   OH225369   3.305   5.333  13.471 -0.1553 -0.1548  0.1403
 1293TIP3    H125370   3.232   5.337  13.410 -1.3887 -0.6404  1.5376
 1293TIP3    H225371   3.304   5.243  13.504  1.1530 -0.2043  0.0833
 1294TIP3   OH225372   6.212   0.563   0.320 -0.2056  0.4041 -0.1191
 1294TIP3    H125373   6.147   0.633   0.328  0.3750  0.9510 -0.1898
 1294TIP3    H225374   6.212   0.521   0.406 -0.0738  0.9181  0.1345
 1295TIP3   OH225375   5.573   5.668  15.449 -0.0069  0.0829  0.4262
 1295TIP3    H125376   5.654   5.708  15.417  0.6680 -3.2793 -2.4344
 1295TIP3    H225377   5.599   5.621  15.528  0.5313  0.1965  0.3215
 1296TIP3   OH225378   4.438   2.074  12.668  0.4226  0.3083 -0.0109
 1296TIP3    H125379   4.450   1.980  12.683  1.3461  0.4796  0.3746
 1296TIP3    H225380   4.382   2.103  12.741  0.3744  0.1107  0.0317
 1297TIP3   OH225381   1.169   4.997   1.221 -0.3541  0.3852 -0.0191
 1297TIP3    H125382   1.241   4.982   1.160  0.0262  1.1800  0.2261
 1297TIP3    H225383   1.104   5.045   1.170  0.6535  2.4946  0.6282
 1298TIP3   OH225384   4.393   4.673  13.868 -0.2379  0.0740 -0.3372
 1298TIP3    H125385   4.313   4.623  13.854 -0.5686  0.7065 -0.7692
 1298TIP3    H225386   4.372   4.760  13.832  0.5644  0.3012 -0.2474
 1299TIP3   OH225387   2.301   6.650   4.857  0.3411  0.4991 -0.2221
 1299TIP3    H125388   2.254   6.580   4.811 -2.4546  2.0737  0.1601
 1299TIP3    H225389   2.362   6.604   4.915 -0.2718 -1.5776 -1.1734
 1300TIP3   OH225390   3.088   0.655   4.088 -0.3892 -0.6032  0.1470
 1300TIP3    H125391   3.059   0.591   4.153  0.2367  0.4821  1.5163
 1300TIP3    H225392   3.043   0.736   4.113  1.3456  0.2968  0.3830
 1301TIP3   OH225393   4.857   5.807  15.363 -0.1261  0.3922  0.8309
 1301TIP3    H125394   4.947   5.777  15.351 -0.5213  0.0019 -1.3643
 1301TIP3    H225395   4.807   5.727  15.381 -0.3804  0.3183 -0.1585
 1302TIP3   OH225396   1.642   3.722   2.269  0.4566 -0.5522  0.1278
 1302TIP3    H125397   1.568   3.760   2.317  0.7207 -0.2904  0.3265
 1302TIP3    H225398   1.641   3.630   2.293 -1.3463 -1.0911 -1.8032
 1303TIP3   OH225399   5.296   5.791   4.489 -0.2041  0.3509 -0.1207
 1303TIP3    H125400   5.350   5.787   4.569 -0.6257 -0.6942  0.1147
 1303TIP3    H225401   5.358   5.812   4.420  0.2736  0.6284  0.3833
 1304TIP3   OH225402   2.790   2.665  14.102 -0.2014 -0.0964 -0.1030
 1304TIP3    H125403   2.879   2.688  14.129 -1.4068  1.6352  2.4868
 1304TIP3    H225404   2.771   2.725  14.030 -0.4023  1.6859  1.4077
 1305TIP3   OH225405   2.872   0.817  14.388 -0.4691 -0.0469  0.8652
 1305TIP3    H125406   2.851   0.812  14.481 -1.8889  0.2140  0.5670
 1305TIP3    H225407   2.787   0.814  14.344  0.1471  0.5390 -0.3862
 1306TIP3   OH225408   1.505   1.897  14.346  0.3583 -0.2665 -0.3822
 1306TIP3    H125409   1.479   1.986  14.322  0.3505 -0.3655 -0.7534
 1306TIP3    H225410   1.581   1.908  14.402 -0.3781  0.0217  0.5666
 1307TIP3   OH225411   2.499   5.628   3.354 -0.2191  0.0210 -0.0369
 1307TIP3    H125412   2.553   5.630   3.433 -0.8396 -0.8510  0.4084
 1307TIP3    H225413   2.410   5.642   3.385 -0.3863  0.4064 -0.6679
 1308TIP3   OH225414   5.082   2.158   0.120  0.0154 -0.2655 -0.0341
 1308TIP3    H125415   5.014   2.169   0.186  0.9759  0.0830  0.8971
 1308TIP3    H225416   5.088   2.243   0.076  1.6052  0.4809  1.5802
 1309TIP3   OH225417   0.199   3.704  13.559  0.0615 -0.2713  0.3965
 1309TIP3    H125418   0.200   3.732  13.468 -1.1410 -1.8600 -0.1163
 1309TIP3    H225419   0.108   3.718  13.587  0.3639 -0.0245  1.2912
 1310TIP3   OH225420   6.641   1.569   0.369  0.2244 -0.0835  0.4285
 1310TIP3    H125421   6.613   1.492   0.418 -2.1229 -0.5987 -1.6039
 1310TIP3    H225422   6.559   1.609   0.338  1.5874 -0.6328 -4.2500
 1311TIP3   OH225423   1.414   3.280   2.263  0.2529 -0.2242 -0.6340
 1311TIP3    H125424   1.461   3.362   2.250  1.1813 -0.7219 -0.4514
 1311TIP3    H225425   1.472   3.213   2.227 -0.3679 -0.8259 -0.5207
 1312TIP3   OH225426   2.759   3.538   2.883 -0.4458 -0.1348  0.0211
 1312TIP3    H125427   2.687   3.572   2.830  0.3574 -0.0367 -1.0199
 1312TIP3    H225428   2.811   3.485   2.822 -0.5813 -1.6303  1.1599
 1313TIP3   OH225429   4.884   0.854   1.112 -0.1489 -0.0578 -0.4950
 1313TIP3    H125430   4.791   0.872   1.098 -0.4538 -2.4437 -1.9089
 1313TIP3    H225431   4.921   0.850   1.023  0.9115 -0.9608 -0.0186
 1314TIP3   OH225432   2.004   4.904  10.386  0.2209  0.3827  0.2980
 1314TIP3    H125433   2.051   4.821  10.394 -0.4210  0.2302  2.8801
 1314TIP3    H225434   2.035   4.956  10.461 -1.4267  1.4274  0.2669
 1315TIP3   OH225435   1.819   2.899  12.129 -0.2516  0.6384 -0.4856
 1315TIP3    H125436   1.908   2.868  12.118 -1.1808 -1.7284 -1.6701
 1315TIP3    H225437   1.825   2.967  12.197  2.2643 -0.1242  0.1008
 1316TIP3   OH225438   5.830   3.123   5.495  0.4468 -0.2022  0.1078
 1316TIP3    H125439   5.751   3.077   5.466 -0.6385  0.6716  1.6157
 1316TIP3    H225440   5.878   3.058   5.547 -1.1322  0.3292  2.3163
 1317TIP3   OH225441   0.570   5.140  11.659 -0.1915 -0.0678 -0.3170
 1317TIP3    H125442   0.562   5.179  11.746  1.7822  2.9226 -1.3895
 1317TIP3    H225443   0.636   5.072  11.669  0.7594  0.9294  0.3287
 1318TIP3   OH225444   1.069   5.156  17.217  0.0552  0.1046  0.6244
 1318TIP3    H125445   1.113   5.195  17.292  0.6258  0.5326  0.0753
 1318TIP3    H225446   0.990   5.208  17.206 -0.3404 -0.3504  1.3100
 1319TIP3   OH225447   4.165   4.340  11.848 -0.4995  0.0194 -0.0374
 1319TIP3    H125448   4.230   4.369  11.912 -0.6962 -0.0154  0.1816
 1319TIP3    H225449   4.198   4.371  11.764 -1.0085  1.4202  0.2564
 1320TIP3   OH225450   4.167   2.301   1.747 -0.4631 -0.1128  0.2567
 1320TIP3    H125451   4.149   2.207   1.761 -1.5556 -0.1203 -1.1042
 1320TIP3    H225452   4.199   2.306   1.657  1.0210  0.6542  0.8139
 1321TIP3   OH225453   3.511   0.091  12.781  0.3581 -0.1326  0.3024
 1321TIP3    H125454   3.448   0.161  12.798 -0.0790 -0.8494  1.7693
 1321TIP3    H225455   3.497   0.067  12.690 -2.1904 -0.9373  0.8619
 1322TIP3   OH225456   3.373   6.509   4.258 -0.0475  0.5846 -0.0078
 1322TIP3    H125457   3.466   6.495   4.242 -0.0513 -0.2691  0.6414
 1322TIP3    H225458   3.331   6.427   4.232 -0.5214  0.6870  0.4081
 1323TIP3   OH225459   3.413   3.691   4.868  0.0719  0.2917  0.2425
 1323TIP3    H125460   3.501   3.730   4.874  0.4454 -0.4232 -0.5121
 1323TIP3    H225461   3.402   3.647   4.953  0.2036  0.8650  0.5636
 1324TIP3   OH225462   2.715   6.691  13.659  0.6003  0.1098  0.0481
 1324TIP3    H125463   2.792   6.638  13.679  1.3977  0.4128 -2.1313
 1324TIP3    H225464   2.739   6.742  13.582 -1.5689  0.6485 -0.3242
 1325TIP3   OH225465   0.130   2.475   5.321  1.1584  0.4982  0.1850
 1325TIP3    H125466   0.190   2.494   5.250  1.7380  0.4974  0.6727
 1325TIP3    H225467   0.066   2.547   5.318  0.3707 -0.2433 -1.2014
 1326TIP3   OH225468   1.590   1.632   1.523  0.1485 -0.2065  0.1086
 1326TIP3    H125469   1.498   1.653   1.537  0.9550  4.2265 -0.4555
 1326TIP3    H225470   1.617   1.587   1.604 -1.8379  0.9826  1.4836
 1327TIP3   OH225471   5.190   0.781  15.679  0.1819 -0.1099  0.7459
 1327TIP3    H125472   5.149   0.751  15.760  0.3355 -1.4354  0.3462
 1327TIP3    H225473   5.157   0.721  15.612  0.6742  0.4801 -0.0306
 1328TIP3   OH225474   3.343   4.430  15.899  0.4501  0.5098 -0.4998
 1328TIP3    H125475   3.399   4.452  15.824 -1.0901  1.2816 -1.4450
 1328TIP3    H225476   3.268   4.384  15.861  0.9083 -1.4190  0.8707
 1329TIP3   OH225477   4.484   4.605  15.406 -0.4625 -0.3366 -0.6514
 1329TIP3    H125478   4.471   4.675  15.470  1.1360 -0.1122 -0.5471
 1329TIP3    H225479   4.530   4.647  15.333  2.3840 -1.6774  0.2934
 1330TIP3   OH225480   6.698   6.085  11.001  0.5095 -0.6076  0.1743
 1330TIP3    H125481   6.725   6.081  10.910  1.2756 -0.3159  0.3830
 1330TIP3    H225482   6.672   6.177  11.015  0.4617 -0.6351  0.2682
 1331TIP3   OH225483   2.801   4.284   2.181  0.5238  0.2392 -0.1057
 1331TIP3    H125484   2.751   4.258   2.104  0.4462 -0.0099  0.0288
 1331TIP3    H225485   2.821   4.201   2.226 -1.7145  0.5631  1.5643
 1332TIP3   OH225486   6.723   0.125   2.128  0.4751 -0.1978 -1.0338
 1332TIP3    H125487   6.805   0.110   2.081  1.7012  0.8525  0.7054
 1332TIP3    H225488   6.682   0.198   2.082  0.7285 -0.4337 -1.6429
 1333TIP3   OH225489   4.732   6.538  16.140 -0.2057  0.0617  0.4736
 1333TIP3    H125490   4.668   6.587  16.192  0.3599  0.9017  0.3782
 1333TIP3    H225491   4.737   6.585  16.057  0.3403 -0.1578  0.3806
 1334TIP3   OH225492   5.306   2.032  16.584  0.8373  0.5561  0.1573
 1334TIP3    H125493   5.343   2.005  16.500  1.6486  0.9894  0.3675
 1334TIP3    H225494   5.292   2.126  16.575 -1.4388  0.1981 -0.3679
 1335TIP3   OH225495   4.330   6.161  12.808  0.1924  0.6112  0.2648
 1335TIP3    H125496   4.401   6.193  12.753 -1.3452  0.5964 -1.7864
 1335TIP3    H225497   4.282   6.099  12.752 -0.7353 -0.2785  1.9973
 1336TIP3   OH225498   6.057   0.871  14.555 -0.0584 -0.1303  0.3151
 1336TIP3    H125499   6.031   0.795  14.606  0.2963 -0.7746 -0.4693
 1336TIP3    H225500   5.978   0.895  14.505 -1.0316  1.7001  2.6008
 1337TIP3   OH225501   5.689   3.865   4.252  0.5560  0.0962 -0.4358
 1337TIP3    H125502   5.622   3.858   4.320 -0.5518  1.3933 -1.3593
 1337TIP3    H225503   5.749   3.931   4.284 -1.7181  3.0983 -2.0761
 1338TIP3   OH225504   1.264   3.316  11.330  0.5873  0.2386  0.3686
 1338TIP3    H125505   1.188   3.268  11.297 -0.7401  1.3430  1.7445
 1338TIP3    H225506   1.299   3.361  11.253  1.1980 -1.9844 -0.7195
 1339TIP3   OH225507   1.735   3.202  12.285  0.2097  0.5405 -0.4768
 1339TIP3    H125508   1.650   3.227  12.322  0.2277  1.9530 -1.3381
 1339TIP3    H225509   1.777   3.150  12.354 -1.5047 -0.5169 -0.2035
 1340TIP3   OH225510   1.215   1.294   4.235  0.3683  0.2408 -0.0911
 1340TIP3    H125511   1.175   1.210   4.256  0.5062 -0.0341 -0.9142
 1340TIP3    H225512   1.221   1.340   4.319 -0.4035 -0.2672  0.2408
 1341TIP3   OH225513   4.277   0.801  16.362 -0.2004 -0.0927 -0.6861
 1341TIP3    H125514   4.360   0.847  16.368 -0.9017  0.9675  1.2041
 1341TIP3    H225515   4.300   0.715  16.329  1.4801  0.6454 -1.5002
 1342TIP3   OH225516   3.549   1.465  13.476  0.2148 -0.4548 -0.4455
 1342TIP3    H125517   3.498   1.481  13.397 -0.6468  0.7577  0.3478
 1342TIP3    H225518   3.635   1.503  13.457  0.5065 -1.5380 -1.3668
 1343TIP3   OH225519   5.879   4.698   1.773 -0.1423 -0.2052  0.3917
 1343TIP3    H125520   5.829   4.764   1.820 -1.3382 -1.2492  0.6087
 1343TIP3    H225521   5.815   4.653   1.719  0.6099 -1.3752  0.4451
 1344TIP3   OH225522   5.222   2.170  15.739 -0.1141 -0.4507  0.0474
 1344TIP3    H125523   5.195   2.237  15.676  2.3771  0.0187 -0.5834
 1344TIP3    H225524   5.143   2.118  15.754 -1.0453  0.1001 -2.6176
 1345TIP3   OH225525   5.104   0.365   3.751  0.1190 -0.0067 -0.2656
 1345TIP3    H125526   5.154   0.314   3.814  0.6311  0.4562 -0.2902
 1345TIP3    H225527   5.123   0.324   3.666 -0.6683 -0.7064 -0.1107
 1346TIP3   OH225528   5.045   4.744   1.427  0.5147 -0.5993  0.6076
 1346TIP3    H125529   5.025   4.761   1.519  0.4113  0.4282  0.4035
 1346TIP3    H225530   5.001   4.814   1.380  0.0138 -1.5047 -0.2856
 1347TIP3   OH225531   3.241   5.336  13.806 -0.5081  0.3050  0.2513
 1347TIP3    H125532   3.254   5.265  13.744  0.2719 -0.3315  1.1247
 1347TIP3    H225533   3.289   5.410  13.769 -0.7713  0.1887 -0.3289
 1348TIP3   OH225534   0.234   6.641   4.123 -0.1172  0.5298 -0.3444
 1348TIP3    H125535   0.276   6.678   4.045 -1.0386 -0.4885 -1.3328
 1348TIP3    H225536   0.150   6.686   4.128  0.1206  0.9007  0.3092
 1349TIP3   OH225537   3.572   6.499  14.184  0.1498  0.0782  0.1249
 1349TIP3    H125538   3.569   6.516  14.090  0.1810  0.9871  0.2933
 1349TIP3    H225539   3.657   6.534  14.212 -0.2652  0.6478  0.6624
 1350TIP3   OH225540   5.816   4.256  11.735 -0.0062  0.1181  0.0184
 1350TIP3    H125541   5.873   4.324  11.697 -0.8125  0.8648  0.1380
 1350TIP3    H225542   5.807   4.282  11.826  0.3796 -0.6338  0.2742
 1351TIP3   OH225543   3.368   4.096  14.423  0.6859  0.7569  0.1661
 1351TIP3    H125544   3.416   4.033  14.369 -1.5322 -1.2074  0.4140
 1351TIP3    H225545   3.350   4.169  14.364  3.0574  1.0845 -0.2078
 1352TIP3   OH225546   2.407   2.790  13.115 -0.1326 -0.9252  0.0570
 1352TIP3    H125547   2.358   2.772  13.035  0.2732 -1.4276 -0.0788
 1352TIP3    H225548   2.488   2.831  13.085 -0.9122  0.8881  0.3369
 1353TIP3   OH225549   0.230   6.073  14.905  0.1691 -0.1979 -0.1489
 1353TIP3    H125550   0.237   5.980  14.927  3.2038  0.3259  1.3618
 1353TIP3    H225551   0.193   6.114  14.984  0.5704  0.1388 -0.1356
 1354TIP3   OH225552   5.253   0.776   0.386  0.1654  0.0005 -0.1238
 1354TIP3    H125553   5.182   0.762   0.324 -0.0304  0.5347 -0.0176
 1354TIP3    H225554   5.209   0.793   0.469  0.4338 -2.4480  0.5447
 1355TIP3   OH225555   1.645   6.345   1.807  0.1937  0.5267 -0.0673
 1355TIP3    H125556   1.672   6.431   1.838  0.9786  0.1475  0.3122
 1355TIP3    H225557   1.671   6.343   1.715  1.5401  0.1300  0.3203
 1356TIP3   OH225558   2.373   0.569  16.603 -0.3590  0.2119 -0.3441
 1356TIP3    H125559   2.292   0.611  16.573 -0.7128 -0.0917  0.1815
 1356TIP3    H225560   2.403   0.624  16.675  0.2248  0.6611 -0.9283
 1357TIP3   OH225561   1.272   4.107  12.882 -0.5227 -0.4606 -0.3259
 1357TIP3    H125562   1.233   4.192  12.860  3.5346  2.3936  2.7423
 1357TIP3    H225563   1.235   4.085  12.968  0.7046 -0.2915  0.2519
 1358TIP3   OH225564   5.409   3.895  11.106  0.3455 -0.7329  0.5885
 1358TIP3    H125565   5.316   3.884  11.086  0.9544 -0.3122 -2.7056
 1358TIP3    H225566   5.427   3.987  11.088  1.4726 -0.8944  0.8657
 1359TIP3   OH225567   0.017   2.112  10.355  0.2855  0.0244 -0.4141
 1359TIP3    H125568  -0.029   2.193  10.332 -1.1421 -0.6010  0.2172
 1359TIP3    H225569   0.109   2.131  10.335 -0.0385  1.7756 -0.3458
 1360TIP3   OH225570   1.627   3.369  14.806  0.0416  0.2929  0.3653
 1360TIP3    H125571   1.597   3.459  14.815  2.1045  0.8148  2.7154
 1360TIP3    H225572   1.556   3.324  14.760 -1.7699  2.7105  0.7119
 1361TIP3   OH225573   4.079   5.419   0.692  0.2268  0.1977 -0.0884
 1361TIP3    H125574   4.102   5.374   0.774  0.2860  0.3777 -0.0055
 1361TIP3    H225575   4.029   5.495   0.720  1.0637  0.7774 -0.1609
 1362TIP3   OH225576   1.678   5.083  14.469 -0.0214 -0.1269 -0.2414
 1362TIP3    H125577   1.621   5.140  14.417  0.1426 -0.2626 -0.5741
 1362TIP3    H225578   1.663   5.109  14.560 -0.1126  0.2938 -0.3791
 1363TIP3   OH225579   2.015   3.495  17.005 -0.2612 -0.8930 -0.4597
 1363TIP3    H125580   2.017   3.412  17.052 -0.8333 -0.1975  0.8062
 1363TIP3    H225581   1.965   3.475  16.925  0.0968 -1.9039 -0.4454
 1364TIP3   OH225582   4.179   5.345   3.103  0.4346  0.3354 -0.2060
 1364TIP3    H125583   4.266   5.305   3.105 -0.4897 -1.7852 -0.7561
 1364TIP3    H225584   4.155   5.345   3.010  0.3462  2.0821 -0.2028
 1365TIP3   OH225585   6.734   5.616  16.128 -0.3359 -0.5308 -0.4349
 1365TIP3    H125586   6.701   5.703  16.151  0.2129 -0.5992  0.6724
 1365TIP3    H225587   6.687   5.557  16.187 -0.9503 -1.0198 -1.4143
 1366TIP3   OH225588   1.820   3.403  16.819 -0.2426  0.1388  0.0442
 1366TIP3    H125589   1.879   3.329  16.804 -0.2257  0.5621 -2.1532
 1366TIP3    H225590   1.757   3.370  16.883  1.2963 -0.9121  1.0674
 1367TIP3   OH225591   0.870   3.750   5.384  0.3886 -0.4680  0.5354
 1367TIP3    H125592   0.796   3.714   5.433 -0.7678 -0.2755 -1.0104
 1367TIP3    H225593   0.900   3.678   5.329  0.7752 -0.2811  0.4961
 1368TIP3   OH225594   1.856   5.735  16.803 -0.5772 -0.1962 -0.6961
 1368TIP3    H125595   1.765   5.706  16.797 -0.9753  0.9569 -0.3898
 1368TIP3    H225596   1.880   5.757  16.713 -0.4308 -0.9884 -0.8525
 1369TIP3   OH225597   5.152   0.679   2.572 -0.6888 -0.5308 -0.6722
 1369TIP3    H125598   5.151   0.693   2.667  0.7228  0.8916 -0.8423
 1369TIP3    H225599   5.078   0.730   2.540  0.0808  0.6825 -0.5376
 1370TIP3   OH225600   6.778   5.137  14.571 -0.5274  0.3864  0.1384
 1370TIP3    H125601   6.779   5.146  14.666 -1.1112 -0.3775  0.2219
 1370TIP3    H225602   6.706   5.076  14.554  1.3151 -1.6593 -0.5951
 1371TIP3   OH225603   0.826   1.832  16.030  0.3378  0.1498 -0.2858
 1371TIP3    H125604   0.767   1.790  15.967 -1.3532  0.7191  0.8729
 1371TIP3    H225605   0.867   1.759  16.077  0.7822 -0.2581 -1.3047
 1372TIP3   OH225606   3.182   5.461   3.427  0.3130 -0.2246  0.6524
 1372TIP3    H125607   3.149   5.471   3.337  2.8643  1.1291 -0.2033
 1372TIP3    H225608   3.141   5.381   3.459 -0.0930 -1.1345 -2.0005
 1373TIP3   OH225609   1.436   5.493  15.158 -0.0448 -0.2337 -0.4360
 1373TIP3    H125610   1.368   5.431  15.132  0.7368 -0.6936 -1.4497
 1373TIP3    H225611   1.462   5.535  15.076  1.8637 -1.0672 -0.2773
 1374TIP3   OH225612   1.149   0.506  12.598  0.1073 -0.4218 -0.5501
 1374TIP3    H125613   1.214   0.446  12.562  0.8557 -0.0344  0.1234
 1374TIP3    H225614   1.069   0.487  12.551  0.7981 -0.6865 -1.6276
 1375TIP3   OH225615   3.704   3.660  14.702 -0.2215  0.3152 -0.3737
 1375TIP3    H125616   3.612   3.638  14.693 -0.2549  0.9692 -1.7766
 1375TIP3    H225617   3.708   3.755  14.692  0.5518  0.3392  0.0962
 1376TIP3   OH225618   3.382   1.784  15.357  0.7463  0.3418 -0.2093
 1376TIP3    H125619   3.434   1.806  15.279  4.0919 -0.2828  1.7577
 1376TIP3    H225620   3.412   1.845  15.424  0.3313 -1.2922  1.5090
 1377TIP3   OH225621   2.799   1.848   3.246  0.3715 -0.2233 -0.4696
 1377TIP3    H125622   2.832   1.937   3.253  0.5513 -0.1850 -1.6973
 1377TIP3    H225623   2.743   1.837   3.323  0.7927  0.7466 -0.0105
 1378TIP3   OH225624   2.528   0.377  16.504 -0.1619 -0.4061 -0.0685
 1378TIP3    H125625   2.463   0.443  16.529  0.3450 -0.5132  1.6135
 1378TIP3    H225626   2.555   0.401  16.416 -1.2991  0.5847 -0.1543
 1379TIP3   OH225627   0.203   4.799   4.706  0.1381  0.6792 -0.4951
 1379TIP3    H125628   0.143   4.782   4.633  0.7511  2.6783 -1.4955
 1379TIP3    H225629   0.182   4.731   4.770 -1.9423  0.2454 -1.5828
 1380TIP3   OH225630   4.497   5.319   4.764 -0.1132  0.4088 -0.5724
 1380TIP3    H125631   4.544   5.399   4.743  0.1660  0.9464  1.8681
 1380TIP3    H225632   4.432   5.346   4.829 -0.8382 -1.1182 -0.6353
 1381TIP3   OH225633   5.086   2.007   4.241  0.0745 -0.4526 -0.7464
 1381TIP3    H125634   5.179   2.009   4.217  0.8618  0.2988  2.2255
 1381TIP3    H225635   5.085   2.019   4.336 -2.9406 -2.6275 -0.4165
 1382TIP3   OH225636   2.058   1.338  13.315 -0.0106 -0.0837  0.1378
 1382TIP3    H125637   2.133   1.396  13.328  2.1917 -3.0218  1.2549
 1382TIP3    H225638   2.082   1.283  13.241 -1.6406 -0.2216 -0.3141
 1383TIP3   OH225639   1.537   1.479   0.399 -0.1879  0.3073 -0.2362
 1383TIP3    H125640   1.582   1.563   0.393  0.3546 -0.0016 -0.5090
 1383TIP3    H225641   1.576   1.436   0.476 -0.2331  0.1665 -0.2916
 1384TIP3   OH225642   4.106   6.439   5.193  0.0925 -0.3941  0.0658
 1384TIP3    H125643   4.177   6.476   5.245  0.6193  0.9993 -1.6023
 1384TIP3    H225644   4.137   6.353   5.167  0.8320 -0.1111  0.0141
 1385TIP3   OH225645   2.309   4.745  13.259  0.2226 -0.3250 -0.5171
 1385TIP3    H125646   2.354   4.763  13.341  0.1693 -2.9390  0.1305
 1385TIP3    H225647   2.220   4.723  13.284  0.1271 -0.8664 -1.2961
 1386TIP3   OH225648   0.692   6.467  16.907 -0.0267 -0.1096  0.4574
 1386TIP3    H125649   0.705   6.534  16.840  1.2521 -1.4400 -0.6425
 1386TIP3    H225650   0.673   6.517  16.987  3.0631  1.6718  0.1593
 1387TIP3   OH225651   1.372   1.995   2.026 -0.7732 -0.2691 -0.5374
 1387TIP3    H125652   1.417   2.066   2.071 -1.0051 -1.3583  1.4603
 1387TIP3    H225653   1.442   1.934   2.002 -0.5211  0.7736 -2.6202
 1388TIP3   OH225654   3.239   0.083   0.177 -0.2650 -0.8637  0.3228
 1388TIP3    H125655   3.267   0.154   0.235 -1.3992  0.6532 -0.9248
 1388TIP3    H225656   3.292   0.095   0.098  1.4432 -3.0610  1.0978
 1389TIP3   OH225657   6.075   3.568  10.906 -0.3087 -0.0586 -0.4753
 1389TIP3    H125658   6.098   3.607  10.822 -1.5367  0.9268 -0.3579
 1389TIP3    H225659   6.044   3.481  10.885  0.9027 -0.4081 -0.8856
 1390TIP3   OH225660   1.574   4.963  13.043  0.2659  0.1263  0.3618
 1390TIP3    H125661   1.636   5.019  13.091 -1.0220  0.9478  1.0777
 1390TIP3    H225662   1.588   4.985  12.951  0.7908  0.5495  0.5427
 1391TIP3   OH225663   2.434   1.898   4.696 -0.0320 -0.8105 -0.1431
 1391TIP3    H125664   2.348   1.869   4.665  0.1335 -0.1591 -1.2403
 1391TIP3    H225665   2.494   1.874   4.626  0.5774 -0.6217  0.3124
 1392TIP3   OH225666   0.740   6.278  17.144 -0.5592  0.2861  0.3893
 1392TIP3    H125667   0.718   6.322  17.062 -1.0624 -0.6275  0.0193
 1392TIP3    H225668   0.727   6.185  17.125 -0.9063  0.0841  1.5784
 1393TIP3   OH225669   4.431   6.299   5.301 -0.4680 -0.3913 -0.6745
 1393TIP3    H125670   4.371   6.316   5.374  1.9986  2.0512  0.8722
 1393TIP3    H225671   4.413   6.368   5.238 -0.8367 -1.0057 -1.2504
 1394TIP3   OH225672   2.632   1.856   3.473  0.3070 -0.3477  0.2560
 1394TIP3    H125673   2.572   1.849   3.547  0.0755  0.2327  0.1243
 1394TIP3    H225674   2.688   1.930   3.495 -0.5950  0.6408 -0.7419
 1395TIP3   OH225675   2.113   1.440   4.146 -0.2751  0.0574 -0.1000
 1395TIP3    H125676   2.206   1.419   4.152  0.0428  1.0537 -1.4101
 1395TIP3    H225677   2.088   1.413   4.058 -1.3271 -0.5184  0.3589
 1396TIP3   OH225678   5.912   3.450  16.932  0.1309 -0.2128  1.0434
 1396TIP3    H125679   5.924   3.408  16.847 -0.6233 -1.0574  1.3413
 1396TIP3    H225680   6.001   3.466  16.964  0.4208 -0.4863  0.3863
 1397TIP3   OH225681   1.472   1.775  13.961  0.4759 -0.0866  0.2184
 1397TIP3    H125682   1.391   1.746  13.919  0.0071 -2.2290  2.4850
 1397TIP3    H225683   1.541   1.753  13.899 -0.4993 -0.0661 -0.8898
 1398TIP3   OH225684   2.313   2.507   4.124  0.1596  0.3486 -0.6506
 1398TIP3    H125685   2.280   2.587   4.083 -1.1468  0.4536  0.5748
 1398TIP3    H225686   2.253   2.439   4.093  0.7519 -0.0158 -0.9982
 1399TIP3   OH225687   2.639   4.746   3.878 -0.5328 -0.3055  0.4881
 1399TIP3    H125688   2.547   4.761   3.898 -0.2656  2.7537 -0.3140
 1399TIP3    H225689   2.680   4.733   3.963 -1.2230  1.4545  1.1128
 1400TIP3   OH225690   2.956   5.534  13.004  0.1202  0.1088 -0.1311
 1400TIP3    H125691   2.870   5.564  12.975 -0.3119 -0.4195  0.6058
 1400TIP3    H225692   2.956   5.440  12.987  0.5187  0.0897 -0.0290
 1401TIP3   OH225693   2.228   0.845  14.039 -0.4070  0.1234  0.6210
 1401TIP3    H125694   2.252   0.931  14.075  0.0520  0.0315  0.5365
 1401TIP3    H225695   2.194   0.797  14.114  0.4181 -0.0188  0.9098
 1402TIP3   OH225696   4.030   0.171   4.772 -0.1968 -0.2979 -0.4132
 1402TIP3    H125697   4.015   0.097   4.713  1.8749 -1.4995  0.5064
 1402TIP3    H225698   4.078   0.234   4.718  0.8821 -1.0026 -0.2938
 1403TIP3   OH225699   4.017   4.133   1.441  0.0972 -0.1171  0.4439
 1403TIP3    H125700   4.069   4.056   1.467  1.2747  0.2616 -0.7265
 1403TIP3    H225701   3.975   4.107   1.360  1.3658  0.8251 -0.5434
 1404TIP3   OH225702   5.746   5.948  13.574 -0.1746  0.8638 -0.1589
 1404TIP3    H125703   5.775   5.932  13.664 -0.3681 -0.3626 -0.3054
 1404TIP3    H225704   5.779   6.036  13.553  1.9399  0.2122  0.2832
 1405TIP3   OH225705   0.773   5.714  12.043 -1.0515  0.1577 -0.0256
 1405TIP3    H125706   0.841   5.774  12.073 -1.2275  1.1895 -1.5931
 1405TIP3    H225707   0.790   5.704  11.949 -0.6429 -2.7647  0.2972
 1406TIP3   OH225708   2.407   0.552  14.073 -0.4968  0.2114 -0.4642
 1406TIP3    H125709   2.490   0.596  14.054 -0.2162 -0.7296 -1.4612
 1406TIP3    H225710   2.395   0.565  14.167  0.9982 -0.0020 -0.2247
 1407TIP3   OH225711   0.613   4.317   1.005  0.1585  0.4473 -0.1180
 1407TIP3    H125712   0.582   4.330   0.915  1.4574 -1.3478 -0.8702
 1407TIP3    H225713   0.544   4.266   1.047  0.6379 -0.8593 -0.8672
 1408TIP3   OH225714   6.212   2.874  12.206  0.1676 -0.0329  0.5287
 1408TIP3    H125715   6.295   2.854  12.164  0.6657 -0.6352  1.7942
 1408TIP3    H225716   6.179   2.789  12.237 -0.2482  0.3839  1.2585
 1409TIP3   OH225717   0.146   3.281   3.758  0.6392  0.2770  0.1286
 1409TIP3    H125718   0.074   3.221   3.782  1.6946 -0.2532  2.1419
 1409TIP3    H225719   0.208   3.272   3.831  1.4922  2.7420 -0.2830
 1410TIP3   OH225720   4.984   0.344  12.111 -0.9029 -0.1398 -0.4182
 1410TIP3    H125721   5.055   0.289  12.078 -0.9140  0.6533 -1.8211
 1410TIP3    H225722   4.904   0.296  12.088 -0.9289  0.6699 -2.0715
 1411TIP3   OH225723   2.406   4.464   6.293 -0.1204 -0.0355  0.1277
 1411TIP3    H125724   2.463   4.524   6.245 -0.2858  2.7423  3.2864
 1411TIP3    H225725   2.318   4.483   6.259 -0.1961  1.6694  1.2466
 1412TIP3   OH225726   1.488   0.642   4.287 -0.7502  0.1904  0.1616
 1412TIP3    H125727   1.426   0.674   4.221 -0.4984 -3.4853 -1.9838
 1412TIP3    H225728   1.573   0.676   4.258 -0.9216  0.2494 -0.2779
 1413TIP3   OH225729   5.750   0.573   3.126  0.2239 -0.3239 -0.0274
 1413TIP3    H125730   5.728   0.633   3.055 -0.1916 -0.4758 -0.0273
 1413TIP3    H225731   5.667   0.532   3.150  0.3116 -0.0779  0.7282
 1414TIP3   OH225732   4.106   1.311  11.060  0.1062 -0.1365  0.1251
 1414TIP3    H125733   4.016   1.341  11.067  0.3194  0.6579 -0.4235
 1414TIP3    H225734   4.111   1.269  10.974  0.3470  0.1764 -0.0196
 1415TIP3   OH225735   1.242   6.595  13.983 -0.1918  0.0080 -0.3324
 1415TIP3    H125736   1.287   6.595  14.067 -0.4796 -1.0283 -0.1720
 1415TIP3    H225737   1.151   6.615  14.005 -0.7721 -2.6563 -0.0916
 1416TIP3   OH225738   1.642   2.193   1.589 -0.6878 -0.3348 -0.5732
 1416TIP3    H125739   1.624   2.119   1.647  0.5056 -0.9906 -1.0178
 1416TIP3    H225740   1.595   2.266   1.628 -0.9792 -1.0731  0.4872
 1417TIP3   OH225741   0.716   1.170  16.330  0.2846 -0.0648  0.1827
 1417TIP3    H125742   0.779   1.170  16.258  0.3717 -0.1213  0.2600
 1417TIP3    H225743   0.740   1.095  16.384 -0.4976 -0.7063 -0.3570
 1418TIP3   OH225744   5.968   1.390   4.629 -0.2100  0.4342 -0.5425
 1418TIP3    H125745   6.023   1.450   4.679  0.5438  2.0046 -3.1274
 1418TIP3    H225746   5.884   1.435   4.621 -0.7496 -0.3897  0.3870
 1419TIP3   OH225747   0.034   5.086  10.345 -0.2898 -0.7074  0.4500
 1419TIP3    H125748  -0.046   5.038  10.367 -3.0607  3.4637  0.2570
 1419TIP3    H225749   0.060   5.128  10.427  0.5125 -0.4508  0.0700
 1420TIP3   OH225750   2.144   0.852  13.460 -0.3041  0.0675 -0.5244
 1420TIP3    H125751   2.112   0.942  13.457  1.0746  0.5977  0.2175
 1420TIP3    H225752   2.155   0.826  13.369 -4.3713 -0.7125 -0.8902
 1421TIP3   OH225753   6.163   2.424   1.347 -0.2820  0.2987  0.0330
 1421TIP3    H125754   6.170   2.518   1.335  2.0649  0.0479 -0.8583
 1421TIP3    H225755   6.120   2.393   1.267  0.9006  0.3810 -0.6376
 1422TIP3   OH225756   4.360   0.384   3.426  0.5190  0.0228 -0.9362
 1422TIP3    H125757   4.408   0.342   3.497  0.0974 -2.0009 -1.8240
 1422TIP3    H225758   4.410   0.463   3.406  1.8126 -0.5147  0.1499
 1423TIP3   OH225759   5.208   1.160   1.068 -0.1246  0.1589 -0.1823
 1423TIP3    H125760   5.216   1.166   1.163 -1.0015  1.3793 -0.1718
 1423TIP3    H225761   5.143   1.227   1.045  1.9460  1.6513 -1.9104
 1424TIP3   OH225762   0.707   4.633   1.387 -0.1690 -0.2981 -0.1250
 1424TIP3    H125763   0.708   4.596   1.299  0.2764  0.0329 -0.2617
 1424TIP3    H225764   0.698   4.727   1.373  0.6078 -0.1821  0.1622
 1425TIP3   OH225765   3.578   6.280  13.000  0.8762 -0.3100  0.2284
 1425TIP3    H125766   3.638   6.330  12.945  0.2988 -0.2839 -0.3880
 1425TIP3    H225767   3.529   6.225  12.939 -1.4536  1.4587  0.4051
 1426TIP3   OH225768   4.940   6.546   2.068  0.0450  0.1696  0.3735
 1426TIP3    H125769   4.908   6.472   2.017  0.1411 -0.1716  0.8039
 1426TIP3    H225770   5.013   6.510   2.119 -0.3384  0.3943  1.0880
 1427TIP3   OH225771   2.619   2.990   5.345 -0.4841 -0.2482 -0.0745
 1427TIP3    H125772   2.686   3.054   5.371 -0.8437  0.6361 -1.3038
 1427TIP3    H225773   2.622   2.924   5.414  0.4560  0.6772  0.7958
 1428TIP3   OH225774   3.571   4.714   0.594  0.2654  0.5848 -0.1324
 1428TIP3    H125775   3.480   4.722   0.624  0.3111 -0.0211  0.1734
 1428TIP3    H225776   3.617   4.671   0.667  0.1756 -1.8035 -1.4326
 1429TIP3   OH225777   2.757   6.460  12.541  0.3763  0.2669  0.2415
 1429TIP3    H125778   2.683   6.435  12.485  1.5503 -1.5013 -0.5786
 1429TIP3    H225779   2.720   6.524  12.602 -1.3731  0.8629 -1.3675
 1430TIP3   OH225780   4.033   0.387  13.007  0.3282  0.4488 -0.0079
 1430TIP3    H125781   4.031   0.355  12.916  1.2609  0.1077  0.0890
 1430TIP3    H225782   4.124   0.413  13.022  0.5329 -0.9295  1.3159
 1431TIP3   OH225783   0.054   4.259  10.532  0.5186 -0.0172 -0.5368
 1431TIP3    H125784   0.020   4.170  10.526  1.3244 -0.2489 -1.9918
 1431TIP3    H225785   0.107   4.270  10.453 -0.9470  2.3418 -1.2438
 1432TIP3   OH225786   4.504   2.031  11.444  0.3960 -0.8204  0.0899
 1432TIP3    H125787   4.419   2.055  11.406  0.1796 -1.6810  0.0316
 1432TIP3    H225788   4.568   2.056  11.377  0.2111  0.0650  0.2410
 1433TIP3   OH225789   1.450   3.567   1.307 -0.7754  0.3471  0.1595
 1433TIP3    H125790   1.467   3.643   1.364 -1.6753  0.7204 -0.0588
 1433TIP3    H225791   1.385   3.599   1.244  2.1570  0.7682 -2.8124
 1434TIP3   OH225792   0.160   6.286  14.693  0.4641  0.2446 -0.0156
 1434TIP3    H125793   0.207   6.239  14.762  3.4595  1.7614 -0.9182
 1434TIP3    H225794   0.157   6.224  14.620 -0.0808 -0.3199  0.4840
 1435TIP3   OH225795   0.917   1.082   6.498  0.4391 -0.0192  0.1946
 1435TIP3    H125796   1.009   1.078   6.525  0.2002 -0.5428  0.9557
 1435TIP3    H225797   0.900   1.175   6.485  1.5524 -0.0540 -1.6372
 1436TIP3   OH225798   3.995   3.583  15.456  0.2460 -0.0171 -0.2755
 1436TIP3    H125799   4.037   3.630  15.528  0.2729 -0.6529  0.1287
 1436TIP3    H225800   3.997   3.645  15.383 -2.1653  1.6332  0.9903
 1437TIP3   OH225801   3.061   0.224  14.903  0.3405 -0.3088  0.1183
 1437TIP3    H125802   3.144   0.271  14.903 -0.3211  0.9161  2.6379
 1437TIP3    H225803   3.007   0.272  14.840  0.4119  0.9932  1.0249
 1438TIP3   OH225804   3.924   1.728   5.158  0.1458 -0.0477  0.0044
 1438TIP3    H125805   3.972   1.788   5.101 -1.3978  1.0085 -0.2129
 1438TIP3    H225806   3.893   1.783   5.230  1.2206 -1.1773  1.3513
 1439TIP3   OH225807   3.769   1.524   0.556  0.5729  0.6053  0.1226
 1439TIP3    H125808   3.837   1.470   0.515  0.1649  0.0636  0.1540
 1439TIP3    H225809   3.817   1.591   0.604  1.0866  0.0993  0.3131
 1440TIP3   OH225810   2.346   4.034   5.545  0.1599 -0.2592  0.4000
 1440TIP3    H125811   2.277   4.095   5.573 -0.5286  0.1947 -2.1788
 1440TIP3    H225812   2.400   4.086   5.485  0.1820 -1.8894 -1.0098
 1441TIP3   OH225813   2.503   1.449  12.382 -0.2201 -0.2464  0.4479
 1441TIP3    H125814   2.588   1.461  12.425  0.3221  2.3845 -1.2800
 1441TIP3    H225815   2.454   1.529  12.403 -2.3436 -1.7866  1.5213
 1442TIP3   OH225816   6.358   3.980  11.842  0.3137 -0.4009  0.0991
 1442TIP3    H125817   6.298   4.036  11.792 -0.1532 -0.3522  0.7188
 1442TIP3    H225818   6.315   3.895  11.845  0.6536 -0.5844 -0.1448
 1443TIP3   OH225819   1.787   5.255   3.904 -0.4969  0.1011 -1.1523
 1443TIP3    H125820   1.713   5.223   3.956  0.2754  0.2300  0.0674
 1443TIP3    H225821   1.809   5.182   3.846  0.2340 -1.0402  0.5018
 1444TIP3   OH225822   2.833   6.791   5.685 -0.5195 -0.3254  0.7444
 1444TIP3    H125823   2.785   6.715   5.651 -1.5754 -0.0308  1.5259
 1444TIP3    H225824   2.871   6.759   5.767  0.9363 -0.6597 -0.0479
 1445TIP3   OH225825   5.024   6.795   2.448  0.3039  0.0653 -0.6592
 1445TIP3    H125826   5.042   6.711   2.405  2.4939 -0.1863  0.6547
 1445TIP3    H225827   4.983   6.770   2.531 -3.4932  0.5312 -2.2701
 1446TIP3   OH225828   6.377   4.600  13.569 -0.3012 -0.2239 -0.0842
 1446TIP3    H125829   6.397   4.694  13.573 -1.4224  0.0737 -1.1618
 1446TIP3    H225830   6.379   4.571  13.660 -0.0047  0.8627  0.2643
 1447TIP3   OH225831   1.802   2.640  16.882 -0.5193  0.5938  0.3651
 1447TIP3    H125832   1.807   2.721  16.931  2.3308 -0.6417  2.2764
 1447TIP3    H225833   1.821   2.572  16.946  0.2951 -1.3207 -1.8232
 1448TIP3   OH225834   2.116   5.520  13.682  0.2230  0.3133  0.7486
 1448TIP3    H125835   2.171   5.572  13.741 -0.8892  2.9732 -0.4637
 1448TIP3    H225836   2.027   5.537  13.712 -0.2121 -0.2978 -0.1681
 1449TIP3   OH225837   5.066   6.063   3.087  0.7748  0.3455  0.6896
 1449TIP3    H125838   5.051   6.008   3.010  0.6844 -0.4568  1.2624
 1449TIP3    H225839   5.058   6.153   3.055  1.9223  0.0536 -0.4868
 1450TIP3   OH225840   1.168   2.603  16.177 -0.0844 -0.4670 -0.3918
 1450TIP3    H125841   1.122   2.657  16.241  1.7388 -1.2379  1.6182
 1450TIP3    H225842   1.100   2.547  16.140 -1.4975  1.2784 -0.5161
 1451TIP3   OH225843   4.234   2.606  13.226  0.1519 -0.1629 -0.3252
 1451TIP3    H125844   4.323   2.572  13.231 -0.8465 -2.9828 -0.4008
 1451TIP3    H225845   4.186   2.558  13.294 -1.4926  0.6968 -0.8384
 1452TIP3   OH225846   0.744   1.306   2.534  0.4662  0.7246  0.0689
 1452TIP3    H125847   0.817   1.246   2.520  2.8137  3.8112 -1.6570
 1452TIP3    H225848   0.755   1.337   2.624 -0.2691 -0.8137  0.6854
 1453TIP3   OH225849   6.056   0.514  11.824  0.2223 -0.3402 -0.2829
 1453TIP3    H125850   6.078   0.545  11.737  1.2427 -1.6878 -0.5240
 1453TIP3    H225851   6.117   0.560  11.882  2.2036 -2.2999 -0.7093
 1454TIP3   OH225852   5.260   4.761  10.514  0.5115 -0.4348  0.3163
 1454TIP3    H125853   5.254   4.722  10.427 -1.9172  1.5648 -0.5109
 1454TIP3    H225854   5.349   4.743  10.543  1.2865 -1.3921 -2.4742
 1455TIP3   OH225855   4.197   2.781  16.674 -0.0349 -0.0339 -0.3438
 1455TIP3    H125856   4.183   2.864  16.721  2.5048  0.7856 -0.9918
 1455TIP3    H225857   4.208   2.716  16.744  0.3473  0.5926  0.1830
 1456TIP3   OH225858   6.340   5.586  16.599  0.2044  0.2973 -0.0868
 1456TIP3    H125859   6.296   5.600  16.682 -0.2590  0.8390 -0.4237
 1456TIP3    H225860   6.303   5.651  16.540  0.3319 -0.2610 -0.7956
 1457TIP3   OH225861   2.562   3.304   4.233 -0.0328 -0.0212  0.1011
 1457TIP3    H125862   2.578   3.387   4.279  0.6062 -0.2922  0.3699
 1457TIP3    H225863   2.540   3.330   4.144 -1.3266  0.5153  0.5565
 1458TIP3   OH225864   6.382   2.416  13.177  0.0690 -0.5034 -0.7672
 1458TIP3    H125865   6.366   2.344  13.117  2.5182 -2.0264  0.3104
 1458TIP3    H225866   6.476   2.412  13.194  0.0012  2.0972  0.3965
 1459TIP3   OH225867   3.243   0.383  11.246 -0.0036 -0.4905 -0.2257
 1459TIP3    H125868   3.256   0.378  11.151  0.2602 -1.6581 -0.1422
 1459TIP3    H225869   3.156   0.421  11.257  1.3599  3.0158 -0.8613
 1460TIP3   OH225870   4.647   4.399  14.779 -0.1291 -0.4421 -0.2238
 1460TIP3    H125871   4.646   4.343  14.701 -2.6937 -0.6695 -0.0932
 1460TIP3    H225872   4.725   4.371  14.827  0.3491 -1.7446 -1.6815
 1461TIP3   OH225873   6.747   5.715  15.714  0.1060 -0.1595  0.6369
 1461TIP3    H125874   6.702   5.800  15.711  0.2052 -0.0918  0.9891
 1461TIP3    H225875   6.789   5.707  15.629  0.0151  0.1039  0.5664
 1462TIP3   OH225876   1.207   4.874  15.787 -0.1323 -0.3556  0.0024
 1462TIP3    H125877   1.130   4.864  15.843  1.8150 -2.8499  2.3824
 1462TIP3    H225878   1.212   4.791  15.739  0.5485  0.1608 -0.8364
 1463TIP3   OH225879   2.279   0.582  12.413  0.0888  0.7852  0.4458
 1463TIP3    H125880   2.213   0.617  12.473 -1.7960 -0.0905 -1.0701
 1463TIP3    H225881   2.237   0.583  12.327  0.6738 -3.1891  0.0084
 1464TIP3   OH225882   1.084   3.300  16.370  0.9057 -0.2212  0.2348
 1464TIP3    H125883   1.148   3.308  16.300  0.3090 -2.5268 -0.5923
 1464TIP3    H225884   1.054   3.390  16.386  2.5240  0.5561 -1.0485
 1465TIP3   OH225885   0.211   3.497  13.788 -0.1805 -0.0607 -0.0432
 1465TIP3    H125886   0.200   3.588  13.814  0.0142  0.1514 -0.7049
 1465TIP3    H225887   0.124   3.468  13.760 -0.1071  0.1142 -0.4521
 1466TIP3   OH225888   6.562   4.172  16.412  0.2049 -0.1912 -0.2760
 1466TIP3    H125889   6.545   4.216  16.329 -0.6968 -0.1553 -0.0772
 1466TIP3    H225890   6.656   4.186  16.428  0.1300  0.8350 -0.6874
 1467TIP3   OH225891   0.895   0.326   0.729 -0.2714 -0.2917 -0.1647
 1467TIP3    H125892   0.879   0.418   0.707 -0.9453 -0.1092  1.0582
 1467TIP3    H225893   0.813   0.282   0.705  0.1121 -0.6192 -0.9128
 1468TIP3   OH225894   1.382   4.523  13.562  0.3069  0.3199  0.2203
 1468TIP3    H125895   1.356   4.519  13.470  0.3264  0.4580  0.2082
 1468TIP3    H225896   1.448   4.455  13.571  0.3480  0.3464  0.1195
 1469TIP3   OH225897   6.346   4.041  14.812 -0.0629 -0.2552  0.0144
 1469TIP3    H125898   6.334   4.117  14.755 -2.1449 -0.0253  0.7314
 1469TIP3    H225899   6.423   4.062  14.864  0.4697  0.5549 -1.0734
 1470TIP3   OH225900   0.161   2.882   1.902  0.5342  0.0694  0.0434
 1470TIP3    H125901   0.118   2.796   1.902 -0.2484  0.4563  0.3458
 1470TIP3    H225902   0.149   2.915   1.991  0.3957  0.7054 -0.2081
 1471TIP3   OH225903   5.613   3.192   0.773  0.4733  0.2001  0.2013
 1471TIP3    H125904   5.635   3.211   0.682 -1.5696 -0.4195 -0.4359
 1471TIP3    H225905   5.619   3.097   0.780  0.2895  0.2156  0.6284
 1472TIP3   OH225906   1.593   4.024   2.727 -0.2753  0.3283 -0.0767
 1472TIP3    H125907   1.597   3.972   2.806 -2.0599  1.6150  0.9055
 1472TIP3    H225908   1.672   4.001   2.678  0.2313 -1.3615  1.5087
 1473TIP3   OH225909   1.487   2.973   6.252  0.3555  0.6680  0.2792
 1473TIP3    H125910   1.504   2.914   6.326  0.4920  1.5096  0.9151
 1473TIP3    H225911   1.460   2.914   6.181 -1.3953 -0.0309  1.4699
 1474TIP3   OH225912   2.743   0.473  15.742 -0.0438 -0.4967  0.3407
 1474TIP3    H125913   2.788   0.525  15.808 -2.4107  0.0411  1.6136
 1474TIP3    H225914   2.756   0.383  15.769  0.7245 -0.3819  0.3678
 1475TIP3   OH225915   0.908   6.394   0.814  0.1023  0.5208  0.1490
 1475TIP3    H125916   0.825   6.429   0.846  0.4614  1.9156 -0.4036
 1475TIP3    H225917   0.975   6.449   0.855  0.8733 -1.9121  2.2574
 1476TIP3   OH225918   6.322   2.674   6.120  0.1855 -0.2558 -0.0673
 1476TIP3    H125919   6.383   2.627   6.176 -1.4775 -1.2038  0.9930
 1476TIP3    H225920   6.348   2.765   6.127  1.7619 -0.6994  0.0019
 1477TIP3   OH225921   3.356   5.438   0.276  1.0438 -0.3242  0.3283
 1477TIP3    H125922   3.283   5.405   0.328  0.8393 -0.4857 -0.0554
 1477TIP3    H225923   3.380   5.365   0.218  0.9308  0.0172 -0.1581
 1478TIP3   OH225924   0.212   6.273  16.493 -0.5097 -0.1468  0.1265
 1478TIP3    H125925   0.230   6.367  16.484  0.8197 -0.5116 -1.1928
 1478TIP3    H225926   0.120   6.265  16.468  0.0340  0.4862 -2.1887
 1479TIP3   OH225927   2.634   3.165  16.302 -0.2372  0.8153 -0.6458
 1479TIP3    H125928   2.565   3.210  16.351  1.2727 -0.2174  2.5550
 1479TIP3    H225929   2.618   3.072  16.318  2.4899  0.5821  1.0820
 1480TIP3   OH225930   1.169   2.946   0.374 -0.4010 -0.3640 -0.6827
 1480TIP3    H125931   1.249   2.896   0.391  0.6070  1.6797  0.7305
 1480TIP3    H225932   1.113   2.929   0.450 -0.4486 -0.0892 -0.6567
 1481TIP3   OH225933   6.268   4.317  12.007 -0.4300  0.0570 -0.5052
 1481TIP3    H125934   6.282   4.402  12.048  0.9938 -0.8973  1.0305
 1481TIP3    H225935   6.356   4.286  11.986 -0.8965 -1.4047 -0.3125
 1482TIP3   OH225936   5.605   6.631  16.863  0.1386  0.4719  0.1239
 1482TIP3    H125937   5.598   6.567  16.933 -0.6975  0.7389  0.2930
 1482TIP3    H225938   5.676   6.689  16.890 -0.0984  0.5014  0.6944
 1483TIP3   OH225939   6.096   2.069   2.305  0.3437  0.3089 -0.5721
 1483TIP3    H125940   6.010   2.080   2.263  0.9536  2.4537 -1.3182
 1483TIP3    H225941   6.140   2.003   2.252 -0.4062  0.0381 -0.8698
 1484TIP3   OH225942   0.754   3.832  11.944  0.1970  0.0249  0.0094
 1484TIP3    H125943   0.696   3.808  12.017  0.7608  0.0727  0.4821
 1484TIP3    H225944   0.695   3.866  11.877 -0.2676  0.7063  0.7443
 1485TIP3   OH225945   2.425   3.115  16.721 -0.0177 -0.0070 -0.0447
 1485TIP3    H125946   2.422   3.030  16.677  1.0401 -1.0822  1.8860
 1485TIP3    H225947   2.508   3.114  16.770 -0.0947  2.0493  0.1815
 1486TIP3   OH225948   0.454   0.169  14.404 -0.7083 -0.0725 -0.3878
 1486TIP3    H125949   0.457   0.163  14.309  0.6459  2.1148 -0.5084
 1486TIP3    H225950   0.539   0.204  14.429 -1.3298  0.1225  1.5851
 1487TIP3   OH225951   6.614   0.065   4.952 -0.0874  0.1956 -0.4765
 1487TIP3    H125952   6.687   0.011   4.920  0.3823  0.1177  0.7100
 1487TIP3    H225953   6.539   0.037   4.899  0.4065 -0.8023 -0.6597
 1488TIP3   OH225954   4.609   4.790  16.833 -0.3528  0.2993 -0.0450
 1488TIP3    H125955   4.519   4.755  16.827  0.4544 -2.2878  1.8266
 1488TIP3    H225956   4.652   4.759  16.754 -0.7412  0.4088 -0.3011
 1489TIP3   OH225957   1.286   4.671   1.118  0.5233 -0.0413 -0.2522
 1489TIP3    H125958   1.323   4.608   1.057 -0.6257 -1.5213  0.5244
 1489TIP3    H225959   1.262   4.747   1.064  1.7655 -0.3339 -1.2206
 1490TIP3   OH225960   0.521   6.691   5.493 -0.2142  0.0569  0.0382
 1490TIP3    H125961   0.513   6.722   5.584 -1.7479 -1.3250  0.4032
 1490TIP3    H225962   0.561   6.604   5.502 -0.2514 -0.0241 -0.6145
 1491TIP3   OH225963   4.356   3.006   3.645  0.7080 -0.3270 -0.3055
 1491TIP3    H125964   4.303   2.967   3.575  0.5793 -1.2038  0.2675
 1491TIP3    H225965   4.381   2.931   3.700 -0.0345  0.4670  1.1359
 1492TIP3   OH225966   4.619   0.660  16.135 -0.5220 -0.0928 -0.0958
 1492TIP3    H125967   4.556   0.732  16.136  0.2281  0.5682 -0.2598
 1492TIP3    H225968   4.643   0.648  16.226 -0.7390 -0.2129 -0.0546
 1493TIP3   OH225969   1.129   6.151  13.431  0.1182  0.3439 -0.3375
 1493TIP3    H125970   1.147   6.172  13.339 -0.4199  2.8519  0.1132
 1493TIP3    H225971   1.194   6.200  13.480  0.3015 -0.8667  0.6652
 1494TIP3   OH225972   4.180   3.906   1.541  0.3565 -0.4052 -0.1003
 1494TIP3    H125973   4.239   3.966   1.586 -0.2369  0.6157 -0.6454
 1494TIP3    H225974   4.186   3.824   1.590  3.3503 -0.8079 -1.0306
 1495TIP3   OH225975   6.248   5.321  13.187  0.4023 -0.8519  0.0220
 1495TIP3    H125976   6.231   5.240  13.234  0.2109 -0.7401  0.1492
 1495TIP3    H225977   6.177   5.327  13.123 -0.2045 -0.2434  0.7392
 1496TIP3   OH225978   4.730   4.174   4.729  0.0840  0.6918  0.7781
 1496TIP3    H125979   4.806   4.144   4.779  0.8941 -0.7680 -1.2813
 1496TIP3    H225980   4.755   4.260   4.697  0.8536  0.2219  0.1234
 1497TIP3   OH225981   4.544   1.416  11.061  0.6348 -0.5931  0.7311
 1497TIP3    H125982   4.505   1.343  11.014  2.0961 -0.7077 -0.3703
 1497TIP3    H225983   4.488   1.491  11.042  0.5908 -0.8872 -0.3027
 1498TIP3   OH225984   0.851   0.257  12.561  0.1548 -0.1792 -0.6346
 1498TIP3    H125985   0.872   0.325  12.498  0.9258 -0.6956 -0.9318
 1498TIP3    H225986   0.822   0.182  12.508  0.5033 -0.5075 -0.3607
 1499TIP3   OH225987   0.989   0.872   3.458  0.0562 -0.1139  0.2545
 1499TIP3    H125988   0.918   0.878   3.394  0.5362 -0.1452 -0.2886
 1499TIP3    H225989   1.067   0.901   3.410  0.3078  0.4788  1.0151
 1500TIP3   OH225990   4.661   3.172   0.242  0.0988 -0.3383  0.6173
 1500TIP3    H125991   4.628   3.082   0.239 -0.5267 -0.1363  1.2779
 1500TIP3    H225992   4.748   3.167   0.202 -0.2779 -1.0806 -0.1440
 1501TIP3   OH225993   2.779   1.767   0.336  0.4243 -0.8030  0.4904
 1501TIP3    H125994   2.845   1.746   0.403  0.3161 -0.2516  0.7795
 1501TIP3    H225995   2.830   1.782   0.257  0.6910 -0.0431  0.7944
 1502TIP3   OH225996   2.724   4.415   2.583 -0.0494  0.6681  0.0922
 1502TIP3    H125997   2.682   4.478   2.525  0.8926  0.9786 -0.2675
 1502TIP3    H225998   2.783   4.365   2.527 -0.0932  0.0934  0.5457
 1503TIP3   OH225999   4.780   5.810  15.824 -0.0718  0.0028 -0.5675
 1503TIP3    H126000   4.871   5.779  15.828 -0.3319 -0.7852 -0.5459
 1503TIP3    H226001   4.744   5.787  15.910 -0.2899  0.3034 -0.5792
 1504TIP3   OH226002   5.330   0.057  15.780 -0.1854 -0.0839  0.2293
 1504TIP3    H126003   5.337  -0.036  15.757  0.6475 -0.1687  0.8267
 1504TIP3    H226004   5.338   0.059  15.876 -1.9513  0.4349  0.3844
 1505TIP3   OH226005   1.253   6.521   5.456  0.2032  0.6637 -0.4399
 1505TIP3    H126006   1.262   6.461   5.530  1.4880  2.3754  0.8264
 1505TIP3    H226007   1.186   6.480   5.401  0.8320 -1.7685  0.5192
 1506TIP3   OH226008   1.810   4.038   5.744 -0.3077  0.4898 -0.6038
 1506TIP3    H126009   1.721   4.031   5.779  0.2591 -1.1059  0.5772
 1506TIP3    H226010   1.811   3.979   5.669  0.0795 -0.3993  0.0924
 1507TIP3   OH226011   2.837   0.153   4.141 -0.0699  0.1904  0.0063
 1507TIP3    H126012   2.905   0.183   4.080 -1.9475  0.1462 -2.1579
 1507TIP3    H226013   2.774   0.225   4.144  0.6092  0.7053  2.9038
 1508TIP3   OH226014   3.531   5.177  15.499  0.8090  0.3515 -0.2333
 1508TIP3    H126015   3.599   5.164  15.433  1.9055  1.4425  0.6706
 1508TIP3    H226016   3.544   5.107  15.562  1.0702  0.5369 -0.0813
 1509TIP3   OH226017   5.532   4.714  14.699 -0.0843 -0.4582 -0.2363
 1509TIP3    H126018   5.627   4.723  14.703 -0.3352  2.0059  0.4882
 1509TIP3    H226019   5.509   4.666  14.779  0.4889 -0.7454 -0.2431
 1510TIP3   OH226020   6.723   5.409   0.573  0.3056 -0.2395  0.1616
 1510TIP3    H126021   6.749   5.486   0.624  0.8901  0.6700 -1.4559
 1510TIP3    H226022   6.627   5.412   0.573  0.3278  1.1367 -0.8046
 1511TIP3   OH226023   5.944   5.984   0.792 -0.2143 -0.1833  0.5887
 1511TIP3    H126024   5.885   5.910   0.803 -0.7472  0.1245 -0.1702
 1511TIP3    H226025   5.887   6.061   0.795  0.5324  0.3128  3.1553
 1512TIP3   OH226026   5.642   0.127  16.359  0.6282  0.7833 -0.0202
 1512TIP3    H126027   5.712   0.160  16.416  1.2053  1.6874 -1.2391
 1512TIP3    H226028   5.655   0.032  16.359 -0.0736  0.6500  2.2451
 1513TIP3   OH226029   5.677   5.209  12.873 -0.3102  0.2884 -0.1510
 1513TIP3    H126030   5.698   5.190  12.782 -0.9825 -0.0366 -0.2468
 1513TIP3    H226031   5.583   5.229  12.872 -0.1344  1.1380  0.3428
 1514TIP3   OH226032   2.458   5.293  14.989  0.6496  0.7958  0.1809
 1514TIP3    H126033   2.493   5.356  14.925  1.0111  0.4299  0.0126
 1514TIP3    H226034   2.447   5.344  15.069  0.2516  1.2446 -0.1552
 1515TIP3   OH226035   5.447   2.023  15.730  0.1929  0.0214  0.5087
 1515TIP3    H126036   5.422   2.114  15.743  1.0772  0.2865  0.3794
 1515TIP3    H226037   5.372   1.972  15.763 -1.1752  0.8071 -1.2584
 1516TIP3   OH226038   1.188   4.773   3.475  0.4654  0.2856  0.2104
 1516TIP3    H126039   1.221   4.726   3.552 -0.0687 -0.1155  0.1983
 1516TIP3    H226040   1.233   4.732   3.401  0.8911  0.5926  0.2973
 1517TIP3   OH226041   1.943   5.935  16.966  0.4921 -0.0666 -0.2667
 1517TIP3    H126042   1.875   5.939  17.033  0.4372  1.5677 -0.3906
 1517TIP3    H226043   1.908   5.876  16.900 -2.3753  3.3473 -1.9867
 1518TIP3   OH226044   3.879   6.668  12.982 -0.1766 -0.6890 -0.5780
 1518TIP3    H126045   3.785   6.658  12.974 -0.5486 -0.3715  2.5171
 1518TIP3    H226046   3.907   6.592  13.033  1.1095 -0.3455 -0.7485
 1519TIP3   OH226047   5.710   5.689   1.548  0.7231  0.1581 -0.2712
 1519TIP3    H126048   5.793   5.688   1.596  0.0740  0.1569  0.8595
 1519TIP3    H226049   5.684   5.781   1.548 -0.4087 -0.1408  1.3635
 1520TIP3   OH226050   0.411   1.857  10.932 -0.2405  0.3161 -0.3636
 1520TIP3    H126051   0.329   1.906  10.937 -1.0189 -0.9156 -0.8799
 1520TIP3    H226052   0.449   1.883  10.848 -0.7219 -0.0753 -0.7035
 1521TIP3   OH226053   0.829   3.461  11.093  0.2216  0.0320 -0.1521
 1521TIP3    H126054   0.791   3.501  11.015  0.7553  2.1074  0.6182
 1521TIP3    H226055   0.758   3.410  11.131 -0.1063 -0.8105 -1.8586
 1522TIP3   OH226056   3.047   6.019   1.831  0.1618 -0.0196 -0.1027
 1522TIP3    H126057   2.976   6.076   1.861 -1.3699 -1.7875 -0.3353
 1522TIP3    H226058   3.108   6.018   1.905 -0.5373  0.6841  0.5016
 1523TIP3   OH226059   1.830   5.929   3.945 -0.0194 -0.3857  0.2086
 1523TIP3    H126060   1.751   5.876   3.937 -1.0838  0.7883  2.5669
 1523TIP3    H226061   1.879   5.889   4.017  1.4080 -0.9266 -1.0423
 1524TIP3   OH226062   1.785   2.368  12.836 -0.0531 -0.4539  0.3585
 1524TIP3    H126063   1.869   2.409  12.816  0.1743 -1.1140 -0.0745
 1524TIP3    H226064   1.808   2.282  12.872 -0.5672 -1.8223 -2.4507
 1525TIP3   OH226065   6.810   0.043  15.005 -0.6004  0.4010  0.5718
 1525TIP3    H126066   6.740  -0.018  15.028  0.2167 -0.0228  2.0386
 1525TIP3    H226067   6.819   0.099  15.082 -0.7011  1.7753 -0.4029
 1526TIP3   OH226068   3.610   0.137  11.940 -0.4122  0.1802  0.0208
 1526TIP3    H126069   3.655   0.122  12.023  0.3753 -0.0944 -0.4533
 1526TIP3    H226070   3.525   0.095  11.951  0.8500 -2.6040 -0.4433
 1527TIP3   OH226071   1.461   5.949  11.207 -0.1235  0.1630  0.4668
 1527TIP3    H126072   1.514   6.028  11.219  1.5800 -0.7562 -0.7867
 1527TIP3    H226073   1.503   5.903  11.134 -0.5418 -2.3556  1.7579
 1528TIP3   OH226074   6.760   3.850  13.120 -0.0296  0.1241 -0.0422
 1528TIP3    H126075   6.852   3.836  13.096  0.5865  2.3489  0.8638
 1528TIP3    H226076   6.720   3.885  13.041 -0.0528 -0.6274 -0.3711
 1529TIP3   OH226077   4.949   1.426   5.738  0.0216 -0.3146  0.4747
 1529TIP3    H126078   4.890   1.498   5.760 -0.8962 -0.4383 -1.4979
 1529TIP3    H226079   4.894   1.348   5.747  0.2506 -0.5403 -0.1170
 1530TIP3   OH226080   0.028   0.571  10.654 -0.7847  0.1511 -0.4730
 1530TIP3    H126081   0.016   0.526  10.570  0.5854 -2.1282  0.4990
 1530TIP3    H226082   0.011   0.503  10.719 -0.6766  1.6012  1.0856
 1531TIP3   OH226083   6.359   3.096  14.247  0.1741 -0.2313 -0.8942
 1531TIP3    H126084   6.329   3.052  14.167 -2.0031  0.7614 -0.6848
 1531TIP3    H226085   6.347   3.032  14.316 -0.6204 -0.1749 -0.9669
 1532TIP3   OH226086   6.371   2.577   5.815  0.0225  0.2563  0.5958
 1532TIP3    H126087   6.371   2.505   5.879  1.1937  1.4823  2.0304
 1532TIP3    H226088   6.356   2.655   5.868  1.6604  1.3684 -0.5380
 1533TIP3   OH226089   5.962   6.086  15.460  0.1375  0.8102  0.0297
 1533TIP3    H126090   6.034   6.037  15.500 -1.6117 -1.8722  0.0036
 1533TIP3    H226091   5.955   6.166  15.513  1.5198 -0.0577  1.5474
 1534TIP3   OH226092   2.912   5.102  16.233  0.0899 -0.4159 -0.5951
 1534TIP3    H126093   2.940   5.011  16.226 -1.1129 -0.8824  0.4427
 1534TIP3    H226094   2.818   5.097  16.247  0.0697  0.9811 -0.1561
 1535TIP3   OH226095   1.814   1.086  13.633  0.6091 -0.0052 -0.5713
 1535TIP3    H126096   1.829   1.050  13.720 -0.9088  0.2722 -0.1809
 1535TIP3    H226097   1.751   1.157  13.647  0.3749  0.0622 -1.8867
 1536TIP3   OH226098   3.672   4.508  15.862  0.1598 -0.4004  0.8885
 1536TIP3    H126099   3.729   4.533  15.790 -0.6740 -1.1621 -0.0367
 1536TIP3    H226100   3.592   4.477  15.821 -1.0723  0.9735  2.1968
 1537TIP3   OH226101   0.607   6.016  12.006 -0.1826 -0.0994  0.5892
 1537TIP3    H126102   0.521   6.012  11.962  0.3229  1.1908 -0.5611
 1537TIP3    H226103   0.640   5.927  12.002 -0.0770  0.0154 -1.8618
 1538TIP3   OH226104   1.341   6.366   1.631  0.1043 -0.3424 -0.6130
 1538TIP3    H126105   1.418   6.383   1.575 -1.0881 -1.6604 -2.7277
 1538TIP3    H226106   1.292   6.448   1.629  0.5551 -0.0720 -0.7472
 1539TIP3   OH226107   1.975   2.697   3.780 -0.1004 -0.2670 -0.0145
 1539TIP3    H126108   1.880   2.682   3.776 -0.1958  0.2116  0.3173
 1539TIP3    H226109   1.991   2.765   3.716 -0.4433  1.7764  1.9924
 1540TIP3   OH226110   1.343   4.819   1.764 -0.0333 -0.1681 -0.4862
 1540TIP3    H126111   1.252   4.837   1.740 -0.8910  0.3348  2.9077
 1540TIP3    H226112   1.380   4.905   1.782  1.4611 -0.2816 -2.7550
 1541TIP3   OH226113   5.258   5.894   0.629 -0.1257  0.6467 -0.0423
 1541TIP3    H126114   5.301   5.864   0.549 -0.9292  0.0428 -0.2428
 1541TIP3    H226115   5.308   5.972   0.655  1.0275  0.0155 -0.3411
 1542TIP3   OH226116   3.492   5.199  13.879 -0.1431  0.4322  0.0068
 1542TIP3    H126117   3.537   5.173  13.799  1.0257  0.2049  0.7105
 1542TIP3    H226118   3.562   5.233  13.936 -0.4773 -1.9700  1.9535
 1543TIP3   OH226119   2.142   3.317  13.485 -0.5086  0.0939  0.0030
 1543TIP3    H126120   2.173   3.379  13.550 -0.0794  0.6753 -0.7391
 1543TIP3    H226121   2.140   3.233  13.530  1.2739  0.2062  0.3399
 1544TIP3   OH226122   1.492   2.819  16.484  0.4740 -0.1431 -0.3315
 1544TIP3    H126123   1.422   2.866  16.438 -1.7120 -1.1377  1.8597
 1544TIP3    H226124   1.521   2.880  16.552  0.3946 -0.4266 -0.0412
 1545TIP3   OH226125   5.946   0.606   0.528 -0.7022  0.2067  0.1496
 1545TIP3    H126126   5.986   0.560   0.601 -0.6185  0.6853  0.4069
 1545TIP3    H226127   5.925   0.693   0.563 -0.2734  0.5824 -0.5127
 1546TIP3   OH226128   1.562   6.370  12.488  0.3192  0.3347 -0.0518
 1546TIP3    H126129   1.644   6.413  12.466  0.4876  0.0049 -0.0734
 1546TIP3    H226130   1.550   6.304  12.419  1.7589 -1.9357  1.8059
 1547TIP3   OH226131   6.174   4.063  13.555 -0.1632 -0.4358  0.1528
 1547TIP3    H126132   6.174   4.158  13.551  0.0155 -0.5175 -2.0700
 1547TIP3    H226133   6.081   4.039  13.551 -0.2013 -0.3730  0.5954
 1548TIP3   OH226134   0.893   4.201  14.970  0.1428 -0.0018  0.0508
 1548TIP3    H126135   0.911   4.260  14.897 -0.9660  1.5394  0.9971
 1548TIP3    H226136   0.969   4.142  14.972  1.2117  1.2944 -1.0054
 1549TIP3   OH226137   1.958   1.209  16.992 -1.1568 -0.7561  0.8430
 1549TIP3    H126138   2.038   1.254  17.021 -1.1608  0.6200 -1.2041
 1549TIP3    H226139   1.890   1.242  17.050 -0.8268  0.5616  0.5006
 1550TIP3   OH226140   4.652   0.972   0.745 -0.0052  0.8011  0.5513
 1550TIP3    H126141   4.591   1.046   0.751 -0.1320  0.7954 -0.6041
 1550TIP3    H226142   4.724   0.996   0.804 -0.3491  1.5476  0.6766
 1551TIP3   OH226143   1.604   6.810   1.834 -0.6670 -0.0700 -0.5945
 1551TIP3    H126144   1.567   6.807   1.922  1.2773 -2.9274  0.1981
 1551TIP3    H226145   1.693   6.844   1.846 -0.1564 -1.1098 -1.3553
 1552TIP3   OH226146   3.410   0.244  15.512 -0.3078 -0.2418 -0.1185
 1552TIP3    H126147   3.383   0.299  15.586 -1.4277  0.3962 -0.9907
 1552TIP3    H226148   3.505   0.253  15.510 -0.1617 -1.1575  1.9305
 1553TIP3   OH226149   0.291   0.959  13.328  0.0465 -0.1908 -0.0362
 1553TIP3    H126150   0.336   1.022  13.271 -0.1799  0.5233  0.5687
 1553TIP3    H226151   0.340   0.877  13.317  0.5223  0.1693 -0.6038
 1554TIP3   OH226152   0.861   3.353  15.731  0.1830  0.2868  0.1818
 1554TIP3    H126153   0.801   3.420  15.766  0.5687  0.7389 -0.0183
 1554TIP3    H226154   0.809   3.273  15.731 -0.4369  0.6830 -0.0231
 1555TIP3   OH226155   0.824   6.741   2.109 -0.1719  0.5020  0.8009
 1555TIP3    H126156   0.732   6.742   2.085 -0.1726 -2.1102  0.5127
 1555TIP3    H226157   0.847   6.833   2.121 -2.7716  1.1882  0.7848
 1556TIP3   OH226158   5.608   4.446  15.094  0.6944 -0.2292 -0.0565
 1556TIP3    H126159   5.593   4.397  15.174  0.6911 -0.0118  0.0781
 1556TIP3    H226160   5.662   4.389  15.040 -0.1466 -0.7825 -0.3148
 1557TIP3   OH226161   1.793   0.357   5.013 -0.2916  0.5288 -0.7303
 1557TIP3    H126162   1.815   0.451   5.014  0.6212  0.3032  0.4333
 1557TIP3    H226163   1.876   0.313   4.996 -0.6537 -0.0896 -0.8995
 1558TIP3   OH226164   0.549   4.071  13.635  0.6078 -0.0601  0.1946
 1558TIP3    H126165   0.543   3.989  13.683  0.1153  0.3740  0.8824
 1558TIP3    H226166   0.516   4.050  13.547 -0.5974 -0.3270  0.7023
 1559TIP3   OH226167   1.879   6.028  12.231 -0.6653 -0.2951  0.3854
 1559TIP3    H126168   1.942   5.976  12.281 -0.8453 -0.9216 -0.0209
 1559TIP3    H226169   1.854   5.970  12.158 -0.0289  0.7787 -0.7066
 1560TIP3   OH226170   0.600   4.583   4.904  0.2217 -0.0215  0.3766
 1560TIP3    H126171   0.564   4.501   4.936 -2.4083  1.6199  1.7953
 1560TIP3    H226172   0.529   4.647   4.916  1.8337  2.2448 -1.6379
 1561TIP3   OH226173   5.652   6.235  15.394 -0.2298 -0.3761 -0.2254
 1561TIP3    H126174   5.683   6.149  15.422  1.2476  0.0892 -0.4172
 1561TIP3    H226175   5.697   6.251  15.311 -0.5537  0.5555 -0.2255
 1562TIP3   OH226176   5.295   6.254   1.069 -0.3144  0.1864  0.0062
 1562TIP3    H126177   5.383   6.289   1.066 -0.1220 -0.3639 -1.0104
 1562TIP3    H226178   5.250   6.293   0.994 -0.4258 -0.8600 -0.4810
 1563TIP3   OH226179   5.259   3.729  17.187  0.4943 -0.6773 -0.0202
 1563TIP3    H126180   5.212   3.663  17.137 -0.6481  0.2644 -0.2023
 1563TIP3    H226181   5.312   3.776  17.122 -0.5605  0.1763 -0.2817
 1564TIP3   OH226182   5.733   5.148  16.590 -0.3508 -0.0575  0.0269
 1564TIP3    H126183   5.668   5.078  16.590  0.8093 -1.1560  1.0012
 1564TIP3    H226184   5.762   5.155  16.499 -0.7811 -0.5571 -0.1433
 1565TIP3   OH226185   1.564   2.308  15.148  0.3462 -0.1471 -0.5962
 1565TIP3    H126186   1.595   2.384  15.098  1.2268 -0.5404 -0.6695
 1565TIP3    H226187   1.641   2.251  15.154 -0.5628 -1.4553 -1.3412
 1566TIP3   OH226188   4.625   3.855  17.198 -0.2325  0.1044 -0.0529
 1566TIP3    H126189   4.626   3.760  17.202  0.4468  0.1038 -0.1841
 1566TIP3    H226190   4.666   3.877  17.114 -0.3101  0.5119  0.0138
 1567TIP3   OH226191   3.425   3.010   3.173 -0.3070 -0.6159  0.4399
 1567TIP3    H126192   3.510   3.042   3.204  0.0815 -1.0605 -0.1609
 1567TIP3    H226193   3.379   2.982   3.253 -0.1821  0.3135  0.8430
 1568TIP3   OH226194   1.970   1.827   0.351  0.0461 -0.0877 -0.0052
 1568TIP3    H126195   2.064   1.821   0.370  0.0028 -1.7455 -0.2808
 1568TIP3    H226196   1.965   1.876   0.270  0.6647  0.2143  0.1369
 1569TIP3   OH226197   6.465   1.154  12.276  0.1098  0.1436 -0.2464
 1569TIP3    H126198   6.500   1.236  12.310  0.9863  0.0060 -0.7895
 1569TIP3    H226199   6.425   1.111  12.351 -0.1828  0.9763  0.0783
 1570TIP3   OH226200   6.525   2.735  15.828 -1.1462 -0.3962  0.2029
 1570TIP3    H126201   6.463   2.695  15.889 -0.7191 -2.1379 -0.4761
 1570TIP3    H226202   6.605   2.744  15.878 -0.7468 -1.9775 -0.1067
 1571TIP3   OH226203   1.490   3.962  11.439  0.4337 -0.6438 -0.0587
 1571TIP3    H126204   1.468   4.000  11.524  1.1966  0.7183 -0.4525
 1571TIP3    H226205   1.580   3.931  11.448  0.3126 -1.0479 -0.1952
 1572TIP3   OH226206   5.732   3.126  11.271  0.0015  0.4711  0.0949
 1572TIP3    H126207   5.701   3.188  11.337  0.0977 -0.7299  1.2925
 1572TIP3    H226208   5.826   3.141  11.265 -0.1622  1.2690 -0.5054
 1573TIP3   OH226209   4.705   3.819   6.272  0.0038 -0.1498  0.3985
 1573TIP3    H126210   4.788   3.782   6.242  0.6147  0.4682  1.3004
 1573TIP3    H226211   4.676   3.874   6.199  1.2351  0.9631  0.7396
 1574TIP3   OH226212   4.737   4.466  13.236  0.3703 -0.0943 -0.1891
 1574TIP3    H126213   4.767   4.539  13.290 -0.2859 -0.5768  0.8386
 1574TIP3    H226214   4.809   4.450  13.175  1.0950  0.4807  0.5027
 1575TIP3   OH226215   5.803   5.217   4.715 -0.2274 -0.2460  0.0536
 1575TIP3    H126216   5.727   5.173   4.677 -0.6206  0.4137  0.0791
 1575TIP3    H226217   5.874   5.152   4.707 -0.5900 -0.5611 -0.7072
 1576TIP3   OH226218   0.297   4.275  15.193 -0.3858  0.0723 -0.2748
 1576TIP3    H126219   0.356   4.238  15.258  1.3223  3.6866  0.3617
 1576TIP3    H226220   0.318   4.228  15.112  0.1554 -1.8088  0.9434
 1577TIP3   OH226221   6.247   2.990   0.888  0.5062 -0.3213 -0.2740
 1577TIP3    H126222   6.250   2.933   0.811  0.4561 -0.4745 -0.1621
 1577TIP3    H226223   6.156   2.989   0.916  0.9077 -1.9770  1.0658
 1578TIP3   OH226224   4.677   0.435  13.487 -0.0196 -0.2834  0.6358
 1578TIP3    H126225   4.701   0.472  13.572 -1.6728  0.1697  0.9177
 1578TIP3    H226226   4.717   0.348  13.487  0.8565  0.1046  1.4405
 1579TIP3   OH226227   4.351   1.046  15.388 -0.5333  0.8116 -0.1802
 1579TIP3    H126228   4.295   1.010  15.320  0.6678  0.3264 -0.9159
 1579TIP3    H226229   4.436   1.060  15.346  0.6669 -0.9001  1.5748
 1580TIP3   OH226230   4.458   4.801  15.605  0.1585 -0.6694 -0.6658
 1580TIP3    H126231   4.420   4.792  15.692  0.6897  0.1531 -0.3428
 1580TIP3    H226232   4.440   4.891  15.580  0.9941 -0.5719 -0.9328
 1581TIP3   OH226233   4.045   2.811  12.742 -0.2376 -0.1525 -0.2922
 1581TIP3    H126234   4.051   2.771  12.829 -0.1729 -1.5061 -0.8978
 1581TIP3    H226235   4.111   2.880  12.743 -1.7255  1.2794  1.4520
 1582TIP3   OH226236   5.693   6.287   1.816  0.2154 -0.1891  0.0259
 1582TIP3    H126237   5.607   6.255   1.791  1.0747 -0.9820 -2.0227
 1582TIP3    H226238   5.744   6.208   1.836  0.4266  0.2790  1.4091
 1583TIP3   OH226239   1.035   3.060  14.571  0.1976 -0.1756 -0.1136
 1583TIP3    H126240   1.081   2.993  14.520 -0.4595 -0.3144 -0.5288
 1583TIP3    H226241   0.945   3.057  14.539  0.2483  1.1983 -0.4339
 1584TIP3   OH226242   0.765   0.804   5.933  0.2657  0.4831  0.0290
 1584TIP3    H126243   0.797   0.776   5.848  0.3184  0.6100  0.0075
 1584TIP3    H226244   0.821   0.878   5.957  0.5348  0.1690  0.3733
 1585TIP3   OH226245   1.241   3.188   0.262 -0.6972  0.3052  0.0562
 1585TIP3    H126246   1.234   3.105   0.309  0.4280  0.6036  0.7528
 1585TIP3    H226247   1.174   3.243   0.302  1.4083  1.1483  2.5801
 1586TIP3   OH226248   4.258   2.631   5.900  0.4024  0.2018 -0.1655
 1586TIP3    H126249   4.164   2.636   5.884  0.4696 -0.5389 -0.8313
 1586TIP3    H226250   4.275   2.538   5.916  1.0337  0.3147 -0.1487
 1587TIP3   OH226251   5.671   4.563   1.597  0.0734  0.5774  0.3913
 1587TIP3    H126252   5.674   4.482   1.546  0.2042  0.3107  0.8103
 1587TIP3    H226253   5.727   4.624   1.550  1.1952 -0.0633  0.8792
 1588TIP3   OH226254   3.970   1.590   4.885 -0.3308 -0.1411  0.6239
 1588TIP3    H126255   4.037   1.554   4.827  0.2759 -0.0304  1.2442
 1588TIP3    H226256   3.887   1.558   4.850 -0.0024  0.2576 -0.5408
 1589TIP3   OH226257   3.767   5.321  12.809  0.0325 -0.4502 -0.2308
 1589TIP3    H126258   3.825   5.281  12.745 -0.3126  1.0560 -1.5060
 1589TIP3    H226259   3.768   5.415  12.788  0.7229  0.2288  2.6071
 1590TIP3   OH226260   2.000   4.987   3.242  0.2999 -0.3795 -0.4216
 1590TIP3    H126261   2.035   5.018   3.159 -0.8769 -0.3707 -0.9210
 1590TIP3    H226262   2.051   4.909   3.263  1.1539  0.0927 -0.7305
 1591TIP3   OH226263   2.621   1.628   0.553 -0.4048 -0.7171 -0.1657
 1591TIP3    H126264   2.642   1.535   0.560  2.2041 -0.3072 -1.6888
 1591TIP3    H226265   2.661   1.655   0.470 -2.6470  1.3891 -0.6334
 1592TIP3   OH226266   0.702   3.105   0.940  0.7183 -0.5067 -0.2807
 1592TIP3    H126267   0.666   3.071   1.022  0.0874 -0.2443 -0.4442
 1592TIP3    H226268   0.740   3.190   0.964  0.3941 -0.3582 -0.2901
 1593TIP3   OH226269   2.432   5.711   0.445  0.2664 -0.4586  0.3086
 1593TIP3    H126270   2.487   5.703   0.367  2.1442  0.1410  1.5456
 1593TIP3    H226271   2.457   5.795   0.483  0.4128 -1.3951  2.3336
 1594TIP3   OH226272   2.764   0.538  16.597  0.1662  0.1155  0.6371
 1594TIP3    H126273   2.804   0.608  16.546  1.1980 -1.3621 -0.6271
 1594TIP3    H226274   2.673   0.537  16.569  0.2844  0.5506  0.2199
 1595TIP3   OH226275   1.063   5.711   0.240 -0.5194 -0.0981 -0.9876
 1595TIP3    H126276   1.033   5.620   0.250 -0.0936 -0.2249 -0.8820
 1595TIP3    H226277   1.110   5.729   0.321  1.8834 -0.7237 -2.2018
 1596TIP3   OH226278   6.638   1.765   2.145  0.4229 -0.5022  0.1092
 1596TIP3    H126279   6.674   1.738   2.230  1.4998  2.0546  0.5435
 1596TIP3    H226280   6.704   1.736   2.081  1.9592  1.6633  0.6375
 1597TIP3   OH226281   3.614   3.271   4.990 -0.2659 -0.0241 -1.0498
 1597TIP3    H126282   3.605   3.247   5.082 -0.7717  0.9153 -0.8518
 1597TIP3    H226283   3.689   3.330   4.988 -1.4240  1.4743 -0.9458
 1598TIP3   OH226284   2.610   5.084   4.719 -0.2267  0.3931 -0.3863
 1598TIP3    H126285   2.556   5.127   4.653  0.5349  0.8268 -0.7235
 1598TIP3    H226286   2.547   5.050   4.782 -0.8006  2.6695  0.3112
 1599TIP3   OH226287   1.758   5.159   2.459 -0.0598  0.5060  0.3106
 1599TIP3    H126288   1.823   5.093   2.434 -0.2323  0.6594 -0.5596
 1599TIP3    H226289   1.685   5.109   2.495  0.7349  0.3604  1.7569
 1600TIP3   OH226290   6.291   1.241   2.376  0.3199 -0.2780 -0.2920
 1600TIP3    H126291   6.357   1.208   2.315  0.6901  1.6205 -0.9539
 1600TIP3    H226292   6.341   1.269   2.452 -0.0059 -1.3316  0.3206
 1601TIP3   OH226293   1.419   5.155  11.564 -0.0800 -0.0058 -1.3299
 1601TIP3    H126294   1.327   5.179  11.550 -0.1826  0.7481  0.5822
 1601TIP3    H226295   1.415   5.065  11.597 -0.2645  0.7066  0.6357
 1602TIP3   OH226296   3.472   0.608  11.347 -0.0352  0.6896  0.0954
 1602TIP3    H126297   3.427   0.661  11.282 -0.4333  0.8037  0.4639
 1602TIP3    H226298   3.548   0.571  11.300 -1.0016 -0.2297 -0.7729
 1603TIP3   OH226299   2.090   3.291  10.235 -0.0000 -0.4514  0.6540
 1603TIP3    H126300   2.066   3.250  10.318  0.2144  1.7616  1.8427
 1603TIP3    H226301   2.185   3.288  10.233 -0.0285 -1.1344  0.1490
 1604TIP3   OH226302   6.382   3.323   0.266  0.6572  0.0918 -0.3448
 1604TIP3    H126303   6.288   3.305   0.263  0.3663  1.3857  0.5817
 1604TIP3    H226304   6.394   3.376   0.345  2.3197 -0.9174  0.1009
 1605TIP3   OH226305   5.755   3.217   4.338 -0.2433  0.0091  0.3215
 1605TIP3    H126306   5.844   3.211   4.306 -0.1266  0.7528  0.4899
 1605TIP3    H226307   5.764   3.244   4.429 -0.6949  2.0925 -0.2349
 1606TIP3   OH226308   1.360   4.899   4.125 -0.2907  0.0082  0.2587
 1606TIP3    H126309   1.402   4.984   4.109  0.5156 -0.4856 -0.2891
 1606TIP3    H226310   1.370   4.885   4.219 -0.2633  0.4340  0.3208
 1607TIP3   OH226311   0.902   6.488  15.622  0.6632 -0.1713  0.3854
 1607TIP3    H126312   0.816   6.484  15.581  0.8929  1.6674 -0.2972
 1607TIP3    H226313   0.897   6.424  15.693 -1.2763 -0.0794  0.3617
 1608TIP3   OH226314   6.527   3.685  13.046 -0.1204  0.2706 -0.0104
 1608TIP3    H126315   6.461   3.752  13.062 -0.4352  0.2234 -1.1152
 1608TIP3    H226316   6.608   3.723  13.081 -0.8315  0.0748  1.9052
 1609TIP3   OH226317   1.101   3.388   4.268 -0.2575  0.9108  0.6552
 1609TIP3    H126318   1.052   3.449   4.324 -1.1231  2.4226 -1.6808
 1609TIP3    H226319   1.039   3.364   4.199  0.7173 -1.1243  0.4616
 1610TIP3   OH226320   0.210   5.439  10.659  0.2211  0.3490  0.0933
 1610TIP3    H126321   0.205   5.499  10.585 -0.3722  0.7956  0.4964
 1610TIP3    H226322   0.301   5.446  10.689  0.4031  0.3363 -0.4428
 1611TIP3   OH226323   6.614   1.185   4.145 -0.0291 -0.8779 -0.6305
 1611TIP3    H126324   6.689   1.218   4.096 -0.5871 -1.0736 -1.6297
 1611TIP3    H226325   6.538   1.217   4.098 -0.5823 -0.9003  0.2330
 1612TIP3   OH226326   4.011   3.427   6.122 -0.6583  0.2347 -0.5992
 1612TIP3    H126327   4.078   3.398   6.183 -1.3278 -1.0306 -0.4611
 1612TIP3    H226328   3.978   3.509   6.159 -1.0653 -0.5306  0.7241
 1613TIP3   OH226329   6.138   5.806  16.568  0.3516  0.0458 -0.2087
 1613TIP3    H126330   6.134   5.847  16.654  0.2932  2.1904 -1.2147
 1613TIP3    H226331   6.193   5.864  16.516 -2.5738  0.7431 -2.6438
 1614TIP3   OH226332   4.324   2.908  13.215 -0.2958 -0.1447  0.2082
 1614TIP3    H126333   4.279   2.832  13.177 -0.5199 -0.4680  1.0992
 1614TIP3    H226334   4.401   2.871  13.257  0.3637  0.3074 -0.5989
 1615TIP3   OH226335   3.063   3.139   3.737  0.0760 -0.1527 -0.2338
 1615TIP3    H126336   2.973   3.139   3.704 -0.3194  1.5178  0.7369
 1615TIP3    H226337   3.111   3.195   3.676 -0.2178  1.3379  0.8738
 1616TIP3   OH226338   3.292   1.697  14.873  0.8221  0.0214 -0.5473
 1616TIP3    H126339   3.198   1.678  14.879  1.0414 -1.3298 -1.1837
 1616TIP3    H226340   3.297   1.792  14.870 -0.4271  0.1558  1.0478
 1617TIP3   OH226341   4.311   4.363   5.637 -0.6326 -0.4871  0.0126
 1617TIP3    H126342   4.369   4.426   5.596 -0.3949 -0.7948 -0.1224
 1617TIP3    H226343   4.339   4.278   5.603  1.0572 -0.9996  2.5054
 1618TIP3   OH226344   1.600   2.705  14.328  0.5752 -0.2136  0.6101
 1618TIP3    H126345   1.646   2.644  14.271  1.9584  0.6070  0.8480
 1618TIP3    H226346   1.507   2.689  14.310  0.9768 -0.8391 -0.9431
 1619TIP3   OH226347   4.458   1.809  12.670  0.2214 -0.5386  0.0582
 1619TIP3    H126348   4.454   1.775  12.581 -0.1497 -0.3728  0.0131
 1619TIP3    H226349   4.421   1.739  12.724 -1.9633  0.3935 -0.1991
 1620TIP3   OH226350   5.179   6.785   5.713 -0.2798 -0.6893 -0.8500
 1620TIP3    H126351   5.187   6.695   5.744  2.4330 -0.3894 -0.5327
 1620TIP3    H226352   5.176   6.837   5.793  0.5148 -0.3365 -1.0491
 1621TIP3   OH226353   5.948   5.732   5.903  0.6028 -0.0809 -0.2231
 1621TIP3    H126354   6.032   5.779   5.904  0.8190 -0.4680  0.3101
 1621TIP3    H226355   5.945   5.690   5.817  1.4854 -0.9988  0.1810
 1622TIP3   OH226356   4.047   6.059  12.762 -0.5952 -0.2900  0.5664
 1622TIP3    H126357   3.953   6.046  12.745 -0.8441  1.5661  0.4286
 1622TIP3    H226358   4.053   6.065  12.857 -0.4107 -1.8275  0.6621
 1623TIP3   OH226359   1.072   1.020  10.915  0.4900 -0.5621  0.2794
 1623TIP3    H126360   1.116   1.084  10.970  0.9125 -0.1724 -0.4940
 1623TIP3    H226361   1.113   1.031  10.829  0.1467 -1.4555 -0.0022
 1624TIP3   OH226362   0.314   6.027   5.406 -0.4345 -0.0118  0.4933
 1624TIP3    H126363   0.268   6.087   5.347 -1.2117 -1.8254 -0.7793
 1624TIP3    H226364   0.250   5.958   5.425  1.5568 -2.3111 -0.9089
 1625TIP3   OH226365   2.678   5.091   3.044 -0.0642 -1.0313  0.6163
 1625TIP3    H126366   2.612   5.152   3.076 -0.4561 -1.6942  1.0978
 1625TIP3    H226367   2.744   5.088   3.114 -1.5345 -3.4218  1.9699
 1626TIP3   OH226368   4.754   3.655   0.674  0.0986  0.5834  0.1838
 1626TIP3    H126369   4.725   3.628   0.586  1.6880 -0.7788  0.0345
 1626TIP3    H226370   4.735   3.580   0.729  1.7570  0.2917  0.3992
 1627TIP3   OH226371   4.775   5.670   0.380  0.1420  0.0498 -0.2705
 1627TIP3    H126372   4.856   5.712   0.409  0.2663 -0.7047  0.4862
 1627TIP3    H226373   4.707   5.736   0.396  0.3237 -0.0589  1.0081
 1628TIP3   OH226374   4.749   1.329  16.045 -0.4672  0.4055 -0.0834
 1628TIP3    H126375   4.817   1.391  16.071  0.2258 -0.6695  0.6655
 1628TIP3    H226376   4.731   1.352  15.954 -0.2795  1.7636  0.2063
 1629TIP3   OH226377   2.262   4.547   0.499 -0.0074 -0.1985 -0.3742
 1629TIP3    H126378   2.355   4.530   0.482 -0.3754 -0.3833 -2.3756
 1629TIP3    H226379   2.229   4.581   0.416 -1.6529  0.2332  0.4413
 1630TIP3   OH226380   5.732   3.553  17.274 -0.4689  0.0098  0.1405
 1630TIP3    H126381   5.713   3.571  17.182 -0.5301 -1.2441 -0.0930
 1630TIP3    H226382   5.646   3.558  17.317 -0.4522  0.5115  0.1192
 1631TIP3   OH226383   4.648   6.245  14.780 -0.2371 -0.4393  0.3322
 1631TIP3    H126384   4.721   6.306  14.769 -0.0479 -0.2442  2.3596
 1631TIP3    H226385   4.652   6.188  14.703 -0.2246  1.8767 -1.4166
 1632TIP3   OH226386   1.936   2.892  14.217  0.3084 -0.4248 -0.0838
 1632TIP3    H126387   1.927   2.977  14.259  2.4303 -1.5056  2.7864
 1632TIP3    H226388   1.852   2.849  14.234 -0.2863  0.6111 -0.3703
 1633TIP3   OH226389   0.261   2.479  13.601  0.2512  0.2336  0.0229
 1633TIP3    H126390   0.239   2.487  13.508  0.7600 -2.1251 -0.3183
 1633TIP3    H226391   0.236   2.564  13.638 -2.9378  0.1124 -1.6498
 1634TIP3   OH226392   4.273   6.480   3.492  0.1939  1.1384  0.3747
 1634TIP3    H126393   4.225   6.409   3.450  1.4678 -0.6030  1.7678
 1634TIP3    H226394   4.216   6.556   3.482 -0.5547  0.2851 -2.4189
 1635TIP3   OH226395   1.138   1.782  14.222  0.1531  0.9555 -0.8499
 1635TIP3    H126396   1.105   1.872  14.226 -0.5855  0.6594 -0.1601
 1635TIP3    H226397   1.076   1.736  14.165 -1.7925 -0.0783  2.0285
 1636TIP3   OH226398   4.001   6.063   0.809  0.7091  0.5320 -0.0907
 1636TIP3    H126399   4.051   6.052   0.727  0.2549 -2.0040 -0.0407
 1636TIP3    H226400   4.061   6.111   0.866  1.4526  1.3561 -1.5061
 1637TIP3   OH226401   6.199   2.754   0.252  0.5269 -0.4756  0.5766
 1637TIP3    H126402   6.117   2.748   0.202  0.1925 -0.5057  1.1248
 1637TIP3    H226403   6.173   2.735   0.343  1.4415 -2.2320  0.4871
 1638TIP3   OH226404   2.428   1.423   6.749  0.2767  0.2778 -0.0713
 1638TIP3    H126405   2.418   1.427   6.654 -0.2713 -0.0470 -0.0229
 1638TIP3    H226406   2.371   1.352   6.777 -1.5952  2.0625  0.7851
 1639TIP3   OH226407   3.778   6.354   5.636 -0.7022  0.5570 -0.1821
 1639TIP3    H126408   3.714   6.423   5.653 -1.8792 -0.5565 -0.0931
 1639TIP3    H226409   3.794   6.359   5.542 -1.4161  0.3952 -0.3115
 1640TIP3   OH226410   6.196   0.620  12.945  0.2319  0.6585  0.2126
 1640TIP3    H126411   6.193   0.656  13.033 -1.4953  1.3663 -0.1250
 1640TIP3    H226412   6.216   0.695  12.889 -0.2480  0.5080 -0.1673
 1641TIP3   OH226413   2.470   2.393   1.916 -0.1112 -0.4764 -0.2205
 1641TIP3    H126414   2.467   2.484   1.946  1.7831 -0.2723 -0.5458
 1641TIP3    H226415   2.384   2.377   1.879 -2.0840 -0.2989  3.9601
 1642TIP3   OH226416   4.738   3.213   1.874  0.4888  0.3466  0.4120
 1642TIP3    H126417   4.735   3.167   1.958  0.9198 -1.3967 -0.5166
 1642TIP3    H226418   4.832   3.227   1.858  0.5552 -1.3601 -0.8511
 1643TIP3   OH226419   0.291   6.088  15.216 -0.1092  0.1934  0.3189
 1643TIP3    H126420   0.363   6.025  15.213 -1.6229 -1.5535 -0.8749
 1643TIP3    H226421   0.259   6.084  15.306  0.4942  0.0411  0.5276
 1644TIP3   OH226422   4.766   6.484  11.985 -0.5745  0.3448  0.1280
 1644TIP3    H126423   4.842   6.520  11.939 -1.1407  0.5108 -0.6903
 1644TIP3    H226424   4.737   6.556  12.042  0.3107  0.0360  0.9811
 1645TIP3   OH226425   3.975   3.385  14.275 -0.5256  0.3505  0.3565
 1645TIP3    H126426   3.915   3.341  14.215  0.2329 -0.2886  0.0613
 1645TIP3    H226427   4.031   3.316  14.309  0.4321  1.0182  0.1738
 1646TIP3   OH226428   5.258   0.057  14.382  0.3212  0.3265 -0.2504
 1646TIP3    H126429   5.225   0.145  14.400 -1.1112  0.1084 -1.7283
 1646TIP3    H226430   5.350   0.070  14.361  0.8451  1.1309  2.3177
 1647TIP3   OH226431   0.981   6.291  15.377 -0.0532 -0.2496  0.5749
 1647TIP3    H126432   0.951   6.372  15.417  1.4291 -0.1951  1.6084
 1647TIP3    H226433   0.984   6.309  15.283  0.0783  0.8292  0.7880
 1648TIP3   OH226434   2.994   0.854  12.807 -0.4667  0.1839 -0.1320
 1648TIP3    H126435   3.004   0.943  12.839  3.9688 -1.3145  3.1017
 1648TIP3    H226436   3.072   0.838  12.754  0.2889 -2.6265  1.7039
 1649TIP3   OH226437   4.495   6.152   5.071  0.2061  0.5921 -0.3623
 1649TIP3    H126438   4.587   6.138   5.094  1.2531  2.1010 -3.3957
 1649TIP3    H226439   4.475   6.240   5.102  0.4616  1.1282 -1.7096
 1650TIP3   OH226440   0.731   0.344   5.534  0.1667  0.0697 -0.3396
 1650TIP3    H126441   0.782   0.384   5.464  2.5384 -1.3879  0.5281
 1650TIP3    H226442   0.706   0.258   5.500  0.4997 -0.2546  0.2279
 1651TIP3   OH226443   4.703   6.719   0.950 -0.2175 -0.1277 -0.8110
 1651TIP3    H126444   4.658   6.764   0.879 -0.1644  0.4181 -0.5023
 1651TIP3    H226445   4.718   6.787   1.016  1.0850 -0.3061 -0.9215
 1652TIP3   OH226446   6.768   0.561   3.444 -0.4958  0.3326 -0.1703
 1652TIP3    H126447   6.742   0.653   3.449  0.7617  0.6584  0.8446
 1652TIP3    H226448   6.730   0.521   3.522 -0.4749  0.1517 -0.2528
 1653TIP3   OH226449   0.767   3.232   4.352  0.1808  0.4381  0.4692
 1653TIP3    H126450   0.776   3.141   4.378 -1.4117  0.1244 -0.0796
 1653TIP3    H226451   0.798   3.234   4.261 -2.4127 -0.0974 -0.4525
 1654TIP3   OH226452   3.152   2.414  12.235  0.0242  0.3288 -0.2470
 1654TIP3    H126453   3.134   2.320  12.244  1.7401  0.0823  0.7516
 1654TIP3    H226454   3.204   2.421  12.155  0.0351  0.4195 -0.2322
 1655TIP3   OH226455   4.321   3.831   1.285  0.3394  0.0127  0.3832
 1655TIP3    H126456   4.323   3.863   1.375  2.6734  1.6096 -0.1806
 1655TIP3    H226457   4.403   3.782   1.276  0.4501  0.4280 -1.0538
 1656TIP3   OH226458   4.576   4.082  16.750  0.6426 -0.0490 -0.0382
 1656TIP3    H126459   4.583   4.173  16.779  0.2827  0.5879 -1.8885
 1656TIP3    H226460   4.660   4.063  16.710  0.6278 -0.4370  0.1165
 1657TIP3   OH226461   6.115   1.059  12.882 -0.2214 -0.5175  0.2728
 1657TIP3    H126462   6.022   1.036  12.873 -0.3651 -0.0047  0.3738
 1657TIP3    H226463   6.119   1.151  12.853  0.3318 -0.6730 -0.1559
 1658TIP3   OH226464   4.923   2.085  14.273 -0.4486 -0.4454 -0.2999
 1658TIP3    H126465   4.862   2.106  14.344  0.3759  2.0783 -0.2898
 1658TIP3    H226466   4.963   2.003  14.300  0.6437  1.0056  2.7571
 1659TIP3   OH226467   0.932   4.033  10.353  0.0031 -0.5883  0.1789
 1659TIP3    H126468   0.884   4.105  10.312  1.1170  0.4129  0.6054
 1659TIP3    H226469   0.968   4.071  10.433 -2.4116 -2.6224  2.2929
 1660TIP3   OH226470   3.962   6.331   2.117  0.3902 -0.5272  0.4095
 1660TIP3    H126471   4.019   6.296   2.048 -0.3183  1.1725 -1.0823
 1660TIP3    H226472   3.888   6.369   2.069 -0.8541 -0.6436  2.2075
 1661TIP3   OH226473   5.094   4.000   2.731  0.3393  0.5544  0.4286
 1661TIP3    H126474   4.999   4.011   2.724  0.3824  0.4558 -0.4032
 1661TIP3    H226475   5.105   3.908   2.755  0.2007  0.7427  1.2175
 1662TIP3   OH226476   0.407   0.300   1.865 -0.5817  0.3212 -0.2446
 1662TIP3    H126477   0.471   0.332   1.928 -1.2266 -1.1450  1.1900
 1662TIP3    H226478   0.324   0.304   1.911 -1.7005  2.8562 -2.3177
 1663TIP3   OH226479   4.594   3.417   0.452 -0.6602  0.8153 -0.0274
 1663TIP3    H126480   4.606   3.322   0.448  0.3580  0.9864 -1.6580
 1663TIP3    H226481   4.501   3.430   0.472 -1.5261 -0.5236 -2.9325
 1664TIP3   OH226482   6.212   4.867  15.432 -0.5476 -0.2126  0.2055
 1664TIP3    H126483   6.301   4.875  15.467 -0.1684  1.3710 -1.0920
 1664TIP3    H226484   6.184   4.779  15.459  1.4930 -0.8268  0.3994
 1665TIP3   OH226485   5.812   0.087   0.836  0.3739 -0.0418 -0.2494
 1665TIP3    H126486   5.843   0.130   0.756 -0.4391  0.2852 -0.3967
 1665TIP3    H226487   5.878   0.108   0.902  1.2922 -0.7046 -0.9435
 1666TIP3   OH226488   0.926   4.636  11.393  0.2487  0.5659  0.0120
 1666TIP3    H126489   0.975   4.693  11.333  1.5703  0.1181  0.6381
 1666TIP3    H226490   0.843   4.620  11.348 -0.4024  3.4744  0.1059
 1667TIP3   OH226491   4.853   1.261   1.393 -0.0363 -0.2991 -0.5531
 1667TIP3    H126492   4.829   1.318   1.466  2.3028  0.0569 -0.0257
 1667TIP3    H226493   4.840   1.172   1.426 -0.3393 -0.1202 -0.1871
 1668TIP3   OH226494   0.090   2.227  13.381  0.0083  0.0844  0.4174
 1668TIP3    H126495   0.125   2.310  13.349 -0.0785  0.8181  2.2086
 1668TIP3    H226496   0.047   2.188  13.304  1.9420  0.6463 -0.9755
 1669TIP3   OH226497   4.263   2.009  12.480 -0.4980 -0.0158  0.8562
 1669TIP3    H126498   4.299   2.050  12.559 -0.0089  0.6287  0.2961
 1669TIP3    H226499   4.262   2.078  12.415  1.4132 -1.1786 -0.4507
 1670TIP3   OH226500   3.557   5.764   1.155  0.0085  0.2976 -0.6458
 1670TIP3    H126501   3.487   5.757   1.090  1.4871 -0.2306 -2.2358
 1670TIP3    H226502   3.637   5.766   1.103  1.3461 -1.8924  1.2393
 1671TIP3   OH226503   6.420   3.458   4.629  0.6321  0.1369  0.8419
 1671TIP3    H126504   6.506   3.448   4.670  0.7874 -1.0479  0.2597
 1671TIP3    H226505   6.365   3.392   4.671  0.0368  0.8147  1.1349
 1672TIP3   OH226506   1.082   0.111  12.239 -0.1631  0.1419 -0.8221
 1672TIP3    H126507   1.131   0.030  12.254 -2.0169 -1.1689 -1.7784
 1672TIP3    H226508   0.995   0.094  12.276 -0.5445  1.7243 -0.9604
 1673TIP3   OH226509   0.414   2.439  12.633  0.0596 -0.2913  0.2378
 1673TIP3    H126510   0.406   2.513  12.573 -0.0672 -1.2598 -0.9431
 1673TIP3    H226511   0.371   2.367  12.589 -0.5448 -0.8791  1.7493
 1674TIP3   OH226512   1.109   0.882  11.206 -0.1237  0.4401 -0.5918
 1674TIP3    H126513   1.041   0.909  11.145 -0.1575  0.2915 -0.6191
 1674TIP3    H226514   1.182   0.855  11.150 -0.4395 -0.4510 -0.5788
 1675TIP3   OH226515   2.593   2.709   0.857  0.5423  0.3272 -0.1823
 1675TIP3    H126516   2.673   2.757   0.835  0.7648  0.0945  0.1215
 1675TIP3    H226517   2.556   2.756   0.931  1.0020 -0.2366  0.4090
 1676TIP3   OH226518   3.410   4.361  11.852 -0.7369  0.0006 -0.0842
 1676TIP3    H126519   3.495   4.329  11.882 -1.7150 -1.9782  0.6953
 1676TIP3    H226520   3.356   4.363  11.930 -0.4637  4.7023  0.1170
 1677TIP3   OH226521   1.374   6.090   0.330 -0.0610 -0.1278 -0.3093
 1677TIP3    H126522   1.299   6.099   0.389  0.0859  1.3500 -0.3153
 1677TIP3    H226523   1.345   6.130   0.248  0.4123 -0.4083 -0.6157
 1678TIP3   OH226524   4.698   2.563   0.040 -0.0498  0.1485 -0.5259
 1678TIP3    H126525   4.791   2.579   0.023  0.2114 -0.5479  0.1577
 1678TIP3    H226526   4.653   2.596  -0.037  0.6433  1.8298 -0.2214
 1679TIP3   OH226527   2.764   4.357  12.303 -0.3575  0.0518 -0.2750
 1679TIP3    H126528   2.789   4.265  12.304  3.3423  0.9744  0.6326
 1679TIP3    H226529   2.777   4.385  12.212 -0.5221 -0.0830 -0.3405
 1680TIP3   OH226530   3.169   2.643   0.928 -0.2975  0.6550 -0.0740
 1680TIP3    H126531   3.209   2.645   1.015 -0.1959 -0.8730 -0.0641
 1680TIP3    H226532   3.084   2.602   0.942 -0.0935 -0.0135 -0.7598
 1681TIP3   OH226533   3.444   1.173   5.929  0.4003  0.1186  0.2486
 1681TIP3    H126534   3.523   1.119   5.935 -0.1055 -0.6684 -0.0269
 1681TIP3    H226535   3.406   1.150   5.844 -0.9977 -0.7612  1.0849
 1682TIP3   OH226536   0.206   5.490   1.370  0.2237 -0.3514 -0.8873
 1682TIP3    H126537   0.162   5.431   1.309  0.0632 -1.5803  0.3832
 1682TIP3    H226538   0.295   5.456   1.376 -0.3398 -1.5485  1.1732
 1683TIP3   OH226539   4.184   4.559  10.994 -0.7036 -0.7149 -0.0573
 1683TIP3    H126540   4.125   4.550  11.070 -2.7183 -2.4384 -1.7599
 1683TIP3    H226541   4.252   4.619  11.024 -2.9064  0.7393  2.2584
 1684TIP3   OH226542   4.832   3.393  12.698 -0.2469  0.0234 -0.4451
 1684TIP3    H126543   4.815   3.362  12.787  1.7031  0.0447 -0.0450
 1684TIP3    H226544   4.779   3.473  12.690  1.2293  1.2384  1.4686
 1685TIP3   OH226545   0.905   3.705   1.544  0.7896  0.3639 -0.0635
 1685TIP3    H126546   0.924   3.643   1.474 -0.9845  2.0381 -2.0784
 1685TIP3    H226547   0.929   3.790   1.508  0.5958  1.1684  1.6591
 1686TIP3   OH226548   2.210   5.941  17.054  0.3295 -0.6022 -0.0798
 1686TIP3    H126549   2.262   5.989  16.990  0.0382  0.1125  0.2244
 1686TIP3    H226550   2.119   5.957  17.028  0.2014 -0.0020  0.7448
 1687TIP3   OH226551   3.359   1.959  11.261  0.5634 -0.4530 -0.9415
 1687TIP3    H126552   3.293   1.971  11.329  0.7927 -1.1031 -0.6059
 1687TIP3    H226553   3.319   1.997  11.182 -1.1194 -2.7930 -1.2803
 1688TIP3   OH226554   1.103   5.739  11.469 -0.5096  0.6663  0.2584
 1688TIP3    H126555   1.156   5.661  11.488 -2.2432 -0.5146  0.3635
 1688TIP3    H226556   1.147   5.810  11.516  1.5208 -0.0898 -0.4478
 1689TIP3   OH226557   5.290   4.075  13.385 -0.0724  0.5022 -0.1903
 1689TIP3    H126558   5.251   3.991  13.358 -0.7697  0.6898  0.2109
 1689TIP3    H226559   5.216   4.136  13.386  0.3615  1.0286 -0.0784
 1690TIP3   OH226560   5.010   2.516   0.314 -0.0933  0.3193  0.0604
 1690TIP3    H126561   5.016   2.543   0.223 -0.8246 -0.9207 -0.3628
 1690TIP3    H226562   4.917   2.502   0.329 -0.1477  1.9663  1.4389
 1691TIP3   OH226563   1.597   1.843  11.120  0.2128 -0.1470  0.0607
 1691TIP3    H126564   1.652   1.781  11.073  2.0979  0.9512  0.7696
 1691TIP3    H226565   1.552   1.893  11.051 -0.1494 -1.2721 -0.5173
 1692TIP3   OH226566   5.757   5.465   5.989  0.4075 -0.4445  0.3008
 1692TIP3    H126567   5.747   5.446   5.896  0.8727  2.3424 -0.3680
 1692TIP3    H226568   5.689   5.529   6.008  2.1534  1.1971  1.1680
 1693TIP3   OH226569   1.342   6.424   3.242 -0.4854 -0.0383 -0.3611
 1693TIP3    H126570   1.393   6.496   3.206 -0.5875 -1.5635 -3.7476
 1693TIP3    H226571   1.407   6.357   3.263 -0.6195  0.1087  0.5684
 1694TIP3   OH226572   0.755   2.114   3.567 -0.0599 -0.4595  0.0143
 1694TIP3    H126573   0.800   2.134   3.649 -1.0897  0.3537  0.3923
 1694TIP3    H226574   0.824   2.086   3.507  0.5048 -2.8532  1.7060
 1695TIP3   OH226575   6.349   3.955  13.777  0.3866  0.3904 -0.4512
 1695TIP3    H126576   6.274   3.964  13.719  1.4895  0.1366 -1.9333
 1695TIP3    H226577   6.405   4.030  13.757  1.5643 -0.5877 -0.9068
 1696TIP3   OH226578   5.320   0.132  16.062 -0.5250  0.1943 -0.6391
 1696TIP3    H126579   5.330   0.051  16.111 -1.8375  0.0867 -0.5320
 1696TIP3    H226580   5.227   0.137  16.043 -0.0672  0.2967 -3.0282
 1697TIP3   OH226581   0.840   2.579  16.052 -0.1276  0.3375  0.1773
 1697TIP3    H126582   0.888   2.497  16.041  1.3492  0.8569  2.4938
 1697TIP3    H226583   0.893   2.643  16.004 -1.5478 -0.0940 -2.0691
 1698TIP3   OH226584   0.777   4.299   0.178 -0.6509  0.2266  0.6855
 1698TIP3    H126585   0.786   4.263   0.090 -2.0429  1.6934 -0.0671
 1698TIP3    H226586   0.775   4.221   0.235  1.6500 -0.6744 -0.4070
 1699TIP3   OH226587   0.667   2.913  16.466  0.7196  0.9032  0.1213
 1699TIP3    H126588   0.667   2.832  16.415 -0.4025  0.8129  0.2700
 1699TIP3    H226589   0.622   2.891  16.547  2.2597  1.1174  1.0689
 1700TIP3   OH226590   1.453   0.511   3.273  0.7049  0.0893  0.1294
 1700TIP3    H126591   1.443   0.581   3.208  2.0111  0.3486  0.1993
 1700TIP3    H226592   1.533   0.466   3.247  0.6015 -0.5340  0.8872
 1701TIP3   OH226593   0.463   0.191   4.539  0.4205  0.8131  0.1700
 1701TIP3    H126594   0.545   0.164   4.499  1.2189  2.0504  0.9495
 1701TIP3    H226595   0.443   0.275   4.497 -0.8074  0.2009 -0.5131
 1702TIP3   OH226596   5.790   6.340  11.360  0.2530  0.2537 -0.0538
 1702TIP3    H126597   5.777   6.402  11.433 -0.7322 -0.9414  0.8129
 1702TIP3    H226598   5.863   6.376  11.311  1.9461  0.2947  2.4048
 1703TIP3   OH226599   1.264   1.496   0.597  0.0087  0.1307  0.2879
 1703TIP3    H126600   1.218   1.569   0.640  0.0628 -0.8887  2.1372
 1703TIP3    H226601   1.280   1.527   0.508 -1.3966  1.7592  0.5665
 1704TIP3   OH226602   1.110   0.168   0.621 -0.3122 -0.5529 -0.0033
 1704TIP3    H126603   1.094   0.078   0.650 -1.9187 -0.6893 -1.2033
 1704TIP3    H226604   1.044   0.220   0.667  0.3146 -0.0647  0.3371
 1705TIP3   OH226605   5.936   2.547  16.501  0.4445 -0.3118 -0.7497
 1705TIP3    H126606   5.993   2.619  16.473 -1.2380  0.6803 -1.7532
 1705TIP3    H226607   5.884   2.583  16.573  1.1641 -1.2511  0.2620
 1706TIP3   OH226608   5.425   4.631   4.375 -0.4360 -0.4752  0.2845
 1706TIP3    H126609   5.332   4.634   4.400 -0.4762  1.7945  0.0424
 1706TIP3    H226610   5.468   4.584   4.446 -1.4324  0.5637  1.6052
 1707TIP3   OH226611   4.719   3.915   3.942 -0.2471  0.0673  0.3819
 1707TIP3    H126612   4.693   3.929   4.032  0.4059  1.5383  0.3442
 1707TIP3    H226613   4.812   3.938   3.939 -0.8749  2.5247 -1.2148
 1708TIP3   OH226614   3.077   1.553  14.417  0.5319  0.2047  0.1005
 1708TIP3    H126615   3.132   1.632  14.411  1.9734 -0.7187  0.8642
 1708TIP3    H226616   3.139   1.481  14.427 -0.8083 -0.9372  0.3460
 1709TIP3   OH226617   2.426   3.024  12.896 -0.8682  0.1291 -0.6142
 1709TIP3    H126618   2.344   2.981  12.919 -0.6437 -0.4075 -0.8259
 1709TIP3    H226619   2.427   3.025  12.801 -0.5207 -0.0688 -0.6124
 1710TIP3   OH226620   5.138   0.466   5.123 -0.3015  0.0860 -0.1920
 1710TIP3    H126621   5.094   0.397   5.172 -1.9591  1.6334  0.5510
 1710TIP3    H226622   5.067   0.522   5.091  0.9918  1.2882 -1.0422
 1711TIP3   OH226623   6.360   6.783  11.957  0.1081 -0.0454 -0.0575
 1711TIP3    H126624   6.326   6.730  11.885 -1.2956 -1.7777  1.8329
 1711TIP3    H226625   6.306   6.862  11.956 -1.0050 -0.7872  0.0931
 1712TIP3   OH226626   5.387   5.645   5.180 -0.6116 -0.0817  0.8694
 1712TIP3    H126627   5.359   5.713   5.241  1.9294  1.1281  0.7231
 1712TIP3    H226628   5.371   5.683   5.093  0.4010  0.1536  0.7865
 1713TIP3   OH226629   1.745   5.459   1.888  0.0577  0.0696 -0.1907
 1713TIP3    H126630   1.836   5.460   1.919  0.4131 -3.5864 -0.8972
 1713TIP3    H226631   1.747   5.507   1.805  1.2214  0.4752  0.0562
 1714TIP3   OH226632   4.094   6.436  13.783  0.4465  0.2106 -0.6284
 1714TIP3    H126633   4.012   6.440  13.733 -0.4914 -1.2267  0.7411
 1714TIP3    H226634   4.137   6.356  13.754 -0.4543 -1.0169  1.3555
 1715TIP3   OH226635   5.886   3.444  16.600  0.1628  0.0677 -0.5567
 1715TIP3    H126636   5.944   3.515  16.571  0.4618 -0.2711 -0.7912
 1715TIP3    H226637   5.909   3.370  16.544 -0.2190 -0.1851 -0.3789
 1716TIP3   OH226638   4.847   0.493  14.013  0.1012 -0.1289  0.1179
 1716TIP3    H126639   4.871   0.461  13.926  1.4597 -0.1280  0.4736
 1716TIP3    H226640   4.849   0.415  14.069 -0.3259 -0.0560  0.2382
 1717TIP3   OH226641   1.501   0.580  10.971 -0.2993 -0.0541 -0.5765
 1717TIP3    H126642   1.537   0.519  11.035  1.3112  1.3114 -0.1651
 1717TIP3    H226643   1.406   0.565  10.975 -0.1227 -0.7555  1.3242
 1718TIP3   OH226644   0.427   5.708  14.833  0.1672 -0.6781 -0.0378
 1718TIP3    H126645   0.476   5.742  14.908 -0.3903 -1.7694  0.8366
 1718TIP3    H226646   0.398   5.786  14.786  0.3108  0.0308  1.0228
 1719TIP3   OH226647   5.562   1.257   3.876 -0.0164 -0.1292 -0.0265
 1719TIP3    H126648   5.475   1.278   3.842 -0.4878 -3.2846 -0.9931
 1719TIP3    H226649   5.548   1.242   3.969 -0.2297  0.7149  0.0832
 1720TIP3   OH226650   3.897   6.350  11.520 -0.2500  0.4204 -0.1763
 1720TIP3    H126651   3.875   6.395  11.439  0.8675  0.2335 -0.5968
 1720TIP3    H226652   3.964   6.286  11.494 -0.8289 -0.5419  0.6514
 1721TIP3   OH226653   3.938   4.807  12.427  0.0864  0.2065  0.5173
 1721TIP3    H126654   3.877   4.749  12.473 -0.4754 -1.4945 -2.2894
 1721TIP3    H226655   3.885   4.880  12.397  0.1051  0.4215  1.0031
 1722TIP3   OH226656   6.360   6.112  17.174 -0.5275  0.0452  0.1670
 1722TIP3    H126657   6.387   6.050  17.106 -0.5183  0.2890 -0.0513
 1722TIP3    H226658   6.429   6.177  17.177 -1.0263  0.6083 -0.3177
 1723TIP3   OH226659   3.434   4.745   6.951  0.2562 -0.8327 -0.7955
 1723TIP3    H126660   3.497   4.710   6.888 -0.4082 -2.1271 -0.7423
 1723TIP3    H226661   3.381   4.807   6.900 -0.0920 -1.6588 -1.4407
 1724TIP3   OH226662   0.670   2.345   1.272  0.3871 -0.4114 -0.2690
 1724TIP3    H126663   0.703   2.293   1.346 -1.0792 -0.6439  0.2304
 1724TIP3    H226664   0.590   2.301   1.245 -0.7905  1.4704  0.0450
 1725TIP3   OH226665   1.531   4.117   2.222 -0.1083  0.2573 -0.1165
 1725TIP3    H126666   1.476   4.155   2.153 -1.6338 -2.3535 -0.4346
 1725TIP3    H226667   1.478   4.123   2.301  1.0090  1.8277  0.5255
 1726TIP3   OH226668   0.069   0.319   0.513  0.1820  0.2762 -0.2666
 1726TIP3    H126669   0.093   0.240   0.465 -1.6385 -1.0404  0.9279
 1726TIP3    H226670   0.081   0.390   0.449  2.4242 -0.8472 -1.1579
 1727TIP3   OH226671   2.922   1.497  12.235 -0.6573  0.1259 -0.2965
 1727TIP3    H126672   2.877   1.420  12.200  0.1345 -0.7638  0.6236
 1727TIP3    H226673   2.855   1.566  12.233 -1.6358 -0.8043 -0.3253
 1728TIP3   OH226674   0.575   6.764   3.639 -0.1322 -0.0508 -0.2638
 1728TIP3    H126675   0.555   6.670   3.633 -1.8989  0.3746 -1.2765
 1728TIP3    H226676   0.664   6.771   3.604 -0.6097 -1.1401 -1.7582
 1729TIP3   OH226677   3.613   0.386  13.793  0.2075 -0.3843 -0.0319
 1729TIP3    H126678   3.674   0.331  13.842 -0.1333 -0.4549  0.3222
 1729TIP3    H226679   3.668   0.440  13.737  0.6250 -0.0689  0.6691
 1730TIP3   OH226680   1.998   0.158  13.791  0.3755  0.2080  0.3003
 1730TIP3    H126681   1.963   0.246  13.798  1.1115  0.4054  1.5264
 1730TIP3    H226682   2.058   0.162  13.716 -0.7020  0.3699 -0.5576
 1731TIP3   OH226683   4.845   3.458   5.693 -0.1993  0.8024  0.1338
 1731TIP3    H126684   4.795   3.382   5.722 -2.1890  2.2249  0.5209
 1731TIP3    H226685   4.925   3.456   5.745 -0.8047 -0.3186  1.0255
 1732TIP3   OH226686   2.100   6.539   3.104  0.0736 -0.0356 -0.4232
 1732TIP3    H126687   2.169   6.558   3.167 -1.7692  2.0385  1.0515
 1732TIP3    H226688   2.136   6.567   3.019  1.5333 -0.2450  0.1178
 1733TIP3   OH226689   3.968   4.019  13.359  0.4101  0.0947 -0.2355
 1733TIP3    H126690   3.898   4.001  13.423  0.3708  1.3512  0.0793
 1733TIP3    H226691   3.926   4.072  13.292  0.8746  0.2269 -0.4232
 1734TIP3   OH226692   5.698   1.737   1.163  0.3168 -0.1327 -0.1609
 1734TIP3    H126693   5.781   1.710   1.125  0.4299 -0.4894  0.3347
 1734TIP3    H226694   5.654   1.654   1.184 -0.1977  0.0521 -0.5080
 1735TIP3   OH226695   2.410   1.201   2.049  0.1026  0.0387  0.0509
 1735TIP3    H126696   2.331   1.222   2.098  0.3476 -0.2214  0.5644
 1735TIP3    H226697   2.388   1.123   1.998 -0.0529  0.1239 -0.0108
 1736TIP3   OH226698   2.425   4.779   3.429  0.0018 -0.6340 -0.0955
 1736TIP3    H126699   2.439   4.796   3.336 -0.5121 -1.8740 -0.4135
 1736TIP3    H226700   2.357   4.841   3.456 -1.4064 -1.7271 -1.0731
 1737TIP3   OH226701   4.000   4.073   2.791  0.0605 -0.6348 -0.2856
 1737TIP3    H126702   4.082   4.025   2.785  0.9430  0.3510  2.8112
 1737TIP3    H226703   4.014   4.152   2.739  0.8592 -0.7705 -0.2714
 1738TIP3   OH226704   2.786   0.244   5.862  0.4970 -0.2715  0.1414
 1738TIP3    H126705   2.799   0.328   5.818 -1.4177 -0.0031  0.0471
 1738TIP3    H226706   2.847   0.247   5.936  3.2396 -0.4354 -1.9905
 1739TIP3   OH226707   5.383   0.564   5.584 -0.2319  0.4323  0.2188
 1739TIP3    H126708   5.373   0.659   5.587 -0.9198  0.3861 -0.6363
 1739TIP3    H226709   5.387   0.537   5.676 -0.6563  1.2229  0.4691
 1740TIP3   OH226710   2.003   0.623   0.653  0.1484  0.1309 -0.6022
 1740TIP3    H126711   1.936   0.687   0.674  1.0011  0.7295  0.3005
 1740TIP3    H226712   1.959   0.538   0.659 -0.6477  0.5501 -0.5409
 1741TIP3   OH226713   0.853   0.367   3.512  0.9737  0.8229 -0.0814
 1741TIP3    H126714   0.900   0.363   3.596 -0.3488  4.4277  0.9079
 1741TIP3    H226715   0.886   0.446   3.469 -0.7217  0.8029 -1.4924
 1742TIP3   OH226716   4.400   2.103  16.550  0.8945  0.1304  0.0808
 1742TIP3    H126717   4.351   2.174  16.592  1.5958  0.3244  0.5891
 1742TIP3    H226718   4.394   2.030  16.612  2.3192  0.5600  0.7598
 1743TIP3   OH226719   3.869   2.591  16.650 -0.0836  0.0907  0.3114
 1743TIP3    H126720   3.808   2.663  16.663 -2.6271 -1.7988 -0.8453
 1743TIP3    H226721   3.916   2.613  16.569 -2.7790 -0.7972 -1.5517
 1744TIP3   OH226722   2.321   5.095   5.783  0.5830  0.0451  0.7144
 1744TIP3    H126723   2.300   5.067   5.694  1.6771  0.3033  0.3740
 1744TIP3    H226724   2.351   5.016   5.827 -0.9451 -0.3004  1.1680
 1745TIP3   OH226725   1.215   0.840   4.961  0.0895 -0.2598 -0.4541
 1745TIP3    H126726   1.255   0.858   4.876 -0.6813 -0.9133 -0.9635
 1745TIP3    H226727   1.121   0.855   4.947  0.0670  0.6001  0.5480
 1746TIP3   OH226728   1.037   1.559   2.910 -0.5409 -0.2659 -0.2933
 1746TIP3    H126729   1.048   1.528   3.000 -0.7828 -0.1144 -0.2120
 1746TIP3    H226730   1.110   1.519   2.862 -0.2695 -0.1482  0.0187
 1747TIP3   OH226731   5.793   3.224   6.377  0.1059 -0.2369  0.1421
 1747TIP3    H126732   5.802   3.289   6.446 -0.2881 -0.1744  0.1368
 1747TIP3    H226733   5.705   3.238   6.342  0.9028  0.8519 -1.5107
 1748TIP3   OH226734   3.519   6.097   5.288  0.8016 -0.4182  0.4964
 1748TIP3    H126735   3.460   6.037   5.334 -0.4943  0.7185  0.3729
 1748TIP3    H226736   3.514   6.070   5.196 -1.3233  1.0629  0.1298
 1749TIP3   OH226737   4.722   2.430   2.294  0.0339 -0.1403  0.3488
 1749TIP3    H126738   4.787   2.416   2.225 -0.2534  0.0053  0.0451
 1749TIP3    H226739   4.717   2.525   2.303  0.0410 -0.1586  0.5435
 1750TIP3   OH226740   5.334   4.852   0.930  0.1774  0.4769 -0.4032
 1750TIP3    H126741   5.313   4.762   0.956 -0.0211  0.6154 -0.0796
 1750TIP3    H226742   5.428   4.850   0.912  0.4647  0.5306  1.0232
 1751TIP3   OH226743   0.911   3.835  16.432  0.2589 -0.3750 -0.1130
 1751TIP3    H126744   0.837   3.893  16.446  1.5888  1.8313 -1.9776
 1751TIP3    H226745   0.881   3.773  16.365  0.0547  0.4417 -0.7802
 1752TIP3   OH226746   1.982   1.795  16.464 -0.6603  0.0045  0.0808
 1752TIP3    H126747   2.047   1.778  16.532  0.4754  0.2644 -0.9343
 1752TIP3    H226748   1.945   1.880  16.488 -1.0380 -0.4038  0.9751
 1753TIP3   OH226749   6.816   0.507  12.511 -0.2794  0.0904 -0.6154
 1753TIP3    H126750   6.833   0.525  12.419 -0.5391  2.1837 -0.2800
 1753TIP3    H226751   6.733   0.460  12.512 -0.2200 -0.0310 -1.4561
 1754TIP3   OH226752   1.306   2.058  15.812 -0.5235  0.1397 -0.1244
 1754TIP3    H126753   1.357   1.984  15.845 -1.0179  0.2384  0.8546
 1754TIP3    H226754   1.222   2.052  15.856  0.0891  2.3719  1.4323
 1755TIP3   OH226755   5.388   1.665   1.933  0.7431 -0.0542 -0.0375
 1755TIP3    H126756   5.359   1.655   1.842  2.6161 -0.7319 -0.5977
 1755TIP3    H226757   5.441   1.586   1.949  1.9217  0.9338  1.0329
 1756TIP3   OH226758   3.674   5.303   5.033  0.0226  0.6866 -0.1667
 1756TIP3    H126759   3.747   5.242   5.033  0.5888  1.3405 -1.3463
 1756TIP3    H226760   3.683   5.351   4.951 -1.5864  0.9547 -0.2062
 1757TIP3   OH226761   5.649   0.652  14.953  0.0271  0.2139 -0.3353
 1757TIP3    H126762   5.660   0.583  14.888 -0.2379  0.6997 -0.9080
 1757TIP3    H226763   5.555   0.664  14.960  0.0682  0.4439 -0.1635
 1758TIP3   OH226764   5.164   5.222   2.561 -0.4217  0.1456 -0.3012
 1758TIP3    H126765   5.076   5.212   2.598 -0.6413 -1.8607 -1.3075
 1758TIP3    H226766   5.191   5.133   2.540  1.6980  0.8015 -0.3957
 1759TIP3   OH226767   2.878   1.959   1.475  0.0116 -0.2963  0.2560
 1759TIP3    H126768   2.939   1.971   1.402 -1.0721  0.9606 -0.4513
 1759TIP3    H226769   2.901   2.028   1.537 -1.1582  0.6393 -0.3393
 1760TIP3   OH226770   1.565   5.998  14.740 -0.2399  0.0710  0.5377
 1760TIP3    H126771   1.504   6.001  14.814 -0.1574 -2.1653  0.7294
 1760TIP3    H226772   1.646   6.037  14.774  0.0958 -1.8003  1.9455
 1761TIP3   OH226773   0.082   3.218   0.015  0.1289 -0.3069 -0.5675
 1761TIP3    H126774   0.016   3.153  -0.009 -0.6947 -0.2414  1.4268
 1761TIP3    H226775   0.032   3.298   0.031  0.6279 -0.3467  1.3121
 1762TIP3   OH226776   4.100   6.258  13.162  0.3774 -0.3185 -0.2041
 1762TIP3    H126777   4.121   6.196  13.232  1.3169  2.2485  1.8894
 1762TIP3    H226778   4.032   6.215  13.111 -1.7724 -1.5293  3.4701
 1763TIP3   OH226779   3.785   1.988   6.588 -0.1514  0.2711  0.6484
 1763TIP3    H126780   3.733   2.005   6.509 -0.5613 -2.4144  0.2899
 1763TIP3    H226781   3.871   1.963   6.553 -0.8291 -2.6262  0.9371
 1764TIP3   OH226782   4.759   6.418   2.598  0.2149  0.6526  0.0298
 1764TIP3    H126783   4.673   6.460   2.606  0.9407  2.1400  0.1002
 1764TIP3    H226784   4.738   6.325   2.584 -1.4019  0.9820  0.0735
 1765TIP3   OH226785   4.035   1.788   5.828 -0.2652 -0.0832 -0.4502
 1765TIP3    H126786   4.025   1.774   5.922  1.6521  1.7060  0.0700
 1765TIP3    H226787   4.080   1.710   5.797 -0.4949 -0.4806  0.2172
 1766TIP3   OH226788   1.814   3.377   1.596 -0.1224  0.5612  0.1208
 1766TIP3    H126789   1.888   3.374   1.657  0.4723 -0.7210 -0.6503
 1766TIP3    H226790   1.747   3.425   1.643  0.4358 -0.1567  1.6930
 1767TIP3   OH226791   3.723   4.030   6.627  0.3902  0.1197  0.5556
 1767TIP3    H126792   3.689   4.088   6.559 -0.9614 -1.9256 -0.5924
 1767TIP3    H226793   3.652   3.966   6.641  1.9403 -1.4392  1.5149
 1768TIP3   OH226794   1.084   4.952  14.261 -0.4683  0.6880  0.2370
 1768TIP3    H126795   1.021   4.949  14.188 -0.1777  1.1230 -0.0335
 1768TIP3    H226796   1.038   4.999  14.330  0.2585  2.7926 -0.6593
 1769TIP3   OH226797   1.352   1.030   1.834  0.3437  0.2148 -0.3374
 1769TIP3    H126798   1.435   0.994   1.805  0.4168 -0.6167  0.8634
 1769TIP3    H226799   1.375   1.091   1.904 -0.2420 -2.5445  2.3927
 1770TIP3   OH226800   3.058   1.650  17.142 -0.0648 -0.8322 -0.1653
 1770TIP3    H126801   3.044   1.745  17.136 -0.2434 -0.8954 -0.7847
 1770TIP3    H226802   3.152   1.639  17.125  0.1100 -0.7002  0.6952
 1771TIP3   OH226803   0.372   6.759   1.215  0.2541  0.7110  0.6320
 1771TIP3    H126804   0.300   6.732   1.272 -0.3407  0.9757  0.0262
 1771TIP3    H226805   0.329   6.812   1.147  1.2016  1.9312  0.9806
 1772TIP3   OH226806   5.755   2.379  15.305 -0.8658 -0.2251  0.4931
 1772TIP3    H126807   5.758   2.472  15.280 -0.4712 -0.6791 -1.2477
 1772TIP3    H226808   5.822   2.338  15.251 -1.7710 -1.6942  0.4654
 1773TIP3   OH226809   4.881   2.530  13.376  0.6823  0.6878 -0.0305
 1773TIP3    H126810   4.916   2.466  13.314  0.2802 -0.0257  0.4716
 1773TIP3    H226811   4.903   2.615  13.338  1.4310  0.2516 -0.5866
 1774TIP3   OH226812   0.446   0.003  13.838 -0.2369  0.6657 -0.1044
 1774TIP3    H126813   0.372   0.052  13.875 -1.4542 -0.8516 -0.4355
 1774TIP3    H226814   0.421  -0.089  13.850  2.3959  0.0929  1.3108
 1775TIP3   OH226815   3.002   5.125  15.940 -0.1149 -0.1669 -0.8991
 1775TIP3    H126816   2.942   5.199  15.946  2.0522  1.5878 -0.3021
 1775TIP3    H226817   2.953   5.051  15.976 -2.5762  0.7760 -2.1813
 1776TIP3   OH226818   5.119   5.678   2.478 -0.0626 -0.4506 -0.9780
 1776TIP3    H126819   5.052   5.636   2.532  0.9909  0.8727  1.4183
 1776TIP3    H226820   5.189   5.613   2.473 -0.6618 -1.0522 -1.8167
 1777TIP3   OH226821   5.913   2.534  12.217  0.0654 -0.1281 -0.4017
 1777TIP3    H126822   5.903   2.439  12.214  0.1261 -0.2135  1.3904
 1777TIP3    H226823   5.949   2.551  12.304 -1.9927  1.6922  0.1470
 1778TIP3   OH226824   2.814   5.324   3.604 -0.2372  0.0699 -0.2108
 1778TIP3    H126825   2.763   5.289   3.532  1.0735  0.7877 -1.5275
 1778TIP3    H226826   2.903   5.290   3.590  0.1079  0.4872  0.8575
 1779TIP3   OH226827   3.776   3.339  12.315 -0.4176  0.2400  0.5607
 1779TIP3    H126828   3.749   3.304  12.230  1.0197 -2.1982  1.0727
 1779TIP3    H226829   3.740   3.278  12.379 -0.2966  1.2878  1.6537
 1780TIP3   OH226830   1.085   5.854   1.704  0.1846  0.0074 -0.7358
 1780TIP3    H126831   1.077   5.938   1.749  0.8675 -0.7184  0.7930
 1780TIP3    H226832   1.178   5.844   1.688  0.1824 -0.7410 -0.3224
 1781TIP3   OH226833   0.171   4.356  14.497 -0.0907  1.0034  0.1733
 1781TIP3    H126834   0.230   4.428  14.520 -0.5718  0.9917  1.5039
 1781TIP3    H226835   0.093   4.399  14.463 -0.4762  1.1343  1.2010
 1782TIP3   OH226836   3.281   4.891  15.158 -0.0446  0.1643  0.3417
 1782TIP3    H126837   3.312   4.913  15.246 -1.0231  2.2928  0.1846
 1782TIP3    H226838   3.221   4.818  15.172  0.8522 -0.4162  1.2642
 1783TIP3   OH226839   4.952   2.229   2.578 -0.0672 -0.2039 -0.8424
 1783TIP3    H126840   4.862   2.202   2.561  0.0599 -2.4714  1.7465
 1783TIP3    H226841   4.952   2.253   2.670  1.5589  1.6905 -1.3108
 1784TIP3   OH226842   0.586   5.670   4.464  0.3729  0.7108 -0.2034
 1784TIP3    H126843   0.592   5.753   4.511 -3.9323  0.0121  1.7855
 1784TIP3    H226844   0.660   5.619   4.496  0.4311  2.1207  2.0282
 1785TIP3   OH226845   3.801   5.810   5.999  0.3868  0.2138 -0.0747
 1785TIP3    H126846   3.706   5.794   6.001  0.8057 -2.3704  1.0830
 1785TIP3    H226847   3.818   5.864   6.077  0.1862 -1.3601  1.0781
 1786TIP3   OH226848   5.383   0.567  15.368  0.1396  0.2243 -0.2993
 1786TIP3    H126849   5.401   0.647  15.318 -1.0567  0.5530 -0.2014
 1786TIP3    H226850   5.402   0.496  15.306  1.6761  0.5505 -0.2335
 1787TIP3   OH226851   6.042   3.067  14.259 -0.5784 -0.0841  0.0633
 1787TIP3    H126852   6.018   2.987  14.213  0.1251 -0.5892  0.5650
 1787TIP3    H226853   5.959   3.103  14.291 -0.8539 -0.8283  0.1917
 1788TIP3   OH226854   4.555   5.096   0.163 -0.0108 -0.0048  0.2495
 1788TIP3    H126855   4.606   5.176   0.174  0.5897 -0.1684 -1.3076
 1788TIP3    H226856   4.584   5.060   0.080 -1.0878 -1.2623  0.4034
 1789TIP3   OH226857   4.025   2.265   2.612 -0.4561 -0.4641 -0.3861
 1789TIP3    H126858   3.975   2.337   2.650 -0.6537 -1.3233  1.0447
 1789TIP3    H226859   4.080   2.306   2.545  1.2102  1.4343  2.0497
 1790TIP3   OH226860   5.604   4.350  13.658 -0.5350  0.2980 -0.3710
 1790TIP3    H126861   5.649   4.274  13.621 -1.9121 -1.4948  1.5622
 1790TIP3    H226862   5.621   4.421  13.595  2.6172 -1.0123 -1.0756
 1791TIP3   OH226863   5.393   0.963   2.699 -0.1290  0.1683 -0.6583
 1791TIP3    H126864   5.430   1.049   2.679  0.7566 -0.1485 -0.3632
 1791TIP3    H226865   5.468   0.906   2.710 -0.7134 -0.5884 -0.5692
 1792TIP3   OH226866   1.023   4.307  11.164  0.0849  0.7344 -0.7245
 1792TIP3    H126867   0.998   4.380  11.107  1.7629  1.3712 -0.6737
 1792TIP3    H226868   1.102   4.338  11.209 -0.2256 -0.4312  0.6518
 1793TIP3   OH226869   0.481   5.213  12.946  0.1995 -0.0234 -0.6051
 1793TIP3    H126870   0.495   5.162  12.867 -0.7780  1.4325 -1.7352
 1793TIP3    H226871   0.512   5.301  12.924  0.1273  0.3488  0.7066
 1794TIP3   OH226872   3.263   3.923   2.034  0.5288 -0.1137  0.2154
 1794TIP3    H126873   3.263   3.841   2.084  0.2231 -0.6090 -0.5973
 1794TIP3    H226874   3.171   3.947   2.028  0.3948 -1.0107 -1.6591
 1795TIP3   OH226875   3.533   3.200  11.423  0.1778  0.5314 -0.0673
 1795TIP3    H126876   3.485   3.123  11.391  0.3618  0.9253 -1.2995
 1795TIP3    H226877   3.513   3.269  11.360  1.6379  0.9465 -0.0891
 1796TIP3   OH226878   5.193   5.077  15.101  0.2365  0.2015  0.1842
 1796TIP3    H126879   5.227   4.991  15.077 -0.6203 -0.0107 -0.3199
 1796TIP3    H226880   5.099   5.061  15.115 -0.1057  1.2516 -0.8929
 1797TIP3   OH226881   5.882   4.672  10.847  0.3480  0.0351 -0.4079
 1797TIP3    H126882   5.904   4.664  10.754 -1.3279 -1.8360 -0.6894
 1797TIP3    H226883   5.808   4.734  10.849 -1.7521 -2.3693 -0.7229
 1798TIP3   OH226884   5.445   2.024   5.526  0.5144 -1.0836 -0.1864
 1798TIP3    H126885   5.403   2.099   5.567  0.8090 -0.8062 -0.3888
 1798TIP3    H226886   5.495   2.061   5.454  1.8681 -1.2837  0.6240
 1799TIP3   OH226887   5.369   3.248  14.885  0.3173 -0.0868 -0.2327
 1799TIP3    H126888   5.347   3.186  14.815  0.6740 -1.9079  1.2373
 1799TIP3    H226889   5.301   3.315  14.880 -0.8398 -1.2925 -1.0225
 1800TIP3   OH226890   5.579   2.858  14.146  0.7932 -0.6893  0.1047
 1800TIP3    H126891   5.569   2.826  14.236  2.2261 -1.3957  0.0271
 1800TIP3    H226892   5.536   2.791  14.092 -0.6508  0.0626  0.2891
 1801TIP3   OH226893   5.148   1.284   0.600  0.2251 -0.1558  0.1325
 1801TIP3    H126894   5.193   1.328   0.672  0.7168  0.1302 -0.3448
 1801TIP3    H226895   5.189   1.319   0.521 -0.3095 -0.4663 -0.2893
 1802TIP3   OH226896   1.654   4.761  15.154  0.1316 -0.1346  0.1462
 1802TIP3    H126897   1.602   4.798  15.082 -1.9527 -1.0395  1.1464
 1802TIP3    H226898   1.686   4.838  15.202 -0.0371  0.4347 -0.6304
 1803TIP3   OH226899   1.979   6.503  16.721  0.3242 -0.2585  0.7018
 1803TIP3    H126900   1.981   6.594  16.691 -1.3383 -0.5604 -0.4237
 1803TIP3    H226901   1.896   6.496  16.768  0.4532 -1.1850  0.8014
 1804TIP3   OH226902   5.637   3.888  17.149  0.0377  0.2084  0.4933
 1804TIP3    H126903   5.700   3.820  17.121 -1.3464 -0.7074 -0.4540
 1804TIP3    H226904   5.659   3.904  17.241  1.9895  0.2737  0.0508
 1805TIP3   OH226905   3.709   0.153  16.715  0.1746  0.1360 -0.2484
 1805TIP3    H126906   3.790   0.156  16.664 -0.4537  2.0305 -1.1890
 1805TIP3    H226907   3.657   0.085  16.672  0.0669  1.0038 -1.5345
 1806TIP3   OH226908   0.628   2.913   1.972  0.4441  0.4802  0.0510
 1806TIP3    H126909   0.713   2.957   1.982  0.4574  1.0167 -2.2064
 1806TIP3    H226910   0.644   2.845   1.907 -0.5035 -0.4674  0.7837
 1807TIP3   OH226911   4.970   3.328  15.421 -0.1185  0.7754  0.0036
 1807TIP3    H126912   4.897   3.277  15.456  1.5709 -2.8534 -1.4771
 1807TIP3    H226913   5.040   3.317  15.486 -0.4651  3.2123  0.8190
 1808TIP3   OH226914   5.864   4.626   3.922  0.0098  0.2335 -0.5572
 1808TIP3    H126915   5.913   4.699   3.959 -0.2618  0.6973 -1.1187
 1808TIP3    H226916   5.779   4.629   3.967  0.4367 -0.4976  0.3277
 1809TIP3   OH226917   1.137   4.900   0.798  0.2962 -0.7984  0.0632
 1809TIP3    H126918   1.071   4.948   0.847 -0.1927 -1.2394 -0.1582
 1809TIP3    H226919   1.105   4.900   0.708  0.4158 -1.3173  0.0184
 1810TIP3   OH226920   1.481   6.708   5.077 -0.5522  0.2698 -0.0011
 1810TIP3    H126921   1.552   6.768   5.053  0.6197 -0.4346  1.6437
 1810TIP3    H226922   1.458   6.664   4.995  0.1349  1.3007 -0.7663
 1811TIP3   OH226923   4.249   2.264  12.375 -0.4463  0.4055  0.2457
 1811TIP3    H126924   4.217   2.343  12.418  1.2795  1.1705  0.1852
 1811TIP3    H226925   4.344   2.269  12.384 -0.3165 -1.6870  0.2586
 1812TIP3   OH226926   2.320   1.265   3.734  0.1657 -0.1998  0.2934
 1812TIP3    H126927   2.387   1.275   3.802 -0.2259  2.9734  0.2807
 1812TIP3    H226928   2.365   1.290   3.653 -0.3375 -0.5821 -0.1045
 1813TIP3   OH226929   3.927   4.181   5.347 -0.2864  0.1361 -0.3937
 1813TIP3    H126930   3.884   4.198   5.431 -0.5743  2.4948 -0.9841
 1813TIP3    H226931   4.011   4.226   5.354 -0.5055  0.7344 -1.5495
 1814TIP3   OH226932   4.489   0.492   5.633  0.3786 -0.2964  0.8043
 1814TIP3    H126933   4.401   0.471   5.601  0.8488 -1.1555  0.0502
 1814TIP3    H226934   4.529   0.407   5.649  1.0243  0.0980  1.2743
 1815TIP3   OH226935   5.407   0.093   2.940  0.3665  0.3515  0.0975
 1815TIP3    H126936   5.392   0.175   2.987  0.0929  0.3659 -0.0158
 1815TIP3    H226937   5.459   0.039   3.001  0.0464  0.3848  0.3978
 1816TIP3   OH226938   1.091   0.538  14.182  0.2229  0.1316 -0.2365
 1816TIP3    H126939   1.107   0.541  14.277 -1.3006  0.5199  0.0243
 1816TIP3    H226940   1.151   0.604  14.146  0.0158  0.7792  0.5812
 1817TIP3   OH226941   5.984   0.240   2.220 -0.1549  0.1987 -0.3064
 1817TIP3    H126942   6.058   0.221   2.277 -0.6227  1.1612  0.6590
 1817TIP3    H226943   5.999   0.330   2.190  0.1057 -0.3102 -1.7474
 1818TIP3   OH226944   2.240   3.524   2.520  0.0757  0.1123  0.5107
 1818TIP3    H126945   2.294   3.600   2.540 -0.2519  0.4852  0.0012
 1818TIP3    H226946   2.261   3.461   2.589  3.5155 -0.9897 -1.4519
 1819TIP3   OH226947   2.747   4.258   2.816  0.2359 -0.1382 -0.7670
 1819TIP3    H126948   2.670   4.286   2.866  1.1343  0.8976  0.0838
 1819TIP3    H226949   2.757   4.326   2.749  1.9871  1.2687  0.8379
 1820TIP3   OH226950   2.220   1.562   0.126  0.6031  0.0743  0.1926
 1820TIP3    H126951   2.186   1.495   0.185  0.2361  1.3475  1.4573
 1820TIP3    H226952   2.289   1.518   0.077  1.6212 -0.7422  2.2909
 1821TIP3   OH226953   5.190   3.774  12.574 -0.4050 -0.2971  0.4366
 1821TIP3    H126954   5.208   3.791  12.481  0.0504 -1.0088  0.3902
 1821TIP3    H226955   5.277   3.769  12.614 -0.5264 -2.2986  0.4813
 1822TIP3   OH226956   0.662   4.064  11.171  0.1928  0.1194 -0.1447
 1822TIP3    H126957   0.630   4.143  11.214 -3.1100 -2.1524  1.8349
 1822TIP3    H226958   0.619   4.063  11.086 -1.3878 -0.5580  0.6516
 1823TIP3   OH226959   1.023   4.167   3.971  0.4322  0.7645 -0.4333
 1823TIP3    H126960   1.027   4.245   4.027 -0.1321  0.2612  0.3133
 1823TIP3    H226961   1.096   4.178   3.909  3.0626 -0.1434  2.3404
 1824TIP3   OH226962   2.919   5.981  15.447  0.4192 -0.1795 -0.7987
 1824TIP3    H126963   2.984   6.030  15.497  0.3454 -0.9146  0.0330
 1824TIP3    H226964   2.841   6.037  15.447 -0.0121 -0.7443  1.0635
 1825TIP3   OH226965   3.945   1.234   1.882 -0.1634  0.0248  0.8962
 1825TIP3    H126966   3.864   1.187   1.864 -0.5314  0.8013  0.4847
 1825TIP3    H226967   4.007   1.202   1.817  0.3337 -1.7317  2.2023
 1826TIP3   OH226968   1.998   0.454  13.261 -0.5450  0.0038  0.1730
 1826TIP3    H126969   2.093   0.468  13.261 -0.2957 -1.4994 -0.7640
 1826TIP3    H226970   1.961   0.539  13.236  0.6516  0.1879 -1.0720
 1827TIP3   OH226971   4.242   6.045   1.436 -0.5436 -0.1049  0.6493
 1827TIP3    H126972   4.298   6.115   1.404 -0.8171 -0.0689  0.2419
 1827TIP3    H226973   4.194   6.083   1.509 -0.7164  0.1392  0.4061
 1828TIP3   OH226974   5.055   3.965   1.663  0.0216 -0.0932  0.5989
 1828TIP3    H126975   5.021   4.011   1.740 -0.9220 -0.6607  0.5256
 1828TIP3    H226976   5.105   4.032   1.616  0.6431  0.2489  1.7215
 1829TIP3   OH226977   4.200   3.718   0.381  0.3101 -0.2990  0.0370
 1829TIP3    H126978   4.105   3.717   0.367  0.1867  0.5565  0.7550
 1829TIP3    H226979   4.227   3.806   0.355  1.0282 -0.8041 -0.9223
 1830TIP3   OH226980   3.828   0.786   1.441  0.3626 -0.0181  0.7439
 1830TIP3    H126981   3.791   0.810   1.525 -1.1359  0.0167  0.0874
 1830TIP3    H226982   3.920   0.767   1.459  0.0427 -0.0193  2.3762
 1831TIP3   OH226983   0.770   4.959  16.469 -0.2182 -0.0313 -0.0022
 1831TIP3    H126984   0.863   4.966  16.451 -0.6004  0.5519 -1.8915
 1831TIP3    H226985   0.748   4.867  16.451  0.0800 -0.2840  0.9142
 1832TIP3   OH226986   5.107   5.977  16.278 -0.2159  0.5218 -0.2541
 1832TIP3    H126987   5.096   5.968  16.184  2.3641 -0.2302 -0.5255
 1832TIP3    H226988   5.131   5.889  16.308  0.0358  0.9844  0.9427
 1833TIP3   OH226989   0.240   1.747  14.633 -0.1426  0.1761  0.0510
 1833TIP3    H126990   0.323   1.789  14.654  0.0559 -0.5705  0.7950
 1833TIP3    H226991   0.174   1.809  14.663  0.1462 -0.4156  1.9585
 1834TIP3   OH226992   3.693   5.844   3.156 -0.4922 -0.6037  0.3606
 1834TIP3    H126993   3.710   5.861   3.248 -0.5304  0.1399  0.2283
 1834TIP3    H226994   3.629   5.911   3.130 -1.5666 -1.6793  0.1596
 1835TIP3   OH226995   0.290   2.018   4.504 -0.0581 -0.1343 -0.4642
 1835TIP3    H126996   0.221   2.079   4.477 -0.2642 -1.3290 -2.8048
 1835TIP3    H226997   0.336   2.063   4.575 -0.9509  2.2336 -1.3426
 1836TIP3   OH226998   3.045   6.713   5.470 -0.3010  0.1373  0.6246
 1836TIP3    H126999   3.098   6.764   5.531  0.1026  0.8765 -0.3192
 1836TIP3    H227000   2.962   6.759   5.466 -0.4648 -0.1322  0.9083
 1837TIP3   OH227001   6.376   2.117  13.285  0.3585 -0.3355  0.4090
 1837TIP3    H127002   6.315   2.170  13.337  1.4197  0.5749  0.7613
 1837TIP3    H227003   6.321   2.073  13.221 -0.9044 -0.9957  1.9011
 1838TIP3   OH227004   0.125   1.068   4.150 -0.5049 -0.1528 -0.2618
 1838TIP3    H127005   0.105   1.039   4.060 -3.3036 -0.3224  0.3756
 1838TIP3    H227006   0.051   1.037   4.202  1.4930 -0.8030  2.3039
 1839TIP3   OH227007   3.659   4.363  17.076  0.6991  0.1112 -0.0546
 1839TIP3    H127008   3.584   4.368  17.016  1.1748  1.7547 -0.5559
 1839TIP3    H227009   3.638   4.291  17.136 -0.8144 -0.0916 -0.8116
 1840TIP3   OH227010   4.244   3.842  15.163 -0.3826  0.6582 -0.6296
 1840TIP3    H127011   4.214   3.840  15.254 -0.1615  0.9699 -0.5465
 1840TIP3    H227012   4.168   3.872  15.113 -0.3431  1.0083 -0.4785
 1841TIP3   OH227013   0.363   1.117  17.277  0.1859 -0.1696 -0.1606
 1841TIP3    H127014   0.422   1.192  17.282 -1.0738  0.8677 -0.8306
 1841TIP3    H227015   0.389   1.072  17.196  0.0002  0.3266 -0.4923
 1842TIP3   OH227016   3.368   6.481  11.767  0.5435  0.0908  0.1560
 1842TIP3    H127017   3.435   6.527  11.817 -0.9022  1.2742  1.0772
 1842TIP3    H227018   3.411   6.454  11.687  2.0755  0.9596  0.6737
 1843TIP3   OH227019   3.045   4.685  15.535 -0.0482  0.2676  0.1284
 1843TIP3    H127020   3.135   4.701  15.508 -0.0067 -0.3510 -0.1067
 1843TIP3    H227021   3.048   4.599  15.578  0.0411  1.5354  2.7829
 1844TIP3   OH227022   3.861   2.463  11.483  0.2812 -0.1741  0.0117
 1844TIP3    H127023   3.838   2.371  11.485 -0.0309 -0.0888  0.3043
 1844TIP3    H227024   3.938   2.467  11.426  0.7050 -0.7074  0.5362
 1845TIP3   OH227025   5.863   4.654  16.887  0.1637  0.2433  0.1398
 1845TIP3    H127026   5.860   4.698  16.802 -0.6098 -0.1281 -0.0377
 1845TIP3    H227027   5.866   4.724  16.952  3.2528  0.5111 -0.2660
 1846TIP3   OH227028   2.567   6.667   3.146 -0.3618  0.2123  0.1097
 1846TIP3    H127029   2.581   6.628   3.233 -0.6888 -0.4519 -0.1334
 1846TIP3    H227030   2.599   6.757   3.155 -0.5395  0.1930  0.9589
 1847TIP3   OH227031   6.366   4.912   2.621  0.4913  0.1141 -0.4049
 1847TIP3    H127032   6.383   4.982   2.557  1.4338 -0.5755 -0.9129
 1847TIP3    H227033   6.315   4.847   2.573  1.2615 -0.4384 -0.4890
 1848TIP3   OH227034   4.789   4.322   0.313  0.3220 -0.8148  0.4910
 1848TIP3    H127035   4.850   4.249   0.330 -0.1683 -1.4980 -0.6490
 1848TIP3    H227036   4.846   4.398   0.302  0.7790 -0.7122  3.0988
 1849TIP3   OH227037   2.676   2.675  16.305 -0.0878  0.0478  0.4452
 1849TIP3    H127038   2.683   2.605  16.241 -1.0066  0.3880 -0.0412
 1849TIP3    H227039   2.766   2.700  16.324  0.1975  1.5392 -2.5017
 1850TIP3   OH227040   4.736   5.362   5.440  0.2566  0.4151  0.4401
 1850TIP3    H127041   4.787   5.308   5.380 -0.6314 -0.1993  0.2202
 1850TIP3    H227042   4.660   5.307   5.462 -1.4898  2.1677 -1.0475
 1851TIP3   OH227043   2.583   0.972  14.040  0.6066 -0.5568 -0.1970
 1851TIP3    H127044   2.578   0.876  14.045 -0.1231 -0.4415  2.4987
 1851TIP3    H227045   2.593   0.991  13.947  1.7347 -3.2979 -0.6945
 1852TIP3   OH227046   0.138   1.409  12.588 -0.1008  0.2986 -0.0826
 1852TIP3    H127047   0.137   1.497  12.550  0.6074  0.7035  0.8055
 1852TIP3    H227048   0.104   1.421  12.677 -3.9265 -0.9970 -1.2527
 1853TIP3   OH227049   4.361   1.249   1.144 -0.1959  0.2516 -0.3597
 1853TIP3    H127050   4.437   1.191   1.152  0.6533  1.3741 -0.0983
 1853TIP3    H227051   4.290   1.202   1.187  0.5341 -0.4912  0.0487
 1854TIP3   OH227052   1.421   2.736   1.061 -0.1327  0.0942 -0.5910
 1854TIP3    H127053   1.359   2.667   1.083  1.2434 -0.9810 -0.0199
 1854TIP3    H227054   1.500   2.714   1.110 -0.1638  2.9068  0.7965
 1855TIP3   OH227055   5.824   5.628  15.946 -0.2475 -0.1415  0.0431
 1855TIP3    H127056   5.909   5.672  15.953  0.5082 -1.6066  0.3188
 1855TIP3    H227057   5.835   5.548  15.997 -1.3567 -1.0029 -1.0617
 1856TIP3   OH227058   2.580   3.620  14.443 -0.7577 -0.1479  0.5799
 1856TIP3    H127059   2.623   3.562  14.380  0.2622 -0.0626  1.1975
 1856TIP3    H227060   2.529   3.681  14.389 -1.6658 -1.4721 -0.0810
 1857TIP3   OH227061   2.994   5.684  17.215  0.0955  0.6490 -0.1551
 1857TIP3    H127062   3.007   5.778  17.203  0.1944  0.6607  0.0471
 1857TIP3    H227063   3.020   5.667  17.305 -0.8004  0.5894  0.1009
 1858TIP3   OH227064   0.766   5.114  13.217  0.1916  0.3260 -0.0076
 1858TIP3    H127065   0.766   5.192  13.162  0.9491 -0.6170 -1.3728
 1858TIP3    H227066   0.705   5.135  13.288 -2.4981  0.7900 -2.3464
 1859TIP3   OH227067   6.188   5.660  13.361 -0.4969  0.2240 -0.2222
 1859TIP3    H127068   6.249   5.589  13.339  4.5770  4.6630 -1.5710
 1859TIP3    H227069   6.220   5.694  13.444 -3.9523 -0.0688  1.3183
 1860TIP3   OH227070   4.243   6.466  11.026 -0.6096  0.2429  0.5552
 1860TIP3    H127071   4.287   6.469  11.111 -1.8369 -1.0391  1.2672
 1860TIP3    H227072   4.178   6.396  11.036 -1.9027  1.2232 -0.8822
 1861TIP3   OH227073   1.887   4.552   1.481 -0.2361  0.0406 -0.3710
 1861TIP3    H127074   1.793   4.552   1.462 -0.4607  0.9031  0.7388
 1861TIP3    H227075   1.916   4.640   1.458  0.2795 -0.1769 -0.5655
 1862TIP3   OH227076   4.523   0.674  10.678  0.3325 -0.0039 -0.4724
 1862TIP3    H127077   4.562   0.636  10.599 -1.7048  0.4204 -1.7116
 1862TIP3    H227078   4.557   0.764  10.679  0.8333 -0.1884 -0.5343
 1863TIP3   OH227079   6.608   6.034  13.258  0.5160  0.2561  0.1437
 1863TIP3    H127080   6.593   5.940  13.269  2.4217 -0.1626 -0.5923
 1863TIP3    H227081   6.583   6.073  13.342  1.1308 -1.0869  0.9572
 1864TIP3   OH227082   3.258   0.365   0.373 -0.2240  0.6335  0.0489
 1864TIP3    H127083   3.293   0.374   0.462  0.4479 -0.4141 -0.1013
 1864TIP3    H227084   3.178   0.417   0.373 -0.2344  0.6201  1.2723
 1865TIP3   OH227085   2.577   4.751   4.969  0.4158  0.3699  0.0339
 1865TIP3    H127086   2.520   4.828   4.974 -0.8191 -0.4766 -0.6298
 1865TIP3    H227087   2.585   4.733   4.875  1.9910  0.6273  0.1150
 1866TIP3   OH227088   2.042   5.440   1.341  0.4059  0.0457 -0.6172
 1866TIP3    H127089   2.104   5.374   1.369  0.2291  0.1236 -0.0456
 1866TIP3    H227090   2.052   5.511   1.404 -0.1255  0.1401 -0.6379
 1867TIP3   OH227091   1.679   1.262  15.232 -0.0671 -0.0176 -0.1488
 1867TIP3    H127092   1.752   1.264  15.294  0.7519 -1.2405 -1.0402
 1867TIP3    H227093   1.603   1.237  15.284  0.3237  0.3773  0.6172
 1868TIP3   OH227094   4.797   0.345   3.433  0.4800  0.1093 -0.3467
 1868TIP3    H127095   4.717   0.341   3.485  0.7608 -1.0533  0.0005
 1868TIP3    H227096   4.767   0.340   3.342  0.0857  0.8293 -0.2630
 1869TIP3   OH227097   5.093   4.186   5.901  0.0315 -0.1992  0.2227
 1869TIP3    H127098   5.068   4.255   5.962  1.5391 -0.6436  1.3823
 1869TIP3    H227099   5.152   4.229   5.839 -1.6603  0.2989 -1.0632
 1870TIP3   OH227100   2.096   6.264  15.712  0.1878  0.5634 -0.5975
 1870TIP3    H127101   2.150   6.343  15.721 -0.2451  0.8024 -0.0794
 1870TIP3    H227102   2.147   6.196  15.755 -0.6730  1.1453  1.3711
 1871TIP3   OH227103   4.761   1.456   1.600  0.2381  0.2491  0.3396
 1871TIP3    H127104   4.689   1.406   1.639 -1.7491  2.7871  0.0521
 1871TIP3    H227105   4.771   1.532   1.656  0.6299  1.4725 -1.3302
 1872TIP3   OH227106   2.125   3.291  15.346  0.1917  0.5862 -0.0416
 1872TIP3    H127107   2.059   3.225  15.367 -0.3607  0.1662 -2.8817
 1872TIP3    H227108   2.208   3.243  15.344 -0.0951  0.1334 -1.2644
 1873TIP3   OH227109   6.132   0.027  15.202  0.1275  0.3472  0.4365
 1873TIP3    H127110   6.149   0.011  15.295 -3.6312  1.0983  1.3246
 1873TIP3    H227111   6.135   0.123  15.193 -0.1379  0.3067 -0.0981
 1874TIP3   OH227112   2.169   0.174   2.475  0.1851 -0.4371 -0.3468
 1874TIP3    H127113   2.201   0.084   2.471 -0.9583 -0.8124 -1.6571
 1874TIP3    H227114   2.080   0.169   2.439 -0.0186  1.1588 -0.1035
 1875TIP3   OH227115   6.792   5.540  16.542  0.1143 -0.1951  0.5217
 1875TIP3    H127116   6.753   5.587  16.615 -0.3564 -1.9450  1.4125
 1875TIP3    H227117   6.718   5.504  16.494  0.4539  0.3898 -0.4722
 1876TIP3   OH227118   5.686   2.117   5.341  0.1174 -0.2239 -0.1953
 1876TIP3    H127119   5.745   2.174   5.389 -0.4580 -0.9440  1.4047
 1876TIP3    H227120   5.614   2.174   5.313 -0.3163 -0.0898  1.1602
 1877TIP3   OH227121   0.424   1.469   0.925 -0.0337  0.1487 -0.3151
 1877TIP3    H127122   0.492   1.477   0.992  0.5464 -0.7339 -0.7990
 1877TIP3    H227123   0.342   1.474   0.974  0.3885 -0.3802  0.4584
 1878TIP3   OH227124   6.191   3.515  15.058 -0.1718 -0.2782  0.1400
 1878TIP3    H127125   6.148   3.535  14.975  3.0252  1.9562 -1.0803
 1878TIP3    H227126   6.280   3.488  15.033 -0.2041 -2.9878  2.6665
 1879TIP3   OH227127   2.996   0.916  11.895 -0.6814 -0.1063  0.2714
 1879TIP3    H127128   3.033   0.892  11.810 -0.9503 -0.2823  0.2007
 1879TIP3    H227129   3.042   0.996  11.920 -0.4950 -0.1379  0.0304
 1880TIP3   OH227130   4.908   0.722  16.118 -0.3472  0.1163 -0.4109
 1880TIP3    H127131   4.945   0.706  16.204  0.1423  0.0379 -0.6286
 1880TIP3    H227132   4.814   0.713  16.129 -0.1982 -1.2465 -0.1733
 1881TIP3   OH227133   0.134   3.525   2.868 -0.1908 -0.4719 -0.0619
 1881TIP3    H127134   0.202   3.550   2.931 -1.1381 -0.0005  0.7987
 1881TIP3    H227135   0.078   3.602   2.862 -0.6067 -0.8315 -0.8245
 1882TIP3   OH227136   2.564   0.724  12.848  0.5795  0.6258 -0.4930
 1882TIP3    H127137   2.507   0.781  12.899  0.2084 -0.9170  0.8675
 1882TIP3    H227138   2.518   0.640  12.846  1.4128  0.1832 -1.9175
 1883TIP3   OH227139   3.976   1.972   2.159  0.1123 -0.0492  0.2908
 1883TIP3    H127140   3.978   1.879   2.133  0.0845 -0.2314  0.9302
 1883TIP3    H227141   3.889   2.002   2.132  0.3185 -0.0617 -0.4053
 1884TIP3   OH227142   3.747   5.884  15.447 -0.4023  0.1522  0.0144
 1884TIP3    H127143   3.759   5.896  15.353 -1.5840  1.3786  0.0069
 1884TIP3    H227144   3.833   5.902  15.485 -0.4756  1.8983 -0.6387
 1885TIP3   OH227145   3.603   2.232  11.131 -0.2451 -0.2808 -0.0653
 1885TIP3    H127146   3.673   2.297  11.121 -0.1775 -0.5415 -1.4139
 1885TIP3    H227147   3.547   2.268  11.199  1.2428 -0.1061  1.0968
 1886TIP3   OH227148   0.535   0.790   4.174 -0.2341  0.9147  0.2134
 1886TIP3    H127149   0.607   0.807   4.112  0.1634 -2.4679 -0.3704
 1886TIP3    H227150   0.579   0.779   4.258 -0.1594 -0.2716  0.0200
 1887TIP3   OH227151   6.403   2.651  12.086  0.8050  0.5866 -0.1837
 1887TIP3    H127152   6.497   2.633  12.091  0.4576 -1.2807  0.0529
 1887TIP3    H227153   6.364   2.597  12.155 -0.4424  1.2401 -0.3644
 1888TIP3   OH227154   6.006   2.175  15.187 -0.6546  0.2705  0.0921
 1888TIP3    H127155   6.092   2.186  15.146 -0.3489 -1.5316  0.2168
 1888TIP3    H227156   5.952   2.137  15.118 -1.1015  0.5505  0.2921
 1889TIP3   OH227157   4.650   5.607  12.886  0.0051 -0.3921  0.8308
 1889TIP3    H127158   4.567   5.590  12.843 -0.1037  0.1937  0.8072
 1889TIP3    H227159   4.709   5.635  12.816  0.1056 -0.4000  0.9098
 1890TIP3   OH227160   2.289   2.043   4.301  0.2572 -0.1181 -0.5264
 1890TIP3    H127161   2.378   2.013   4.285 -0.3055  0.0368 -4.3566
 1890TIP3    H227162   2.233   1.978   4.257 -1.5113  0.1597  1.2258
 1891TIP3   OH227163   1.375   1.652  14.237 -0.3134  0.1851 -0.6915
 1891TIP3    H127164   1.294   1.702  14.225 -1.1175 -0.7616  0.6619
 1891TIP3    H227165   1.345   1.564  14.262  1.1634  0.3646  1.7968
 1892TIP3   OH227166   2.643   5.864   5.218  0.0396  0.2933 -0.2022
 1892TIP3    H127167   2.564   5.850   5.271  1.9442 -0.5130  2.5006
 1892TIP3    H227168   2.628   5.949   5.176 -2.2497  0.1766  0.2867
 1893TIP3   OH227169   2.827   1.153   4.939  0.0333 -0.4152  0.1008
 1893TIP3    H127170   2.761   1.092   4.972  1.7112 -1.9864  0.5801
 1893TIP3    H227171   2.856   1.201   5.017 -3.0035  2.7888 -0.5977
 1894TIP3   OH227172   3.559   6.526   1.314 -0.2385  0.2117 -0.0624
 1894TIP3    H127173   3.627   6.585   1.346 -1.1184 -0.3215  2.9856
 1894TIP3    H227174   3.603   6.441   1.308 -0.4199  0.0094  1.2435
 1895TIP3   OH227175   0.913   4.279   0.463  0.1174  0.0903  0.7475
 1895TIP3    H127176   0.936   4.283   0.556  0.0019 -1.7249  0.8758
 1895TIP3    H227177   0.849   4.349   0.451  0.8468  0.9643  1.8239
 1896TIP3   OH227178   1.915   5.790  12.000 -0.0244  0.2173  0.3363
 1896TIP3    H127179   1.910   5.768  11.907 -1.1805  0.1983  0.3952
 1896TIP3    H227180   2.005   5.769  12.025  0.5012  0.8848 -0.9403
 1897TIP3   OH227181   2.343   0.137   1.687  0.1320  0.9317 -0.4283
 1897TIP3    H127182   2.250   0.151   1.666 -0.3141 -0.3889  0.5658
 1897TIP3    H227183   2.372   0.071   1.624 -0.2097 -0.2790  0.6567
 1898TIP3   OH227184   1.588   5.901   5.655 -0.3363  0.1523  0.3258
 1898TIP3    H127185   1.514   5.842   5.670  0.5125 -1.3531 -1.3192
 1898TIP3    H227186   1.644   5.890   5.732 -1.7226  1.1954  1.5090
 1899TIP3   OH227187   1.665   5.862   2.867 -0.2910 -0.4957 -0.6269
 1899TIP3    H127188   1.730   5.930   2.887 -0.5221 -0.0025 -1.4943
 1899TIP3    H227189   1.716   5.785   2.843 -0.0225 -0.4507 -0.1911
 1900TIP3   OH227190   4.585   4.090  13.767 -0.7659 -0.4999 -0.2877
 1900TIP3    H127191   4.612   4.182  13.764  0.9495 -1.0204 -1.7577
 1900TIP3    H227192   4.510   4.086  13.708 -0.4823 -0.1498 -0.6733
 1901TIP3   OH227193   3.621   4.559   1.794 -0.1889 -0.2142  0.3286
 1901TIP3    H127194   3.530   4.546   1.765 -0.6650  3.0096  0.2516
 1901TIP3    H227195   3.667   4.588   1.715  0.5079 -0.0830  0.7771
 1902TIP3   OH227196   3.583   4.046  15.437 -0.3827 -0.4440 -0.0768
 1902TIP3    H127197   3.613   3.958  15.414 -0.0110 -0.3468  0.0229
 1902TIP3    H227198   3.513   4.065  15.375 -0.8614 -1.0398  0.2750
 1903TIP3   OH227199   5.325   5.697  12.649  0.0123  0.0239 -0.7165
 1903TIP3    H127200   5.280   5.614  12.662 -1.1131  0.8301  0.6887
 1903TIP3    H227201   5.264   5.763  12.682  0.9394  1.4049 -1.7104
 1904TIP3   OH227202   6.688   2.310  14.552  0.4745 -0.2559  0.5872
 1904TIP3    H127203   6.602   2.344  14.577 -0.1151  0.7192 -2.4803
 1904TIP3    H227204   6.749   2.355  14.610 -0.9245  0.6276  1.4172
 1905TIP3   OH227205   5.960   2.359   1.748 -0.1166  0.1800 -0.3674
 1905TIP3    H127206   5.865   2.347   1.755  0.3096 -4.5742 -0.7946
 1905TIP3    H227207   5.991   2.277   1.711  4.0499  2.2248 -1.6578
 1906TIP3   OH227208   4.192   0.104  12.057  0.2491 -0.0916 -0.1242
 1906TIP3    H127209   4.127   0.149  12.002 -0.3242 -1.8271 -0.9256
 1906TIP3    H227210   4.147   0.091  12.141  0.3441  0.6362  0.0411
 1907TIP3   OH227211   6.450   5.900   1.116  0.0233  0.5099 -0.3006
 1907TIP3    H127212   6.527   5.843   1.126  1.7277  2.4865 -1.6701
 1907TIP3    H227213   6.408   5.870   1.035 -0.3458 -0.2218  0.1584
 1908TIP3   OH227214   4.265   5.319  11.931  0.3954  0.0023  0.1658
 1908TIP3    H127215   4.327   5.384  11.898 -0.7746  0.8361 -0.4460
 1908TIP3    H227216   4.302   5.290  12.014  0.5844  1.9707  0.7938
 1909TIP3   OH227217   6.203   3.188   1.812 -0.4884  0.5437 -0.5744
 1909TIP3    H127218   6.226   3.112   1.758  0.1389 -0.6384  1.3153
 1909TIP3    H227219   6.285   3.237   1.820 -0.5692  0.6891 -0.6236
 1910TIP3   OH227220   0.544   6.254  14.684 -0.3856  0.1244 -0.2070
 1910TIP3    H127221   0.609   6.237  14.616  1.3297  0.8344  1.2227
 1910TIP3    H227222   0.522   6.347  14.675  1.2780  0.7148  1.3706
 1911TIP3   OH227223   4.942   3.298  15.812 -0.2996 -0.6178 -0.1202
 1911TIP3    H127224   4.878   3.368  15.805  0.3269 -0.2074 -2.2209
 1911TIP3    H227225   4.997   3.322  15.886  0.3176  1.4821 -1.2148
 1912TIP3   OH227226   1.553   0.617   2.595 -0.6371 -0.1659 -0.3143
 1912TIP3    H127227   1.572   0.567   2.516  0.2309  0.7196 -0.6773
 1912TIP3    H227228   1.553   0.709   2.566  1.2219  0.2768  0.9932
 1913TIP3   OH227229   5.503   4.405  14.508 -0.1069 -0.2223  0.3135
 1913TIP3    H127230   5.436   4.463  14.544  1.1118  0.6087  1.2891
 1913TIP3    H227231   5.558   4.462  14.454  0.3699 -0.7051  0.2781
 1914TIP3   OH227232   0.716   0.166  13.907  0.1815  0.3159 -0.3641
 1914TIP3    H127233   0.805   0.137  13.929  0.0436 -0.0576 -0.2858
 1914TIP3    H227234   0.707   0.144  13.814  0.2358  0.5165 -0.4163
 1915TIP3   OH227235   0.170   6.497  12.708 -0.5821  0.4032  0.1750
 1915TIP3    H127236   0.205   6.436  12.772  3.6208  0.3393 -2.0228
 1915TIP3    H227237   0.157   6.445  12.629 -1.5007  1.3971 -0.3472
 1916TIP3   OH227238   4.134   0.510  11.787 -0.0820  0.2098 -0.0261
 1916TIP3    H127239   4.164   0.601  11.785 -0.6655  0.4283  0.9754
 1916TIP3    H227240   4.081   0.501  11.708 -1.2259  1.1632  0.6156
 1917TIP3   OH227241   1.299   4.586   1.612  1.0802  0.1909 -0.4823
 1917TIP3    H127242   1.266   4.654   1.552  1.2182 -0.3770 -1.2107
 1917TIP3    H227243   1.336   4.635   1.686 -2.8535  0.8393  1.1687
 1918TIP3   OH227244   0.401   0.473   3.534 -0.3420  0.2216  0.0459
 1918TIP3    H127245   0.338   0.514   3.474  0.8166  1.1635 -0.5514
 1918TIP3    H227246   0.348   0.415   3.589 -1.8053  1.4154 -0.0763
 1919TIP3   OH227247   2.212   6.435   1.330  0.7151 -0.6702 -0.7606
 1919TIP3    H127248   2.139   6.435   1.392  0.1477 -1.9023 -1.4087
 1919TIP3    H227249   2.173   6.414   1.246  1.3017  2.1816 -1.8086
 1920TIP3   OH227250   5.567   1.429  15.452 -0.1722  0.0075 -0.0553
 1920TIP3    H127251   5.633   1.470  15.395 -0.4475 -2.0235 -1.9345
 1920TIP3    H227252   5.618   1.379  15.516  0.1501  2.6943  1.8447
 1921TIP3   OH227253   4.539   0.632   4.328  0.5208 -0.0950  0.3762
 1921TIP3    H127254   4.556   0.565   4.262  1.5322 -0.4313  0.9569
 1921TIP3    H227255   4.571   0.713   4.289 -1.4348  0.2107 -0.6478
 1922TIP3   OH227256   0.784   4.436   3.156 -0.4072  0.6171 -0.1997
 1922TIP3    H127257   0.828   4.385   3.088 -1.0667 -0.3673  0.1138
 1922TIP3    H227258   0.844   4.433   3.230 -1.2230 -1.1625  0.4040
 1923TIP3   OH227259   5.463   4.260  15.286  0.4224 -0.2239  0.1758
 1923TIP3    H127260   5.373   4.292  15.297  1.4424  2.6344  0.6567
 1923TIP3    H227261   5.486   4.221  15.370  0.2473  0.6716  0.6425
 1924TIP3   OH227262   5.672   3.707  14.687 -0.4145 -0.1418 -0.0939
 1924TIP3    H127263   5.644   3.730  14.775  0.9051 -0.9108  0.5432
 1924TIP3    H227264   5.596   3.724  14.632 -1.3083  0.1595  1.2162
 1925TIP3   OH227265   5.698   2.866  11.114 -0.5050 -0.3205  0.1704
 1925TIP3    H127266   5.791   2.842  11.105 -0.8731 -1.5641 -0.4122
 1925TIP3    H227267   5.700   2.957  11.144  0.9104 -0.4478  0.5312
 1926TIP3   OH227268   0.901   0.150   1.467 -0.0629  0.0509  0.7453
 1926TIP3    H127269   0.984   0.187   1.500 -0.3859  0.9663  0.5312
 1926TIP3    H227270   0.833   0.196   1.516 -0.5200  0.7459 -0.5240
 1927TIP3   OH227271   0.864   3.636  14.207 -0.3964  0.0955  0.2526
 1927TIP3    H127272   0.799   3.571  14.182  0.1849 -0.4687  0.1813
 1927TIP3    H227273   0.843   3.713  14.155 -1.9879  0.4668  1.4276
 1928TIP3   OH227274   5.595   1.945   5.738  0.5080  0.0494 -0.3146
 1928TIP3    H127275   5.552   1.954   5.653 -0.0845  1.3403  0.1099
 1928TIP3    H227276   5.624   2.033   5.760  1.6602 -0.4760  0.3109
 1929TIP3   OH227277   0.843   0.930  15.452  0.5345 -0.0997 -0.1972
 1929TIP3    H127278   0.937   0.926  15.468  0.2607 -1.2386  1.2080
 1929TIP3    H227279   0.806   0.953  15.538 -0.3975  1.4161 -0.9743
 1930TIP3   OH227280   5.526   4.708  15.050 -0.3054  0.3490  0.1074
 1930TIP3    H127281   5.541   4.627  15.100 -1.3259 -0.1696 -0.4266
 1930TIP3    H227282   5.581   4.773  15.094  1.0791 -0.7874  0.1113
 1931TIP3   OH227283   5.286   6.170  16.325  0.2638 -0.9594  0.2015
 1931TIP3    H127284   5.226   6.096  16.313  0.7128 -1.1325 -1.0970
 1931TIP3    H227285   5.372   6.129  16.334  0.5792 -0.5801 -1.0087
 1932TIP3   OH227286   1.426   5.021  16.556  0.2411 -0.0565  0.2786
 1932TIP3    H127287   1.481   4.974  16.493  0.1923  0.5481 -0.2190
 1932TIP3    H227288   1.337   5.012  16.523 -0.2113 -2.5951  2.0525
 1933TIP3   OH227289   5.725   0.366  16.747  0.3114 -0.0876  0.1996
 1933TIP3    H127290   5.772   0.410  16.817 -2.2033  1.2846  1.0978
 1933TIP3    H227291   5.713   0.276  16.779  1.2257 -0.1024  0.4944
 1934TIP3   OH227292   3.443   2.462   3.586  0.1054  0.1069 -0.2445
 1934TIP3    H127293   3.464   2.546   3.626 -0.2793 -0.1822  0.5728
 1934TIP3    H227294   3.403   2.485   3.501  1.0998  0.7096 -0.5550
 1935TIP3   OH227295   5.188   2.626   4.226 -0.0643 -0.4971  0.6111
 1935TIP3    H127296   5.118   2.602   4.165 -1.6804  2.8837  1.0222
 1935TIP3    H227297   5.176   2.566   4.300 -0.0913 -2.5037 -0.9791
 1936TIP3   OH227298   0.847   3.089  11.862  0.4086 -0.0579 -0.6676
 1936TIP3    H127299   0.846   2.996  11.882  1.0896 -0.3080 -1.8005
 1936TIP3    H227300   0.761   3.106  11.824  0.0384 -0.0825  0.1457
 1937TIP3   OH227301   0.260   0.457   2.879  0.0381 -0.4707 -0.3514
 1937TIP3    H127302   0.272   0.447   2.785 -0.1887  0.7871 -0.5287
 1937TIP3    H227303   0.342   0.428   2.917  0.7051  0.4571 -1.0438
 1938TIP3   OH227304   1.374   1.718  15.504  0.4441  0.0826  0.5518
 1938TIP3    H127305   1.405   1.629  15.487 -1.1481 -0.1537 -1.1712
 1938TIP3    H227306   1.453   1.773  15.495  1.0431 -0.9080 -0.2783
 1939TIP3   OH227307   0.002   4.190  14.316  0.2957 -0.3976 -0.2755
 1939TIP3    H127308   0.049   4.233  14.244 -0.7753 -0.2804 -0.9245
 1939TIP3    H227309   0.054   4.209  14.394 -0.1683  2.1996 -0.5313
 1940TIP3   OH227310   4.964   3.731   5.625 -0.0403 -0.6671 -0.1488
 1940TIP3    H127311   4.996   3.686   5.703  1.1465 -1.6215 -1.1623
 1940TIP3    H227312   4.877   3.762   5.649  0.5666 -0.3869  1.7653
 1941TIP3   OH227313   2.139   0.958  15.191 -0.0403  0.4375  0.1830
 1941TIP3    H127314   2.083   0.996  15.260  0.0416 -0.3880  0.7096
 1941TIP3    H227315   2.170   0.876  15.228  1.8909  1.0918  0.0630
 1942TIP3   OH227316   0.965   3.781   6.444  0.4070 -0.7422  0.1993
 1942TIP3    H127317   0.983   3.835   6.521  0.2429  0.2947 -0.4833
 1942TIP3    H227318   0.940   3.844   6.376  0.4506 -1.6603 -0.6709
 1943TIP3   OH227319   0.346   2.068  13.145 -0.4151 -0.1739 -0.0960
 1943TIP3    H127320   0.311   2.151  13.112  0.7576 -0.5108 -2.3165
 1943TIP3    H227321   0.269   2.017  13.169 -1.2072  0.9709 -0.1446
 1944TIP3   OH227322   2.460   0.373   1.456 -0.1479  0.8090 -0.0255
 1944TIP3    H127323   2.415   0.455   1.473 -0.7433  0.8147 -1.5248
 1944TIP3    H227324   2.489   0.342   1.542 -1.6325  1.5902  0.7584
 1945TIP3   OH227325   5.764   2.054   2.784  0.7094 -0.6681 -0.7061
 1945TIP3    H127326   5.859   2.063   2.785  0.5970  1.0050 -2.2509
 1945TIP3    H227327   5.748   1.968   2.821  2.8811 -1.3326 -1.2195
 1946TIP3   OH227328   1.170   5.610  14.158  0.3344  0.6142 -0.0591
 1946TIP3    H127329   1.263   5.589  14.154  0.0103 -1.0981  1.2529
 1946TIP3    H227330   1.126   5.533  14.121 -0.5693  1.3716 -0.5858
 1947TIP3   OH227331   0.406   4.562   0.446  0.1511 -0.0772  0.0357
 1947TIP3    H127332   0.355   4.580   0.367 -0.9215  0.0410  0.7281
 1947TIP3    H227333   0.340   4.533   0.510  1.0477 -0.5292  0.7674
 1948TIP3   OH227334   4.101   4.128  11.104  0.2544  0.4269 -0.2718
 1948TIP3    H127335   4.178   4.071  11.106 -1.3169 -1.7359  1.0066
 1948TIP3    H227336   4.048   4.095  11.032 -0.9463 -0.1474  0.8469
 1949TIP3   OH227337   6.729   0.226  12.698 -0.0297  0.3114  0.6238
 1949TIP3    H127338   6.643   0.255  12.669 -0.0095  0.2555  0.5060
 1949TIP3    H227339   6.711   0.162  12.767 -0.0329  3.0111  3.2426
 1950TIP3   OH227340   1.716   4.654   4.619  0.1097  0.0917  0.1944
 1950TIP3    H127341   1.669   4.680   4.540  0.5830 -0.3607 -0.2436
 1950TIP3    H227342   1.677   4.707   4.689 -0.0143  0.8193 -0.4143
 1951TIP3   OH227343   4.332   4.626  10.646 -0.3880  0.0171  0.7355
 1951TIP3    H127344   4.343   4.639  10.552  0.1557  0.7652  0.8967
 1951TIP3    H227345   4.420   4.640  10.682 -0.3515 -1.4463  1.2216
 1952TIP3   OH227346   2.917   6.534   6.412 -0.3242  0.8032  0.0812
 1952TIP3    H127347   2.832   6.574   6.429  0.6687  3.3742 -0.7513
 1952TIP3    H227348   2.943   6.495   6.496 -0.7150  3.1806  1.3525
 1953TIP3   OH227349   5.976   1.613  14.670  0.1596 -0.6018 -0.7035
 1953TIP3    H127350   6.020   1.539  14.712  1.2101  0.6496  0.4744
 1953TIP3    H227351   6.048   1.666  14.634 -0.2912  1.6612  1.5758
 1954TIP3   OH227352   1.137   4.314   2.232 -0.3030  0.1723 -0.0151
 1954TIP3    H127353   1.185   4.247   2.184 -0.3732  0.9625 -1.2377
 1954TIP3    H227354   1.062   4.268   2.269  0.9240 -0.8849  1.1675
 1955TIP3   OH227355   6.457   4.671   0.645  0.0545  0.2659  0.4946
 1955TIP3    H127356   6.510   4.709   0.574 -1.7045  1.6956 -0.0942
 1955TIP3    H227357   6.515   4.673   0.721  2.0730 -1.5367 -0.9252
 1956TIP3   OH227358   0.028   3.596  11.293  0.2826 -0.8229 -0.9122
 1956TIP3    H127359   0.102   3.563  11.343  1.2724  0.7088 -1.3154
 1956TIP3    H227360   0.067   3.648  11.223 -1.1571  1.0767 -0.3831
 1957TIP3   OH227361   4.250   3.377  15.727 -0.3837  0.2725  0.3443
 1957TIP3    H127362   4.160   3.403  15.710 -0.3344  0.2280  0.0100
 1957TIP3    H227363   4.270   3.412  15.814 -0.3740  1.1875 -0.0296
 1958TIP3   OH227364   1.974   6.318  16.235 -0.2981 -0.4588  0.0477
 1958TIP3    H127365   2.017   6.365  16.163  0.9144 -0.7396  0.5876
 1958TIP3    H227366   1.992   6.226  16.218 -0.5314 -0.5671  0.3808
 1959TIP3   OH227367   5.102   4.386   3.888 -0.3565 -0.3733 -0.1406
 1959TIP3    H127368   5.094   4.476   3.856  1.6143 -0.2367 -0.3249
 1959TIP3    H227369   5.059   4.388   3.974 -3.6246 -0.1973 -1.7107
 1960TIP3   OH227370   1.525   3.158  11.047  0.0242 -0.1537 -0.1272
 1960TIP3    H127371   1.483   3.114  11.120  1.4141  3.9931  3.3976
 1960TIP3    H227372   1.454   3.180  10.987 -1.5550 -1.0936  1.3656
 1961TIP3   OH227373   0.811   1.500   2.754 -0.7048  0.0679  0.5448
 1961TIP3    H127374   0.889   1.537   2.795 -1.0352  1.3193  0.0516
 1961TIP3    H227375   0.737   1.539   2.800 -1.0586  0.1418 -0.0696
 1962TIP3   OH227376   6.039   1.300   6.307  0.0002  0.0631  0.2147
 1962TIP3    H127377   6.088   1.219   6.292  1.5898  1.0705 -0.2306
 1962TIP3    H227378   6.037   1.309   6.403 -0.2015 -0.5112  0.2668
 1963TIP3   OH227379   4.172   5.429  15.051  0.3200  0.7992 -0.3005
 1963TIP3    H127380   4.195   5.373  15.125 -0.9985  0.3404 -0.2166
 1963TIP3    H227381   4.142   5.511  15.090 -2.9331 -0.3757 -0.1588
 1964TIP3   OH227382   1.861   2.004   4.293 -0.5296 -0.5473  0.0487
 1964TIP3    H127383   1.779   1.970   4.331  0.1000  0.3444  2.2933
 1964TIP3    H227384   1.929   1.948   4.330  0.0087 -0.2921 -0.5591
 1965TIP3   OH227385   1.642   3.262   5.029  0.5932  0.1277 -0.5651
 1965TIP3    H127386   1.580   3.303   5.088 -0.1159 -0.2728 -1.0264
 1965TIP3    H227387   1.659   3.176   5.067  0.6674  0.1350 -0.5805
 1966TIP3   OH227388   3.886   5.133   3.803 -0.3986  0.0116 -1.0113
 1966TIP3    H127389   3.875   5.150   3.897 -1.5759  0.2120 -1.1791
 1966TIP3    H227390   3.871   5.218   3.761 -0.2713 -0.1618 -1.4119
 1967TIP3   OH227391   3.716   4.522  13.757  0.3678 -0.1706 -0.5330
 1967TIP3    H127392   3.698   4.429  13.772  0.5860 -0.4599 -1.9769
 1967TIP3    H227393   3.681   4.539  13.669  1.8157  0.7118 -0.9508
 1968TIP3   OH227394   2.918   1.319  15.625  0.0737 -0.0462 -0.3365
 1968TIP3    H127395   2.880   1.248  15.573  0.3305  0.8426 -1.7707
 1968TIP3    H227396   2.856   1.391  15.617 -0.0365  0.0099  0.8662
 1969TIP3   OH227397   6.069   3.885   4.903  0.0366  1.0051 -0.1605
 1969TIP3    H127398   6.082   3.948   4.832  0.9971  0.4799 -0.4718
 1969TIP3    H227399   5.975   3.885   4.919 -0.7452 -1.6718 -4.0501
 1970TIP3   OH227400   2.612   3.019   1.656  0.2081 -0.4799  0.5482
 1970TIP3    H127401   2.538   3.038   1.714  0.6969 -2.0448  1.7206
 1970TIP3    H227402   2.640   2.931   1.681  1.1165 -0.7495 -1.3484
 1971TIP3   OH227403   5.544   3.467   2.719 -0.1643  0.5180 -0.2512
 1971TIP3    H127404   5.630   3.507   2.706 -1.1802  2.1836 -2.1098
 1971TIP3    H227405   5.535   3.406   2.645  0.5440 -1.7628  1.4745
 1972TIP3   OH227406   5.718   6.152   5.104  0.3474  0.0368  0.4486
 1972TIP3    H127407   5.684   6.068   5.133 -1.3615  0.2088 -1.0057
 1972TIP3    H227408   5.806   6.157   5.144 -0.0565 -1.8034  1.6378
 1973TIP3   OH227409   1.822   0.421   0.716  0.1962 -0.4864  0.2612
 1973TIP3    H127410   1.750   0.444   0.657  0.2484 -0.3041  0.2681
 1973TIP3    H227411   1.779   0.393   0.797  0.0531 -2.7118 -0.5385
 1974TIP3   OH227412   0.480   6.161   1.590 -0.1436 -0.6765  0.1388
 1974TIP3    H127413   0.460   6.105   1.515  0.2125  0.5469 -0.8631
 1974TIP3    H227414   0.473   6.250   1.557  0.5215 -0.1317  1.4364
 1975TIP3   OH227415   6.243   0.338   3.159 -0.1631  0.3617  0.4950
 1975TIP3    H127416   6.291   0.411   3.199  2.4087 -2.0167  1.9524
 1975TIP3    H227417   6.157   0.342   3.201  0.6497  1.2862  2.1817
 1976TIP3   OH227418   2.993   0.567   0.934 -0.0323 -0.2055  0.0223
 1976TIP3    H127419   3.041   0.499   0.981 -0.7656 -1.3521 -0.8805
 1976TIP3    H227420   2.917   0.522   0.897 -0.7411  1.1852 -0.2449
 1977TIP3   OH227421   2.589   1.158  16.483  0.2190  0.1149 -0.3008
 1977TIP3    H127422   2.514   1.133  16.429 -0.7595  1.3806  0.4673
 1977TIP3    H227423   2.603   1.083  16.541 -0.5495 -0.0501 -0.3256
 1978TIP3   OH227424   6.298   1.158  12.076  0.0600 -0.1344 -0.0225
 1978TIP3    H127425   6.379   1.167  12.126  0.2200 -0.0420 -0.2951
 1978TIP3    H227426   6.260   1.076  12.107  0.0841 -0.0022  0.3548
 1979TIP3   OH227427   6.388   5.711  11.666  0.4080 -0.0407 -0.0845
 1979TIP3    H127428   6.348   5.625  11.655  1.2703 -0.4601  0.0844
 1979TIP3    H227429   6.480   5.694  11.684  0.7222  0.9466 -0.7095
 1980TIP3   OH227430   5.279   3.051  11.861  0.1116 -0.3790  0.8966
 1980TIP3    H127431   5.362   3.059  11.907  0.7724  1.9287 -0.5969
 1980TIP3    H227432   5.234   3.134  11.878  0.4607  0.6236 -2.6634
 1981TIP3   OH227433   2.296   5.791   6.255 -0.3492 -0.0076  0.2488
 1981TIP3    H127434   2.214   5.748   6.279 -0.4528  0.8597  1.4730
 1981TIP3    H227435   2.269   5.877   6.221  0.0377  0.1828  0.4266
 1982TIP3   OH227436   3.852   6.269   3.457 -0.2898 -0.0010 -0.0799
 1982TIP3    H127437   3.776   6.274   3.399 -1.2745  2.0063  1.3091
 1982TIP3    H227438   3.826   6.206   3.525 -0.4575  0.1811  0.0256
 1983TIP3   OH227439   5.687   5.072   2.873  0.6636  0.5142 -0.2706
 1983TIP3    H127440   5.777   5.047   2.897  1.0496 -0.9473 -3.0397
 1983TIP3    H227441   5.677   5.040   2.783 -3.0900 -0.5382  0.4561
 1984TIP3   OH227442   4.366   5.539  15.548 -0.1678  0.1268 -0.2778
 1984TIP3    H127443   4.441   5.598  15.540  0.9225 -1.3839 -1.3706
 1984TIP3    H227444   4.290   5.597  15.545  0.9501  1.6931  0.9983
 1985TIP3   OH227445   4.502   5.082  16.829 -0.9367  0.2110  0.6127
 1985TIP3    H127446   4.553   5.020  16.882  2.7211  3.5837  1.2272
 1985TIP3    H227447   4.433   5.112  16.888 -0.2142 -0.1460  1.6656
 1986TIP3   OH227448   3.181   6.323  11.882  0.1847 -0.3424  0.2384
 1986TIP3    H127449   3.222   6.351  11.963  0.9088 -0.7550  0.0179
 1986TIP3    H227450   3.222   6.375  11.814 -1.0095  0.5970  0.2133
 1987TIP3   OH227451   5.437   1.992   5.130  0.4556 -0.1169  0.4030
 1987TIP3    H127452   5.378   1.947   5.070  0.2991  0.9498 -0.2563
 1987TIP3    H227453   5.389   2.072   5.155  2.0241  1.2918 -0.9602
 1988TIP3   OH227454   0.383   5.337  17.218 -0.1350  0.7380 -0.1694
 1988TIP3    H127455   0.439   5.330  17.295 -1.5903  0.3006  0.8661
 1988TIP3    H227456   0.402   5.258  17.166  0.4831  0.7920 -0.0278
 1989TIP3   OH227457   3.917   0.940   5.084  0.0554 -0.2738  0.6122
 1989TIP3    H127458   3.945   0.975   5.169  1.0369 -0.7168  0.4776
 1989TIP3    H227459   3.906   1.017   5.029  4.1363 -0.2029 -0.2817
 1990TIP3   OH227460   6.194   5.631  16.841  0.1507  0.3298  0.2176
 1990TIP3    H127461   6.191   5.727  16.843  0.8918  0.4189 -1.6368
 1990TIP3    H227462   6.283   5.609  16.869  0.9709  0.3381 -2.2921
 1991TIP3   OH227463   3.019   2.237  17.179 -0.4053 -0.2419 -0.2019
 1991TIP3    H127464   3.096   2.192  17.214  1.4478  1.9399 -1.3244
 1991TIP3    H227465   3.040   2.330  17.186 -1.7402  0.3550 -3.1022
 1992TIP3   OH227466   0.644   4.005  10.607  0.0811 -0.3832  0.0504
 1992TIP3    H127467   0.676   4.083  10.561 -0.2136 -0.4902 -0.3443
 1992TIP3    H227468   0.598   3.955  10.539 -0.0356 -0.7250  0.3826
 1993TIP3   OH227469   4.165   4.969  13.423 -0.2033  0.1546  0.3381
 1993TIP3    H127470   4.239   5.028  13.435  0.2255 -0.3076 -0.0131
 1993TIP3    H227471   4.202   4.882  13.431 -0.5801 -0.0946 -0.5535
 1994TIP3   OH227472   3.017   4.317   0.552  0.2050  0.1267  0.2047
 1994TIP3    H127473   3.086   4.280   0.498 -0.3114 -1.3178  0.5203
 1994TIP3    H227474   3.047   4.304   0.642 -0.5333 -0.6145  0.3453
 1995TIP3   OH227475   2.697   5.620   2.467 -0.3084 -0.3197  0.3301
 1995TIP3    H127476   2.635   5.681   2.425  3.3033  1.2534 -3.0541
 1995TIP3    H227477   2.685   5.538   2.419  2.6185  1.0085 -2.9235
 1996TIP3   OH227478   2.922   2.841  12.046 -0.1367  0.5076 -0.2508
 1996TIP3    H127479   2.931   2.935  12.060 -0.3306  0.2382  1.8603
 1996TIP3    H227480   2.938   2.829  11.952  1.7342  2.4089 -0.2260
 1997TIP3   OH227481   3.986   1.828  16.615 -0.8207  0.6845  0.0225
 1997TIP3    H127482   3.944   1.844  16.530  0.5051  1.9761 -0.4075
 1997TIP3    H227483   4.002   1.916  16.650  0.3559  0.1857  0.7455
 1998TIP3   OH227484   4.490   3.160  17.250  0.4394  0.7191  0.2147
 1998TIP3    H127485   4.546   3.196  17.319 -0.1750  2.3251 -0.1063
 1998TIP3    H227486   4.455   3.237  17.205 -1.4733 -0.2770 -0.0393
 1999TIP3   OH227487   3.550   5.699  11.888 -0.4426  0.0960  0.3560
 1999TIP3    H127488   3.557   5.793  11.872 -0.4775 -0.1545 -1.2213
 1999TIP3    H227489   3.456   5.682  11.888 -0.4686  0.2175  1.6319
 2000TIP3   OH227490   3.838   6.696   1.777  0.4109  0.4674 -0.5918
 2000TIP3    H127491   3.796   6.772   1.817  0.7746 -0.5219  1.7907
 2000TIP3    H227492   3.927   6.724   1.759  0.0186  1.1747 -1.4663
 2001TIP3   OH227493   2.039   0.800   1.684 -0.5140 -0.1325  0.0742
 2001TIP3    H127494   2.082   0.881   1.659 -0.7737  0.4133  1.3657
 2001TIP3    H227495   2.106   0.732   1.669  0.5727  0.6166  1.3508
 2002TIP3   OH227496   5.806   5.983   0.219 -0.4613  0.1389 -0.2129
 2002TIP3    H127497   5.786   6.027   0.302  2.0844 -0.6442  0.8850
 2002TIP3    H227498   5.867   6.041   0.175  2.1493 -1.7378  0.7942
 2003TIP3   OH227499   5.951   5.797  15.566  0.4845 -0.2725 -1.0011
 2003TIP3    H127500   5.988   5.760  15.486 -0.6729 -0.5178 -1.4279
 2003TIP3    H227501   6.018   5.857  15.598  0.7442  0.2298 -2.4402
 2004TIP3   OH227502   1.346   4.763   4.444 -0.6007  0.2861  0.2210
 2004TIP3    H127503   1.334   4.742   4.536 -2.1915  0.3262  0.0318
 2004TIP3    H227504   1.322   4.856   4.437  0.0677  0.4356 -0.1310
 2005TIP3   OH227505   2.232   5.506  12.380 -0.1900 -0.0904  0.1343
 2005TIP3    H127506   2.326   5.502  12.394 -0.2100  0.2971  0.3723
 2005TIP3    H227507   2.211   5.599  12.375 -0.4329 -0.1833 -0.8089
 2006TIP3   OH227508   3.101   1.934   4.750 -0.0698  0.1588  0.0608
 2006TIP3    H127509   3.080   1.844   4.729  0.2629 -0.0397  0.5692
 2006TIP3    H227510   3.053   1.952   4.831 -1.3351  0.9152 -0.8240
 2007TIP3   OH227511   0.532   4.443  14.377 -0.4659 -0.0315 -0.3241
 2007TIP3    H127512   0.595   4.437  14.305 -1.6094  1.0244 -1.4422
 2007TIP3    H227513   0.553   4.369  14.434  1.2304 -0.1825 -1.1178
 2008TIP3   OH227514   2.194   2.444   0.036  0.3010 -0.3529 -0.1888
 2008TIP3    H127515   2.282   2.475   0.056  0.3927  0.0069 -1.1298
 2008TIP3    H227516   2.189   2.358   0.076  0.6543  0.1438  0.9331
 2009TIP3   OH227517   3.528   5.359  11.160 -0.1745 -0.1066  0.0953
 2009TIP3    H127518   3.530   5.347  11.065  1.2315  0.2113  0.0663
 2009TIP3    H227519   3.435   5.368  11.181 -0.5159 -0.3979 -1.2213
 2010TIP3   OH227520   3.209   6.580   4.838 -0.3248 -0.4771 -0.1172
 2010TIP3    H127521   3.188   6.587   4.931 -1.8141  0.2532 -0.4871
 2010TIP3    H227522   3.143   6.520   4.803 -0.7972  0.5311 -0.9919
 2011TIP3   OH227523   5.437   4.200  16.624  0.0899 -0.3634 -0.7850
 2011TIP3    H127524   5.424   4.267  16.557 -1.6314 -0.2003 -0.3051
 2011TIP3    H227525   5.489   4.244  16.692 -0.3177  0.2373 -0.8551
 2012TIP3   OH227526   6.107   4.915   1.362  0.0066  0.0756 -0.6533
 2012TIP3    H127527   6.148   4.910   1.448 -1.7096  1.8506  0.2971
 2012TIP3    H227528   6.143   4.995   1.322  1.1718 -0.9975 -1.8140
 2013TIP3   OH227529   4.102   6.440   0.665  0.5138 -0.3878  0.2107
 2013TIP3    H127530   4.172   6.424   0.602 -1.1334 -0.2854 -1.7008
 2013TIP3    H227531   4.119   6.527   0.699  0.3955  0.3082 -1.4900
 2014TIP3   OH227532   6.642   0.835   5.667  0.0340  0.7008  0.0971
 2014TIP3    H127533   6.619   0.757   5.719  0.0716  0.7091  0.1265
 2014TIP3    H227534   6.625   0.908   5.726 -1.1394  0.7823 -0.3341
 2015TIP3   OH227535   5.906   3.277   1.314  0.0727  0.6768  0.4517
 2015TIP3    H127536   5.832   3.273   1.254 -0.2727  0.4946  0.8888
 2015TIP3    H227537   5.983   3.282   1.257 -0.2004 -0.3944 -0.0114
 2016TIP3   OH227538   2.305   5.856  14.901 -0.2150 -0.1137  0.2048
 2016TIP3    H127539   2.319   5.891  14.813  1.5122 -0.0831  0.4650
 2016TIP3    H227540   2.314   5.932  14.958  0.7264 -0.4744  0.5511
 2017TIP3   OH227541   1.781   1.755   2.955 -0.3268 -0.2441  0.0107
 2017TIP3    H127542   1.862   1.787   2.994 -0.4434  0.4746 -0.3270
 2017TIP3    H227543   1.754   1.682   3.011 -0.5798  0.8785  1.3597
 2018TIP3   OH227544   1.331   0.770   5.184  0.5761 -0.6794  0.0938
 2018TIP3    H127545   1.408   0.724   5.150  0.5503 -1.5684  1.2317
 2018TIP3    H227546   1.268   0.765   5.112  0.7505 -2.0079  0.0163
 2019TIP3   OH227547   5.916   5.532   2.193 -0.4391 -0.5337  0.5188
 2019TIP3    H127548   5.855   5.486   2.136 -0.0049  1.0435 -1.2772
 2019TIP3    H227549   5.944   5.466   2.257 -3.6679 -1.3899  1.1438
 2020TIP3   OH227550   1.899   2.633  15.143  0.1812 -0.2313 -0.6235
 2020TIP3    H127551   1.826   2.686  15.174  0.6833 -1.3598  2.7170
 2020TIP3    H227552   1.949   2.691  15.086 -0.9902  1.8797  0.4642
 2021TIP3   OH227553   5.841   2.675  12.805  0.1932  0.0081 -0.2076
 2021TIP3    H127554   5.864   2.629  12.887  1.4175  0.0427 -0.5241
 2021TIP3    H227555   5.828   2.766  12.832  1.2607  0.1483 -0.1624
 2022TIP3   OH227556   5.867   2.357   0.240  0.3248 -0.2703  0.0679
 2022TIP3    H127557   5.953   2.316   0.253  0.8616  0.8311  0.0598
 2022TIP3    H227558   5.804   2.287   0.258  1.1728 -0.4860  2.3796
 2023TIP3   OH227559   1.676   3.968   2.974 -0.0656  0.1368  0.3823
 2023TIP3    H127560   1.652   4.058   2.996 -0.6590  0.6971 -2.3486
 2023TIP3    H227561   1.771   3.971   2.962 -0.0180  0.2830  0.7824
 2024TIP3   OH227562   0.030   3.990   6.083 -0.3021  0.2978  0.3618
 2024TIP3    H127563   0.119   3.965   6.056 -0.0950  0.7370  0.6408
 2024TIP3    H227564   0.031   3.982   6.179 -0.3296  1.0692  0.4299
 2025TIP3   OH227565   1.175   5.232  10.527 -0.1443 -0.1971 -0.1378
 2025TIP3    H127566   1.090   5.226  10.571  1.2478 -3.6765  2.3120
 2025TIP3    H227567   1.207   5.319  10.550 -2.6035  0.7999 -0.3146
 2026TIP3   OH227568   5.086   6.346   4.869  0.5982 -0.6279 -0.8552
 2026TIP3    H127569   5.115   6.390   4.949  0.0010  1.6777 -1.8469
 2026TIP3    H227570   4.997   6.319   4.888  0.3182  0.2669 -0.8564
 2027TIP3   OH227571   3.397   6.253  15.462  0.0058 -0.0831  0.2693
 2027TIP3    H127572   3.364   6.257  15.551  0.0811 -0.9119  0.3382
 2027TIP3    H227573   3.318   6.247  15.408 -0.0029 -0.8583  0.3614
 2028TIP3   OH227574   4.599   0.810   5.559 -0.3478 -0.4171  0.1967
 2028TIP3    H127575   4.658   0.872   5.600  0.0972 -0.5084 -0.3024
 2028TIP3    H227576   4.626   0.725   5.593  1.2670 -0.7196 -1.6926
 2029TIP3   OH227577   5.040   4.066   1.901  0.3046 -0.0228  0.1110
 2029TIP3    H127578   5.089   4.144   1.876 -2.3875  0.8662 -2.7246
 2029TIP3    H227579   4.990   4.093   1.978  0.4573  0.6172 -0.0121
 2030TIP3   OH227580   5.583   5.369  13.394  0.0836  0.3937  0.4324
 2030TIP3    H127581   5.577   5.408  13.482  0.7138  0.2361  0.5479
 2030TIP3    H227582   5.567   5.276  13.408 -2.6116  0.7349  0.0024
 2031TIP3   OH227583   0.357   0.028   1.812 -0.2568 -0.5667 -0.1098
 2031TIP3    H127584   0.372   0.123   1.808  2.0429 -0.8090  1.7987
 2031TIP3    H227585   0.287   0.018   1.877 -0.9476 -0.1632 -0.7750
 2032TIP3   OH227586   3.176   4.431   2.380  0.0532  0.2365  0.0290
 2032TIP3    H127587   3.217   4.398   2.299  2.1199  0.6796  0.8711
 2032TIP3    H227588   3.227   4.391   2.450  0.0452  2.0628  1.0972
 2033TIP3   OH227589   4.789   0.827  14.890  0.2546 -0.3839  0.5299
 2033TIP3    H127590   4.843   0.824  14.811 -0.0236  0.2889  0.3055
 2033TIP3    H227591   4.700   0.840  14.858  0.3508  1.5921  1.0043
 2034TIP3   OH227592   1.168   3.143   4.374  0.1199 -0.0502 -0.3723
 2034TIP3    H127593   1.138   3.229   4.343 -0.2360 -0.5222 -1.3579
 2034TIP3    H227594   1.195   3.098   4.294 -1.3489 -1.5125 -0.0593
 2035TIP3   OH227595   0.625   6.770   1.425  0.2995  0.0338 -0.5142
 2035TIP3    H127596   0.684   6.843   1.404 -0.9512  0.5400 -2.3942
 2035TIP3    H227597   0.552   6.781   1.365 -1.8225 -0.4881  1.8960
 2036TIP3   OH227598   2.319   1.163  13.552 -0.4061 -0.2559  0.0422
 2036TIP3    H127599   2.226   1.164  13.574 -0.4523 -0.8049 -0.1056
 2036TIP3    H227600   2.342   1.070  13.553  0.8159  0.0351  2.9332
 2037TIP3   OH227601   6.062   0.589  16.734 -0.1806  0.3533  0.2812
 2037TIP3    H127602   6.104   0.530  16.671  0.9129  1.7223 -0.3137
 2037TIP3    H227603   6.060   0.674  16.689 -1.1048  0.9258  1.3757
 2038TIP3   OH227604   1.876   3.042   6.154 -0.3379  0.3870  0.0263
 2038TIP3    H127605   1.960   3.066   6.193 -0.8198  0.5303  0.9923
 2038TIP3    H227606   1.865   3.103   6.081 -0.5435  1.6935  1.1302
 2039TIP3   OH227607   1.932   3.992   0.351  0.6029 -0.1713 -0.4747
 2039TIP3    H127608   2.003   3.938   0.314  1.4234 -0.4986  1.4855
 2039TIP3    H227609   1.939   4.076   0.306  2.8589  0.1092  0.3313
 2040TIP3   OH227610   3.538   4.949  15.750 -0.4964  0.0652 -0.0952
 2040TIP3    H127611   3.445   4.969  15.757 -0.8140 -2.1325  2.7151
 2040TIP3    H227612   3.545   4.857  15.774  2.6769  0.8388  2.2585
 2041TIP3   OH227613   5.974   4.730   0.694 -0.3940 -0.1403  0.0076
 2041TIP3    H127614   6.029   4.693   0.762 -1.7174  1.7023  2.1320
 2041TIP3    H227615   6.020   4.810   0.667 -0.3307 -0.3902 -0.6385
 2042TIP3   OH227616   6.814   2.458  13.922  0.1936 -0.1045  0.1140
 2042TIP3    H127617   6.899   2.501  13.931 -0.1169  0.5296  0.0564
 2042TIP3    H227618   6.750   2.523  13.952 -0.2729 -0.5737  0.1583
 2043TIP3   OH227619   0.363   6.412   4.067 -0.2791 -0.6610  0.4358
 2043TIP3    H127620   0.436   6.408   4.128 -0.7385 -0.2063  1.0227
 2043TIP3    H227621   0.309   6.484   4.099 -0.7181 -0.6611 -0.2922
 2044TIP3   OH227622   1.848   1.619   5.542 -0.7034  0.6219  0.1770
 2044TIP3    H127623   1.915   1.552   5.529  0.0211  1.6516 -1.6100
 2044TIP3    H227624   1.766   1.574   5.519 -0.1271  0.5601 -1.9181
 2045TIP3   OH227625   1.268   2.005  11.846 -0.3004  0.1917 -0.0106
 2045TIP3    H127626   1.249   1.920  11.884  1.8756 -0.6774 -0.8397
 2045TIP3    H227627   1.190   2.058  11.866 -1.3614 -1.7567  1.1095
 2046TIP3   OH227628   3.718   4.038   1.808  0.5337 -0.1423 -0.1522
 2046TIP3    H127629   3.634   3.995   1.794  0.1597  0.4042  0.3226
 2046TIP3    H227630   3.784   3.974   1.783 -0.0095 -1.0383  0.6939
 2047TIP3   OH227631   0.852   4.657   1.763 -0.4198  0.4797  0.0495
 2047TIP3    H127632   0.864   4.647   1.858 -0.8921 -2.1966 -0.1184
 2047TIP3    H227633   0.769   4.704   1.754 -0.5853  0.3660  0.9633
 2048TIP3   OH227634   1.894   2.135   4.060  0.5577 -0.6745 -0.6562
 2048TIP3    H127635   1.979   2.177   4.069  0.3129  0.3036 -2.7371
 2048TIP3    H227636   1.884   2.082   4.140  2.6023  0.0860  0.1066
 2049TIP3   OH227637   6.064   1.898  16.871 -0.4674 -0.2157  0.5637
 2049TIP3    H127638   6.070   1.872  16.779  1.3951  0.9232  0.3516
 2049TIP3    H227639   5.977   1.938  16.878 -1.0496 -1.2487 -0.4342
 2050TIP3   OH227640   4.307   3.028  14.026 -0.2318 -0.6016 -0.1092
 2050TIP3    H127641   4.307   2.999  13.935 -1.1557 -0.8914 -0.0128
 2050TIP3    H227642   4.300   3.124  14.020  0.5758 -0.5498 -0.3567
 2051TIP3   OH227643   2.858   1.651   0.952  0.5019 -0.2349 -0.1717
 2051TIP3    H127644   2.799   1.638   1.026  2.3337 -0.8632  1.2045
 2051TIP3    H227645   2.810   1.616   0.877 -0.5043 -1.5806  1.0739
 2052TIP3   OH227646   3.853   3.261   3.555  0.2801  0.2385 -0.0256
 2052TIP3    H127647   3.894   3.348   3.563  0.3195  0.3182 -0.9883
 2052TIP3    H227648   3.924   3.204   3.525 -0.1132  0.2076 -0.9234
 2053TIP3   OH227649   6.224   2.318   1.905  0.0583  0.2283  0.4680
 2053TIP3    H127650   6.203   2.390   1.965 -0.0940 -0.2383  0.9723
 2053TIP3    H227651   6.160   2.326   1.834 -0.7973 -0.1984  1.1778
 2054TIP3   OH227652   1.117   4.749  13.836 -0.4413 -0.6262  0.9699
 2054TIP3    H127653   1.136   4.669  13.786 -1.5513  0.8225 -1.9039
 2054TIP3    H227654   1.030   4.735  13.873  0.4072 -1.7300  2.6191
 2055TIP3   OH227655   5.114   0.291   0.064  0.4956 -0.1502 -0.3985
 2055TIP3    H127656   5.134   0.249  -0.019  0.7228 -1.6067  0.3858
 2055TIP3    H227657   5.034   0.340   0.048  3.4771  4.2640 -3.1058
 2056TIP3   OH227658   5.016   1.763  12.480 -0.1655 -0.0859 -0.1106
 2056TIP3    H127659   5.059   1.804  12.556  1.6231  1.0161 -1.6751
 2056TIP3    H227660   4.923   1.785  12.491  0.3822  2.0803  0.5351
 2057TIP3   OH227661   1.429   1.878  11.589  0.0426 -0.0747 -0.1079
 2057TIP3    H127662   1.354   1.866  11.531  0.9406  0.1586 -1.3341
 2057TIP3    H227663   1.402   1.839  11.672 -1.9963  1.3069 -0.0793
 2058TIP3   OH227664   1.659   6.379   5.457 -0.2994  0.2634 -0.0839
 2058TIP3    H127665   1.583   6.390   5.400 -1.7783 -1.8836  1.3899
 2058TIP3    H227666   1.634   6.308   5.517  2.6764 -0.1218  0.7720
 2059TIP3   OH227667   2.794   0.669  16.354 -0.3616 -0.1402 -0.0684
 2059TIP3    H127668   2.844   0.595  16.319  1.7353  0.9087  0.6020
 2059TIP3    H227669   2.777   0.725  16.278  0.5863  0.1048 -0.1080
 2060TIP3   OH227670   6.292   2.232   2.796 -0.0884 -0.2441 -0.0499
 2060TIP3    H127671   6.362   2.188   2.845 -0.0256 -1.5249 -1.2545
 2060TIP3    H227672   6.336   2.307   2.755  0.9152 -1.8044 -1.9000
 2061TIP3   OH227673   5.036   6.516   6.720 -0.2087 -0.0760  0.1225
 2061TIP3    H127674   5.104   6.492   6.783 -0.5185  0.0302  0.5057
 2061TIP3    H227675   4.976   6.571   6.770 -0.7854 -0.4947 -0.1015
 2062TIP3   OH227676   0.038   6.729   2.379 -0.2177 -0.2208  0.0694
 2062TIP3    H127677   0.109   6.666   2.388  0.7703  0.7712 -0.6147
 2062TIP3    H227678  -0.017   6.714   2.456  0.6097 -1.1451  0.4989
 2063TIP3   OH227679   0.778   0.353  16.483 -0.2653 -0.7589 -0.5626
 2063TIP3    H127680   0.852   0.413  16.491 -1.1856  0.5119 -1.4559
 2063TIP3    H227681   0.798   0.283  16.545  2.0519 -0.8199 -1.3133
 2064TIP3   OH227682   0.119   0.449   1.566  0.5343 -0.4655  0.4850
 2064TIP3    H127683   0.044   0.449   1.506  2.1583 -0.7945 -1.5663
 2064TIP3    H227684   0.147   0.357   1.569  1.5059 -0.1742  0.4137
 2065TIP3   OH227685   5.458   6.296   6.778 -0.5217 -0.4171  0.1499
 2065TIP3    H127686   5.544   6.259   6.798 -0.3755 -0.4302 -0.4926
 2065TIP3    H227687   5.432   6.255   6.696 -0.4711  0.7223 -0.4493
 2066TIP3   OH227688   1.799   2.805  16.449  0.0652 -0.0555  0.6150
 2066TIP3    H127689   1.820   2.752  16.372 -2.7626 -1.6306  0.8497
 2066TIP3    H227690   1.761   2.885  16.414  2.0661  0.8097  0.3300
 2067TIP3   OH227691   4.972   2.657   0.057 -0.6629  0.2646 -0.1789
 2067TIP3    H127692   4.993   2.695  -0.028  2.6787 -1.6980 -0.3318
 2067TIP3    H227693   4.989   2.728   0.120  1.0554  0.4680 -0.8359
 2068TIP3   OH227694   1.013   6.602   5.105 -0.2202 -0.2892 -0.3852
 2068TIP3    H127695   0.925   6.568   5.090 -0.3309 -0.9595  1.7143
 2068TIP3    H227696   1.069   6.547   5.050 -0.9040 -0.9903 -0.3842
 2069TIP3   OH227697   6.610   3.761  16.220 -0.0687  0.3662 -0.0760
 2069TIP3    H127698   6.679   3.827  16.217  1.6701 -1.5017 -2.2473
 2069TIP3    H227699   6.650   3.685  16.262 -0.5923 -0.9451 -1.8936
 2070TIP3   OH227700   0.866   3.668  14.473  0.1218  0.4887  0.2751
 2070TIP3    H127701   0.901   3.658  14.385 -0.9164  0.4833 -0.1527
 2070TIP3    H227702   0.793   3.730  14.463  0.3576  0.9187  1.2232
 2071TIP3   OH227703   0.689   4.365  15.238  0.5640 -0.2705 -0.4843
 2071TIP3    H127704   0.659   4.365  15.147 -0.8732  0.1992 -0.0329
 2071TIP3    H227705   0.769   4.313  15.237  0.0144 -1.1362 -1.8537
 2072TIP3   OH227706   5.802   1.005   1.246 -0.0293  0.2618  0.3637
 2072TIP3    H127707   5.730   0.943   1.253 -0.6944  0.9608 -0.2386
 2072TIP3    H227708   5.788   1.049   1.162  0.9640  0.5641  0.3494
 2073TIP3   OH227709   3.299   5.602  16.057  0.1721 -0.0381 -0.1911
 2073TIP3    H127710   3.253   5.683  16.081  0.0477  0.3769 -1.7357
 2073TIP3    H227711   3.237   5.532  16.078  0.2816  0.2612  1.1743
 2074TIP3   OH227712   5.821   1.040  12.841  0.8285  0.2570  0.2653
 2074TIP3    H127713   5.800   1.133  12.838  0.3848  0.3452  3.6676
 2074TIP3    H227714   5.742   0.999  12.878  1.3344 -1.3477 -0.4035
 2075TIP3   OH227715   0.770   0.163  16.681  0.1232 -0.4483 -0.4274
 2075TIP3    H127716   0.725   0.089  16.641 -0.2115  0.4907 -1.8494
 2075TIP3    H227717   0.726   0.177  16.765 -0.4389 -1.2471 -0.5864
 2076TIP3   OH227718   3.158   5.124   2.772 -0.7256 -0.2728 -0.0453
 2076TIP3    H127719   3.221   5.092   2.707 -1.3912 -1.2732 -0.2155
 2076TIP3    H227720   3.083   5.151   2.720 -0.2924  1.2997  0.1253
 2077TIP3   OH227721   2.927   3.180  15.783  0.4411  0.0568  0.5603
 2077TIP3    H127722   2.989   3.114  15.754 -0.0832 -1.0575  1.8556
 2077TIP3    H227723   2.859   3.180  15.716  2.1364  1.7649 -1.2046
 2078TIP3   OH227724   2.607   1.757   1.983  0.0582 -0.1429 -0.0934
 2078TIP3    H127725   2.534   1.819   1.993 -0.2735 -0.4095 -0.8304
 2078TIP3    H227726   2.677   1.808   1.942  0.0351 -0.0758 -0.0498
 2079TIP3   OH227727   0.306   6.538   4.698  0.0549 -0.0253 -0.3079
 2079TIP3    H127728   0.254   6.460   4.717 -1.8743  1.4007  0.4374
 2079TIP3    H227729   0.286   6.559   4.607  1.0976 -0.7573 -0.7210
 2080TIP3   OH227730   4.979   0.564   1.529  0.1068 -0.0809 -0.0063
 2080TIP3    H127731   4.990   0.473   1.502  1.1280  0.5598 -1.8139
 2080TIP3    H227732   4.992   0.562   1.624 -1.5956 -2.0633  0.2308
 2081TIP3   OH227733   1.225   4.473  11.258 -0.0490 -0.9141  0.3184
 2081TIP3    H127734   1.319   4.472  11.240  0.0802  0.5340  0.8940
 2081TIP3    H227735   1.200   4.565  11.250 -1.4059 -1.2778  0.2548
 2082TIP3   OH227736   5.041   5.817  13.021  0.0548 -0.3887 -0.2243
 2082TIP3    H127737   5.109   5.749  13.027 -0.4542 -1.0626 -1.8842
 2082TIP3    H227738   5.072   5.877  12.954  0.1218  0.6036  0.6850
 2083TIP3   OH227739   0.795   1.762   4.496  0.1230  0.0029  0.2718
 2083TIP3    H127740   0.843   1.802   4.569 -0.6046  0.4658  0.5034
 2083TIP3    H227741   0.858   1.701   4.457  0.7467  0.2572  0.8568
 2084TIP3   OH227742   4.717   2.474  15.945 -0.2186 -0.4649 -0.9448
 2084TIP3    H127743   4.785   2.422  15.904 -0.4556 -1.3933 -0.1780
 2084TIP3    H227744   4.725   2.455  16.039 -2.1705 -1.3701 -0.9420
 2085TIP3   OH227745   4.735   3.954  14.584  0.0158 -0.0382 -0.1431
 2085TIP3    H127746   4.650   3.972  14.543  0.0546  0.0259 -0.1936
 2085TIP3    H227747   4.755   3.863  14.559 -0.3584 -0.2810  0.4307
 2086TIP3   OH227748   6.500   3.939   3.504  0.2378 -0.4493  0.0485
 2086TIP3    H127749   6.456   3.926   3.420  2.2083 -1.1208 -0.9015
 2086TIP3    H227750   6.585   3.977   3.481  1.2835 -1.7590  1.6448
 2087TIP3   OH227751   0.221   6.659   0.397 -0.5233  0.3012 -0.3365
 2087TIP3    H127752   0.267   6.581   0.428  1.1115  1.7071  0.8262
 2087TIP3    H227753   0.172   6.690   0.473 -0.2479  1.0675 -0.4660
 2088TIP3   OH227754   1.099   0.745  12.701 -0.1796  0.1305  0.4303
 2088TIP3    H127755   1.090   0.791  12.617  1.8426  0.1691  0.2128
 2088TIP3    H227756   1.114   0.654  12.677 -0.9984 -0.0967  0.7843
 2089TIP3   OH227757   4.192   3.588   4.808  0.4698  0.5097 -0.1609
 2089TIP3    H127758   4.108   3.563   4.769  0.6164  1.6018 -1.1844
 2089TIP3    H227759   4.171   3.663   4.864  0.1961 -1.2735  2.1827
 2090TIP3   OH227760   4.578   6.318   1.107 -0.1274 -0.0079  0.3510
 2090TIP3    H127761   4.538   6.302   1.021  1.0898  1.1569 -0.4562
 2090TIP3    H227762   4.601   6.230   1.139  0.7302 -0.3688 -1.1768
 2091TIP3   OH227763   3.392   4.424  11.409 -0.1203 -0.3955 -0.1632
 2091TIP3    H127764   3.475   4.382  11.386 -0.1430 -0.9222  0.7049
 2091TIP3    H227765   3.362   4.378  11.488 -0.2449  1.1341  0.6930
 2092TIP3   OH227766   1.593   5.204  12.447 -0.6139  0.8101 -0.1268
 2092TIP3    H127767   1.533   5.233  12.378  1.2876 -2.3846 -3.2788
 2092TIP3    H227768   1.677   5.194  12.403  0.6423 -1.4086  2.6190
 2093TIP3   OH227769   6.251   3.708  15.731 -0.3737  0.4933  0.1126
 2093TIP3    H127770   6.259   3.652  15.808  1.7939 -1.8829 -1.7603
 2093TIP3    H227771   6.183   3.771  15.754 -1.0495 -1.2953  3.2614
 2094TIP3   OH227772   2.206   0.583   5.148  0.2814 -0.2611 -0.2438
 2094TIP3    H127773   2.110   0.587   5.150  0.3261  0.6579  0.1744
 2094TIP3    H227774   2.233   0.674   5.142  1.2027 -0.2870  2.9059
 2095TIP3   OH227775   5.360   4.243   0.332  0.0135 -0.2077  0.2013
 2095TIP3    H127776   5.349   4.212   0.422  1.1430  2.4026  1.3047
 2095TIP3    H227777   5.283   4.298   0.317  0.5161  0.4820  0.1024
 2096TIP3   OH227778   0.658   6.439  15.509 -0.1984  0.7605 -0.0930
 2096TIP3    H127779   0.601   6.362  15.503 -1.2514  1.5070  0.1432
 2096TIP3    H227780   0.640   6.489  15.430  0.2415  0.9278 -0.0911
 2097TIP3   OH227781   0.460   3.738  14.609  0.6795  0.0988 -0.6310
 2097TIP3    H127782   0.424   3.773  14.691  0.1904 -0.0575 -0.7807
 2097TIP3    H227783   0.394   3.758  14.543  1.2252  0.5296 -1.0563
 2098TIP3   OH227784   3.289   3.320  14.709  0.1623  0.1499 -0.3521
 2098TIP3    H127785   3.320   3.405  14.679  0.0095  1.2195  2.4169
 2098TIP3    H227786   3.225   3.340  14.777  1.0976 -2.1761  1.2860
 2099TIP3   OH227787   6.187   2.223  11.718  0.3086 -0.4900 -0.5455
 2099TIP3    H127788   6.280   2.198  11.717  0.1811 -1.0938  1.1675
 2099TIP3    H227789   6.177   2.282  11.643  2.3109  0.4099 -0.1368
 2100TIP3   OH227790   5.749   3.651  17.025  0.6669  0.0513  0.1547
 2100TIP3    H127791   5.671   3.650  16.969  1.4893 -0.7217 -1.0021
 2100TIP3    H227792   5.803   3.578  16.993  1.5592  0.1648  1.3704
 2101TIP3   OH227793   4.570   6.768   2.209 -0.1150  0.0142 -0.6500
 2101TIP3    H127794   4.516   6.791   2.284 -0.5890 -1.6165 -0.4912
 2101TIP3    H227795   4.589   6.675   2.219  2.4053  0.4665 -0.9182
 2102TIP3   OH227796   6.146   0.979  15.799  0.7198  0.2222 -0.0227
 2102TIP3    H127797   6.154   0.888  15.826 -0.9608 -0.3060 -1.1823
 2102TIP3    H227798   6.223   0.996  15.746  1.2199 -0.4173  0.5016
 2103TIP3   OH227799   3.744   3.656   1.602 -0.5929  0.3561 -0.0877
 2103TIP3    H127800   3.664   3.658   1.550 -1.1208 -0.5295  0.6851
 2103TIP3    H227801   3.792   3.580   1.568  1.9417  3.3004 -3.4988
 2104TIP3   OH227802   0.790   5.022  11.340  0.3476  0.2247 -0.3729
 2104TIP3    H127803   0.850   5.029  11.414  0.9968  0.0160 -0.8752
 2104TIP3    H227804   0.765   5.113  11.322 -0.8787  0.1734  0.9539
 2105TIP3   OH227805   3.749   6.450   1.947 -0.1555  0.2443 -0.1366
 2105TIP3    H127806   3.801   6.514   1.898 -2.0322  0.6245 -1.6539
 2105TIP3    H227807   3.662   6.488   1.953 -0.5625 -0.8677  1.5095
 2106TIP3   OH227808   5.320   6.618   5.946 -0.3640 -0.8007  0.1157
 2106TIP3    H127809   5.229   6.587   5.943 -0.7342  0.4131 -1.9844
 2106TIP3    H227810   5.313   6.710   5.972  0.1262 -0.2781 -1.5236
 2107TIP3   OH227811   4.968   2.733  12.151  0.4270 -0.2079  0.0592
 2107TIP3    H127812   4.990   2.826  12.138 -1.0023  0.4080  1.7410
 2107TIP3    H227813   4.887   2.721  12.101  0.5843 -0.5375 -0.1139
 2108TIP3   OH227814   6.083   4.810  11.452 -0.0470 -0.2163  0.4727
 2108TIP3    H127815   6.149   4.843  11.390  0.4488 -0.1637  1.0284
 2108TIP3    H227816   6.122   4.824  11.538 -0.8238 -0.1065  0.8079
 2109TIP3   OH227817   0.721   0.074  12.939  0.7637  0.5633  0.0023
 2109TIP3    H127818   0.682  -0.005  12.977  0.9343 -0.0742 -1.1207
 2109TIP3    H227819   0.815   0.061  12.950  0.9068 -0.5263 -2.3617
 2110TIP3   OH227820   4.548   2.517  15.045  0.0751  0.0659 -0.0246
 2110TIP3    H127821   4.623   2.502  15.102  0.2906 -0.2090 -0.3822
 2110TIP3    H227822   4.472   2.514  15.104  0.4942  2.6668  0.7310
 2111TIP3   OH227823   1.581   4.335   5.291 -0.1627 -0.0913 -0.7222
 2111TIP3    H127824   1.619   4.255   5.254  0.4289  0.3917 -1.1814
 2111TIP3    H227825   1.529   4.372   5.219  1.4726  1.1651 -1.3072
 2112TIP3   OH227826   0.520   6.041   4.957 -0.3680 -0.6248  0.1320
 2112TIP3    H127827   0.517   6.065   5.049 -0.6006  2.0797 -0.5450
 2112TIP3    H227828   0.438   5.994   4.941 -1.3912  0.8893  0.8076
 2113TIP3   OH227829   6.530   5.332  14.755 -0.0897  0.5701 -0.0496
 2113TIP3    H127830   6.473   5.257  14.740 -0.9516  1.3614 -0.7883
 2113TIP3    H227831   6.575   5.344  14.671 -0.0051  0.9190  0.0470
 2114TIP3   OH227832   6.436   6.049  11.973  0.7851 -0.5790 -0.5515
 2114TIP3    H127833   6.388   5.966  11.971 -2.5110  1.2588  0.0901
 2114TIP3    H227834   6.445   6.070  12.066 -1.2987  1.3843 -0.7695
 2115TIP3   OH227835   6.001   0.964  15.061 -0.5376  0.2490 -0.1112
 2115TIP3    H127836   5.970   0.936  15.147  1.9381 -1.6184  0.2402
 2115TIP3    H227837   5.929   0.942  15.001 -1.0327 -1.4042  1.0428
 2116TIP3   OH227838   4.797   3.462   1.429 -0.0395  0.1760  0.2694
 2116TIP3    H127839   4.848   3.493   1.354 -1.8289 -0.0975 -1.0823
 2116TIP3    H227840   4.719   3.518   1.429 -0.6469 -0.6703  1.1607
 2117TIP3   OH227841   1.858   1.816  16.079 -0.3649  0.2370 -0.0891
 2117TIP3    H127842   1.786   1.795  16.138 -0.4352  0.1311 -0.2162
 2117TIP3    H227843   1.922   1.861  16.135  0.2299 -1.1778  0.3948
 2118TIP3   OH227844   5.371   0.858  15.483  0.0153 -0.3566 -0.3041
 2118TIP3    H127845   5.299   0.806  15.519 -0.2174 -0.6482 -1.1800
 2118TIP3    H227846   5.447   0.802  15.489  0.6545  0.7679  2.7195
 2119TIP3   OH227847   3.165   2.435   2.586  0.2086  0.4439 -0.2070
 2119TIP3    H127848   3.235   2.500   2.596  0.3977  0.7329 -2.9935
 2119TIP3    H227849   3.204   2.366   2.534 -1.2724  0.0886 -0.8579
 2120TIP3   OH227850   2.732   4.477  13.829  0.3807 -0.3874  0.0381
 2120TIP3    H127851   2.771   4.423  13.761  0.2309 -0.4841  0.0274
 2120TIP3    H227852   2.759   4.566  13.809 -1.5765 -0.1112 -1.4859
 2121TIP3   OH227853   2.689   4.536   3.128  0.0179  0.5877 -0.4391
 2121TIP3    H127854   2.689   4.623   3.088 -0.8769  1.0362  0.5114
 2121TIP3    H227855   2.607   4.533   3.178  0.6737 -0.3164  0.5802
 2122TIP3   OH227856   3.359   1.477  17.109  0.8484 -0.1680  0.2316
 2122TIP3    H127857   3.344   1.556  17.057 -0.4881  0.4677  1.5318
 2122TIP3    H227858   3.436   1.496  17.163 -0.1522  0.7068  1.3750
 2123TIP3   OH227859   1.131   1.713  15.138  0.8338 -0.1296 -0.3186
 2123TIP3    H127860   1.162   1.742  15.223  2.5064 -1.7086 -0.3826
 2123TIP3    H227861   1.206   1.723  15.080  0.2906 -0.9765 -1.1752
 2124TIP3   OH227862   2.267   0.174   2.975 -0.7790 -0.2281 -0.4644
 2124TIP3    H127863   2.182   0.166   2.933 -1.0483  0.4702 -0.0677
 2124TIP3    H227864   2.317   0.099   2.944 -1.4493 -0.4900 -0.9107
 2125TIP3   OH227865   3.644   2.979   1.510  0.0866 -0.6141  0.4272
 2125TIP3    H127866   3.626   2.968   1.416 -0.1670  0.8739  0.2961
 2125TIP3    H227867   3.599   2.906   1.551 -3.2145  0.9352 -0.2446
 2126TIP3   OH227868   1.408   4.193  10.584  0.4670  0.0441  0.1485
 2126TIP3    H127869   1.402   4.288  10.575 -0.6045 -0.0693 -0.4391
 2126TIP3    H227870   1.500   4.173  10.571  0.4609  0.8656 -1.2053
 2127TIP3   OH227871   0.180   5.694   2.581 -0.2579 -0.0947 -0.5582
 2127TIP3    H127872   0.204   5.616   2.531  0.3151  1.5204 -2.9047
 2127TIP3    H227873   0.089   5.681   2.604  0.4969 -2.5353  1.1722
 2128TIP3   OH227874   0.481   3.664  14.086  0.2595 -0.1397 -0.7284
 2128TIP3    H127875   0.521   3.605  14.150  0.6253  0.8427 -0.0484
 2128TIP3    H227876   0.555   3.708  14.044 -0.0411  0.3363 -0.7582
 2129TIP3   OH227877   4.248   3.349  14.062  0.0488  0.1910  0.2104
 2129TIP3    H127878   4.317   3.372  14.125 -0.8871  1.6456  0.7057
 2129TIP3    H227879   4.292   3.350  13.977  1.1622 -1.1090  0.7390
 2130TIP3   OH227880   5.026   5.154  16.215  0.6214 -0.5663 -0.1300
 2130TIP3    H127881   5.100   5.135  16.157  0.1474 -1.5394 -0.4284
 2130TIP3    H227882   4.955   5.178  16.156  0.1074 -1.6620  0.0394
 2131TIP3   OH227883   5.657   1.274  12.862 -0.5812  0.4075  0.0118
 2131TIP3    H127884   5.654   1.244  12.952 -1.1968  0.0294 -0.1302
 2131TIP3    H227885   5.654   1.370  12.869 -3.0059  0.3445  0.3271
 2132TIP3   OH227886   2.358   3.797   4.566  0.0419 -0.1905  0.3323
 2132TIP3    H127887   2.391   3.879   4.602  1.0823 -0.1726 -0.6192
 2132TIP3    H227888   2.399   3.729   4.620 -0.2879 -0.1063  0.6913
 2133TIP3   OH227889   2.034   2.351   1.640 -0.6383  0.1985 -0.4315
 2133TIP3    H127890   2.047   2.326   1.731 -0.8343  1.2051 -0.1216
 2133TIP3    H227891   1.994   2.274   1.599 -1.3182  0.0405  0.5186
 2134TIP3   OH227892   3.334   1.946   3.873 -0.1652 -0.6395 -0.0861
 2134TIP3    H127893   3.375   1.993   3.946 -0.2486 -1.0245  0.2142
 2134TIP3    H227894   3.309   1.862   3.911  1.1789 -1.4394 -0.9440
 2135TIP3   OH227895   4.912   4.858  15.892 -0.4835 -0.0506 -0.4036
 2135TIP3    H127896   4.936   4.932  15.836 -1.0783  1.0478  0.7779
 2135TIP3    H227897   4.816   4.854  15.886 -0.8119  1.6663  2.4522
 2136TIP3   OH227898   5.417   4.231   5.360 -0.1516 -0.0362  0.1181
 2136TIP3    H127899   5.474   4.308   5.363 -0.3083  0.0711  0.3176
 2136TIP3    H227900   5.440   4.181   5.438 -0.0170 -0.2144 -0.0358
 2137TIP3   OH227901   0.346   2.389   3.557 -0.1790  0.0339  0.1528
 2137TIP3    H127902   0.308   2.346   3.481  0.2380  0.4142 -0.2689
 2137TIP3    H227903   0.271   2.429   3.602 -0.5277 -0.8368  0.3684
 2138TIP3   OH227904   2.737   6.589   5.550  0.1296  0.3346 -0.0116
 2138TIP3    H127905   2.656   6.622   5.511  0.1661  2.7756  1.8453
 2138TIP3    H227906   2.719   6.496   5.568 -1.8710  0.5753 -0.6111
 2139TIP3   OH227907   2.020   4.559  15.532  0.4061  0.3346 -0.2973
 2139TIP3    H127908   1.943   4.550  15.477  0.0718 -0.1669  0.2521
 2139TIP3    H227909   2.088   4.590  15.472  0.6164 -2.2423 -1.4434
 2140TIP3   OH227910   3.676   0.348  12.289  0.5465  0.3558  0.2247
 2140TIP3    H127911   3.627   0.282  12.240 -0.0512  0.6520  0.4146
 2140TIP3    H227912   3.615   0.377  12.357  0.5755  1.5898 -0.2672
 2141TIP3   OH227913   5.025   1.367  17.134 -0.1865  0.0101 -0.4503
 2141TIP3    H127914   5.034   1.295  17.197  1.0769  0.5462 -0.0120
 2141TIP3    H227915   5.004   1.443  17.188 -0.3953  0.2047 -0.8051
 2142TIP3   OH227916   1.361   6.091  12.618  0.3942  0.6674 -0.4850
 2142TIP3    H127917   1.299   6.073  12.548 -0.0591  1.3652 -0.2590
 2142TIP3    H227918   1.308   6.124  12.690  1.1019  1.9536 -0.5337
 2143TIP3   OH227919   6.520   2.918  15.315  0.3933  0.1786 -0.0704
 2143TIP3    H127920   6.593   2.979  15.327 -0.3071  0.8360  0.8597
 2143TIP3    H227921   6.558   2.831  15.329  0.8180  0.5725  1.2207
 2144TIP3   OH227922   6.482   2.287  15.391 -0.3320  0.3859 -0.0115
 2144TIP3    H127923   6.506   2.218  15.452 -0.4221 -0.5830 -1.0563
 2144TIP3    H227924   6.395   2.261  15.358 -0.7617  1.4507  0.2481
 2145TIP3   OH227925   1.903   0.408  15.595  0.0260  0.3379  0.0133
 2145TIP3    H127926   1.904   0.503  15.583  0.1699  0.5223  1.3840
 2145TIP3    H227927   1.984   0.378  15.554 -0.0256  0.8141 -0.4314
 2146TIP3   OH227928   3.778   3.587   0.238 -0.0843 -1.0642 -0.0229
 2146TIP3    H127929   3.724   3.658   0.273 -0.3214 -1.4503  0.3968
 2146TIP3    H227930   3.868   3.620   0.242 -0.2098 -0.7376  0.0456
 2147TIP3   OH227931   6.672   0.725  15.322  0.1148 -0.6576 -0.4727
 2147TIP3    H127932   6.654   0.744  15.230  1.0816 -0.3215 -0.6060
 2147TIP3    H227933   6.744   0.662  15.319 -1.8756 -2.9937  0.0064
 2148TIP3   OH227934   5.140   0.097  12.328  0.2875 -0.1761 -0.1726
 2148TIP3    H127935   5.100   0.183  12.339 -0.1266 -0.2700 -0.9197
 2148TIP3    H227936   5.231   0.115  12.302  0.6335  0.0355  1.1599
 2149TIP3   OH227937   0.992   3.576   0.519  0.3668  0.0174  0.6866
 2149TIP3    H127938   0.903   3.610   0.524  1.5111  2.8976  3.4970
 2149TIP3    H227939   1.044   3.649   0.486  1.9320 -1.0953  0.6294
 2150TIP3   OH227940   1.073   4.376   1.668  0.3051 -0.0524  0.4007
 2150TIP3    H127941   1.031   4.403   1.586 -0.3787  1.0757  1.1155
 2150TIP3    H227942   1.150   4.432   1.675  2.0585 -2.1821 -0.9579
 2151TIP3   OH227943   4.972   5.942   0.388  0.3470  0.0811 -0.2645
 2151TIP3    H127944   5.043   5.880   0.377 -0.1922 -0.2092 -2.2738
 2151TIP3    H227945   4.964   5.953   0.483  1.8476 -1.2666  0.0302
 2152TIP3   OH227946   2.668   0.607  13.838 -0.0832 -0.0211  0.1106
 2152TIP3    H127947   2.748   0.635  13.881  0.3133 -2.5508  1.0762
 2152TIP3    H227948   2.696   0.570  13.755 -0.3112 -0.3049  0.1588
 2153TIP3   OH227949   5.655   5.456   1.775 -0.7571 -0.1259  0.2938
 2153TIP3    H127950   5.732   5.430   1.724 -0.4971 -0.9422  1.0715
 2153TIP3    H227951   5.583   5.458   1.712 -0.7313 -2.5254  0.1484
 2154TIP3   OH227952   2.487   0.967  11.956 -0.3093  0.7776 -0.0811
 2154TIP3    H127953   2.472   0.949  12.049 -2.7771  1.6240 -0.2692
 2154TIP3    H227954   2.531   1.052  11.955  0.2679  0.4868  0.3355
 2155TIP3   OH227955   5.226   5.029   5.423  0.2673  0.5165 -0.7949
 2155TIP3    H127956   5.170   5.088   5.474  1.5531  1.4362 -0.4124
 2155TIP3    H227957   5.219   4.945   5.467 -2.6940 -0.0148 -2.1632
 2156TIP3   OH227958   3.365   3.939  13.400 -0.3075  0.2289 -0.7411
 2156TIP3    H127959   3.385   3.995  13.475  0.5566 -0.0062 -0.7957
 2156TIP3    H227960   3.292   3.885  13.430 -0.3511  0.5427 -0.2715
 2157TIP3   OH227961   0.358   2.505   6.125  0.2181 -0.2829 -0.3589
 2157TIP3    H127962   0.338   2.577   6.065  0.3395 -0.2050 -0.3074
 2157TIP3    H227963   0.446   2.525   6.157  0.1830 -0.3628 -0.2119
 2158TIP3   OH227964   1.301   2.689   5.389 -0.7445 -0.4731  0.1093
 2158TIP3    H127965   1.234   2.698   5.321 -0.4516 -0.4223 -0.1687
 2158TIP3    H227966   1.342   2.775   5.394  0.2090 -0.8801 -0.6561
 2159TIP3   OH227967   5.943   5.804  10.089 -0.4585 -0.2763  0.2100
 2159TIP3    H127968   5.850   5.790  10.069 -0.1695 -1.6976 -0.2576
 2159TIP3    H227969   5.988   5.738  10.035  0.7258 -0.4552  1.4053
 2160TIP3   OH227970   5.294   0.510   3.327 -0.0326  0.0161  0.5520
 2160TIP3    H127971   5.231   0.457   3.279  0.9450 -0.2390 -0.4613
 2160TIP3    H227972   5.248   0.535   3.408 -0.5005 -2.3216  1.0306
 2161TIP3   OH227973   5.112   0.617  12.797  0.2655 -0.4318  0.3567
 2161TIP3    H127974   5.054   0.691  12.814  1.2519  0.1956  1.0701
 2161TIP3    H227975   5.054   0.548  12.765 -0.5027  1.0597 -1.5753
 2162TIP3   OH227976   2.741   3.614   0.236  0.2307  0.1563 -0.5609
 2162TIP3    H127977   2.801   3.541   0.247  1.4187  1.2654  0.5257
 2162TIP3    H227978   2.722   3.616   0.143 -0.2191 -1.8353 -0.5326
 2163TIP3   OH227979   5.029   6.192   0.215 -0.5133 -0.1701  0.1052
 2163TIP3    H127980   4.986   6.132   0.276 -2.8403 -0.4481 -1.7396
 2163TIP3    H227981   4.981   6.181   0.133  0.7786  2.2172 -1.0224
 2164TIP3   OH227982   5.055   2.120   5.058 -0.0198  0.0594  0.0769
 2164TIP3    H127983   5.051   2.216   5.049  2.2133  0.2857  1.1300
 2164TIP3    H227984   4.982   2.088   5.006  0.8949  2.2059 -2.6480
 2165TIP3   OH227985   5.350   4.152  10.840 -0.1374 -0.2616 -0.1014
 2165TIP3    H127986   5.436   4.119  10.868 -0.6330 -1.9269 -0.4910
 2165TIP3    H227987   5.368   4.199  10.759  0.5589  0.2436  0.3407
 2166TIP3   OH227988   1.371   6.591   4.207  0.3641  0.2662  0.1008
 2166TIP3    H127989   1.459   6.602   4.243  0.4214 -1.5337  0.5563
 2166TIP3    H227990   1.328   6.529   4.266 -1.5071  1.7681  0.3738
 2167TIP3   OH227991   4.136   6.241   2.332  0.0772  0.1355  0.6421
 2167TIP3    H127992   4.070   6.229   2.264  0.9807  0.5720 -0.3264
 2167TIP3    H227993   4.145   6.154   2.373 -0.7351 -0.0348  0.4631
 2168TIP3   OH227994   2.029   2.372   4.852  0.3299 -0.1069 -1.0392
 2168TIP3    H127995   1.940   2.373   4.886  0.0471 -0.4043 -1.7603
 2168TIP3    H227996   2.084   2.364   4.929 -0.3155 -1.2057 -0.6804
 2169TIP3   OH227997   1.108   3.570   5.293  0.3080  0.1200  0.3862
 2169TIP3    H127998   1.067   3.633   5.234  0.0687  0.0077  0.4339
 2169TIP3    H227999   1.186   3.615   5.325 -0.5612  0.8965  1.4347
 2170TIP3   OH228000   5.767   6.385   6.418 -0.1281  0.1186  1.1014
 2170TIP3    H128001   5.672   6.387   6.431 -0.0964  0.2768  1.3029
 2170TIP3    H228002   5.791   6.294   6.433 -0.3115 -0.0126  0.6030
 2171TIP3   OH228003   0.446   2.746  14.093  0.4985 -0.4188  0.0238
 2171TIP3    H128004   0.373   2.792  14.135  0.9447  0.1395  0.1963
 2171TIP3    H228005   0.479   2.688  14.161  2.3851  1.7967  1.0904
 2172TIP3   OH228006   4.395   2.987   4.568  0.2296 -0.3644 -0.0610
 2172TIP3    H128007   4.471   2.998   4.510 -1.0197  0.3524 -1.6056
 2172TIP3    H228008   4.410   3.050   4.639  0.0418  1.3393 -1.4912
 2173TIP3   OH228009   4.085   2.239   3.945 -0.6908  0.7419  0.0103
 2173TIP3    H128010   4.019   2.189   3.994  0.5102  0.3993  1.3184
 2173TIP3    H228011   4.150   2.174   3.919  0.0243  1.3522  0.2622
 2174TIP3   OH228012   0.678   4.530  16.161 -0.3731 -0.5824  0.1450
 2174TIP3    H128013   0.699   4.437  16.169  2.3445  0.1647  2.4303
 2174TIP3    H228014   0.744   4.565  16.101 -0.6360  0.1088  0.2528
 2175TIP3   OH228015   6.671   0.031   1.420 -0.3216  0.6007 -0.4447
 2175TIP3    H128016   6.636  -0.032   1.482 -1.2804  0.1316 -1.4389
 2175TIP3    H228017   6.601   0.096   1.411  0.5986  1.7326  0.4568
 2176TIP3   OH228018   5.305   4.838  15.009 -0.3914  0.5640  0.6803
 2176TIP3    H128019   5.283   4.822  15.101 -0.9382  2.1245  0.8354
 2176TIP3    H228020   5.388   4.792  14.995  0.1465  1.0574  2.1962
 2177TIP3   OH228021   1.241   3.457  16.682 -0.1590  0.3488 -0.1509
 2177TIP3    H128022   1.243   3.553  16.687 -1.8189  0.2837  2.3429
 2177TIP3    H228023   1.333   3.431  16.680  0.3111  1.9361  0.2408
 2178TIP3   OH228024   4.193   4.916  11.168  0.1275  0.0474  0.2712
 2178TIP3    H128025   4.192   4.934  11.262  0.3182  1.3854  0.0256
 2178TIP3    H228026   4.103   4.894  11.146  0.4561 -2.4347  1.1501
 2179TIP3   OH228027   2.095   5.103  16.879 -0.5390 -0.7414  0.7082
 2179TIP3    H128028   2.102   5.162  16.805  1.8594 -1.8258  0.0110
 2179TIP3    H228029   2.080   5.160  16.955 -1.9202  0.4523 -0.4541
 2180TIP3   OH228030   1.043   0.650  13.366  0.0052  0.8840  0.1872
 2180TIP3    H128031   0.974   0.599  13.409  0.9574 -0.8724 -0.3195
 2180TIP3    H228032   1.015   0.653  13.274  0.5109  0.2994  0.0093
 2181TIP3   OH228033   0.828   0.194   6.013  0.5924 -0.3134 -0.8520
 2181TIP3    H128034   0.739   0.191   6.048  0.2922 -0.7260 -1.6510
 2181TIP3    H228035   0.883   0.163   6.085  0.1314  0.3090 -0.2285
 2182TIP3   OH228036   2.591   3.089  16.953 -0.9686  0.0031 -0.4302
 2182TIP3    H128037   2.615   2.998  16.971  0.1336  0.2849 -0.4192
 2182TIP3    H228038   2.571   3.126  17.038 -0.0439  0.1495 -0.2739
 2183TIP3   OH228039   6.614   3.510  11.418 -0.4273 -0.5842 -0.6134
 2183TIP3    H128040   6.610   3.421  11.384  0.0540 -0.7080 -0.3496
 2183TIP3    H228041   6.691   3.548  11.376  0.5621 -0.9550  0.8485
 2184TIP3   OH228042   2.890   6.010   2.434  0.5207  0.5570 -0.3319
 2184TIP3    H128043   2.939   6.061   2.499  0.0740  2.5096 -1.4643
 2184TIP3    H228044   2.804   5.996   2.474  1.3660 -1.2702  0.8989
 2185TIP3   OH228045   2.932   1.406   2.760 -0.3663  0.4950  0.4085
 2185TIP3    H128046   2.905   1.477   2.702 -0.0159  0.5427  0.3025
 2185TIP3    H228047   2.863   1.403   2.827 -0.6137  0.6387  0.1645
 2186TIP3   OH228048   0.881   2.703   2.803  0.5012 -0.3066  0.1252
 2186TIP3    H128049   0.811   2.761   2.831  0.4315 -0.9711  1.3458
 2186TIP3    H228050   0.905   2.735   2.716 -1.8467 -0.5824 -0.6466
 2187TIP3   OH228051   4.675   4.003   1.872 -0.1893 -0.2835 -0.1836
 2187TIP3    H128052   4.648   4.049   1.951 -1.9323 -0.2420 -0.7851
 2187TIP3    H228053   4.702   4.072   1.812  1.0146 -0.3068  0.3230
 2188TIP3   OH228054   2.460   3.758  17.287 -0.3635  0.5261  0.0801
 2188TIP3    H128055   2.538   3.702  17.298 -0.1595  0.8349  0.2153
 2188TIP3    H228056   2.433   3.742  17.196  0.3353  1.0177 -0.2253
 2189TIP3   OH228057   5.008   3.973   3.960  0.4745  0.5629  0.1906
 2189TIP3    H128058   5.070   3.936   3.898  0.1574  1.8173 -0.8911
 2189TIP3    H228059   5.054   3.972   4.044  1.7228  0.8597 -0.4756
 2190TIP3   OH228060   4.400   4.437   2.671  0.2634  0.0200  0.3267
 2190TIP3    H128061   4.317   4.468   2.707  0.3698 -0.8360  1.3364
 2190TIP3    H228062   4.436   4.380   2.739  0.3368 -1.8807 -1.2349
 2191TIP3   OH228063   2.419   1.431  13.517 -0.0497  0.3125  0.0309
 2191TIP3    H128064   2.384   1.344  13.539  0.0773  0.2389 -0.0577
 2191TIP3    H228065   2.468   1.458  13.595  0.1472  0.1822 -0.0466
 2192TIP3   OH228066   0.601   0.014   0.425  0.3533  0.1406  0.6654
 2192TIP3    H128067   0.670   0.071   0.459  0.6905 -0.9048  1.7826
 2192TIP3    H228068   0.552  -0.012   0.503 -1.1043  0.6121 -0.0869
 2193TIP3   OH228069   3.596   5.114   6.021  0.1210  0.5465 -0.1968
 2193TIP3    H128070   3.618   5.188   5.964 -1.7201  2.0020  0.9471
 2193TIP3    H228071   3.639   5.135   6.104 -2.1108  1.3993  0.7816
 2194TIP3   OH228072   5.697   3.810  11.784 -0.0457 -0.3252 -0.1559
 2194TIP3    H128073   5.752   3.732  11.797  1.9969  0.8871 -1.3345
 2194TIP3    H228074   5.711   3.862  11.863  2.1912  0.9407 -1.3167
 2195TIP3   OH228075   0.297   5.413  11.792 -0.5221  0.2471 -0.0560
 2195TIP3    H128076   0.266   5.454  11.711 -1.4501 -0.9426 -0.3071
 2195TIP3    H228077   0.253   5.328  11.794  0.2283 -0.1123  1.2262
 2196TIP3   OH228078   5.853   5.870   6.402 -0.2422 -0.2060 -0.1592
 2196TIP3    H128079   5.822   5.784   6.431  2.3771 -1.3737 -0.6798
 2196TIP3    H228080   5.872   5.859   6.309 -1.5775  1.4767 -0.6744
 2197TIP3   OH228081   6.518   6.727  12.423  0.0099  0.0593 -1.1056
 2197TIP3    H128082   6.521   6.679  12.340 -0.0437  0.1066 -1.1347
 2197TIP3    H228083   6.497   6.817  12.398 -0.0839  0.0574 -1.0350
 2198TIP3   OH228084   6.265   4.570  11.004 -0.1430  0.1266 -0.6165
 2198TIP3    H128085   6.296   4.635  10.941  0.9583  0.0182 -0.1916
 2198TIP3    H228086   6.328   4.573  11.076 -1.5262  0.4351  0.6160
 2199TIP3   OH228087   0.902   6.604  13.154 -0.4596 -0.4019 -0.0064
 2199TIP3    H128088   0.831   6.592  13.092 -2.0816  1.1220  1.4872
 2199TIP3    H228089   0.858   6.627  13.236  1.6563 -1.4956  1.4868
 2200TIP3   OH228090   4.970   6.012   6.603 -0.1686 -0.2788 -0.5403
 2200TIP3    H128091   5.046   5.954   6.606 -0.3227 -0.4493  4.5175
 2200TIP3    H228092   5.008   6.100   6.598  0.2784 -0.4568 -0.3311
 2201TIP3   OH228093   0.372   6.391   3.795 -0.1201 -0.4323 -0.3147
 2201TIP3    H128094   0.420   6.308   3.793  0.6804  0.0045  0.3371
 2201TIP3    H228095   0.356   6.408   3.888  1.0080  0.8577 -0.3399
 2202TIP3   OH228096   6.162   1.199  13.172 -0.7137  0.1520  0.1768
 2202TIP3    H128097   6.174   1.284  13.128 -1.1462  0.2971  0.3312
 2202TIP3    H228098   6.128   1.141  13.103  2.1824 -0.6630 -0.6428
 2203TIP3   OH228099   6.243   1.337  15.198 -0.5800 -0.1715 -0.1236
 2203TIP3    H128100   6.240   1.253  15.152 -0.3190  0.6560 -1.7190
 2203TIP3    H228101   6.314   1.328  15.261  0.2268 -0.7811 -1.0947
 2204TIP3   OH228102   4.509   0.451  11.629 -0.8858  0.6666 -0.2595
 2204TIP3    H128103   4.458   0.515  11.580 -2.1541 -0.4642 -0.4672
 2204TIP3    H228104   4.586   0.434  11.575 -2.4902 -0.9278 -2.1580
 2205TIP3   OH228105   0.384   1.302   2.743  0.1228 -0.2521 -0.2620
 2205TIP3    H128106   0.394   1.393   2.714  1.3862 -0.3023  0.0101
 2205TIP3    H228107   0.305   1.302   2.797  1.4887  1.2138  1.8170
 2206TIP3   OH228108   5.101   5.321   1.610  0.3115  0.5373  0.1903
 2206TIP3    H128109   5.082   5.249   1.670  1.5756  0.5542  0.6294
 2206TIP3    H228110   5.083   5.285   1.523 -1.3727  0.4697  0.5679
 2207TIP3   OH228111   4.767   1.889  12.172  0.6223 -0.0057  0.1604
 2207TIP3    H128112   4.816   1.954  12.222 -0.3190 -1.0078  2.4551
 2207TIP3    H228113   4.714   1.940  12.111  1.6228  1.2560  0.3227
 2208TIP3   OH228114   3.832   3.051   1.865 -0.1355  1.0647  0.4219
 2208TIP3    H128115   3.897   3.105   1.911  1.5999 -0.6292  0.0242
 2208TIP3    H228116   3.825   3.091   1.778 -0.1252  1.6328  0.6761
 2209TIP3   OH228117   2.425   3.382   5.573  0.3296 -0.1960  0.8217
 2209TIP3    H128118   2.412   3.449   5.640 -0.5222  0.0758  0.3942
 2209TIP3    H228119   2.403   3.300   5.616  1.3425 -0.2095  1.3383
 2210TIP3   OH228120   5.639   2.170   3.420  0.7180  0.0469 -0.3094
 2210TIP3    H128121   5.700   2.197   3.489  0.8997  0.5183 -0.6509
 2210TIP3    H228122   5.554   2.198   3.451  0.7678  0.0379 -0.1653
 2211TIP3   OH228123   5.249   6.070  15.381  0.2773 -0.2165  0.3845
 2211TIP3    H128124   5.312   6.005  15.349 -1.2392 -2.1672  1.2524
 2211TIP3    H228125   5.180   6.071  15.315 -0.3340 -0.4487  1.0170
 2212TIP3   OH228126   2.410   3.701  13.619  0.3894 -0.3961 -0.6401
 2212TIP3    H128127   2.371   3.703  13.531  1.1674 -0.0418 -0.9789
 2212TIP3    H228128   2.341   3.737  13.676 -0.1730 -0.7651 -1.0765
 2213TIP3   OH228129   3.956   0.049   1.495  0.7166  0.2079  0.8190
 2213TIP3    H128130   4.025  -0.016   1.481  0.5062  0.0316  0.6028
 2213TIP3    H228131   4.003   0.131   1.508  0.9492  0.1586  0.2846
 2214TIP3   OH228132   1.654   3.125  11.508 -0.2613  0.1723  0.6400
 2214TIP3    H128133   1.663   3.190  11.577 -2.3592  0.2330  0.8721
 2214TIP3    H228134   1.663   3.041  11.553 -1.2018  0.2214  0.9167
 2215TIP3   OH228135   4.452   0.213   2.349  0.2465 -0.3156  0.4568
 2215TIP3    H128136   4.509   0.286   2.370 -1.7277  0.7407  2.3800
 2215TIP3    H228137   4.421   0.231   2.260  0.8970  0.4173  0.3727
 2216TIP3   OH228138   5.062   4.722  11.130 -0.4528  0.6401  0.5694
 2216TIP3    H128139   5.074   4.651  11.193  0.3245 -0.1558 -0.4699
 2216TIP3    H228140   5.128   4.787  11.155 -0.3192  0.4450  0.7305
 2217TIP3   OH228141   6.703   5.650  11.715 -0.7005  0.1279 -0.0522
 2217TIP3    H128142   6.670   5.579  11.659 -0.3584  0.0231 -0.1225
 2217TIP3    H228143   6.733   5.717  11.653 -1.1977  0.4205  0.0158
 2218TIP3   OH228144   0.346   0.605  15.921 -0.2044 -0.1639 -0.1554
 2218TIP3    H128145   0.380   0.677  15.974 -0.6761 -0.2705  0.2913
 2218TIP3    H228146   0.355   0.636  15.831 -0.6779  0.5791  0.0431
 2219TIP3   OH228147   4.209   1.277   5.354  0.3120  0.6866 -0.5276
 2219TIP3    H128148   4.184   1.366   5.328  0.7784  1.0810  0.3457
 2219TIP3    H228149   4.266   1.289   5.430 -0.2522 -0.3975  0.0865
 2220TIP3   OH228150   0.035   0.131  12.434  0.2907  0.8752  0.0855
 2220TIP3    H128151  -0.014   0.155  12.513  0.3649  0.7812  0.1614
 2220TIP3    H228152  -0.001   0.186  12.365 -1.0685 -0.3576 -0.2146
 2221TIP3   OH228153   1.700   2.814  14.893  0.0008  0.1762  0.0182
 2221TIP3    H128154   1.686   2.908  14.908 -0.1369  0.3188 -0.9685
 2221TIP3    H228155   1.792   2.808  14.866  0.4527 -0.1631  1.6252
 2222TIP3   OH228156   0.714   6.547  13.743 -0.3154 -0.6262 -0.2684
 2222TIP3    H128157   0.741   6.615  13.681  0.8292 -1.8840 -1.1703
 2222TIP3    H228158   0.782   6.547  13.810  0.1377 -1.4579 -0.7215
 2223TIP3   OH228159   6.534   0.159   0.108 -0.5393 -0.2271 -0.1288
 2223TIP3    H128160   6.572   0.228   0.163  1.3732 -0.4713 -1.1204
 2223TIP3    H228161   6.441   0.181   0.103 -0.2959  1.1545  1.2124
 2224TIP3   OH228162   4.459   3.930  14.550  0.2504 -0.2254  0.1601
 2224TIP3    H128163   4.389   3.977  14.506 -1.0931 -1.3876  1.0013
 2224TIP3    H228164   4.440   3.939  14.643  1.5478 -0.0687  0.4202
 2225TIP3   OH228165   2.963   3.390  11.378 -0.2181  0.1799  0.1774
 2225TIP3    H128166   2.976   3.460  11.314  4.2245  0.0710  0.8351
 2225TIP3    H228167   2.915   3.432  11.450 -2.0338  1.2121 -1.5872
 2226TIP3   OH228168   3.152   4.550   1.868 -0.7067  0.0170  0.6656
 2226TIP3    H128169   3.152   4.498   1.948 -0.0660  0.7656  1.1520
 2226TIP3    H228170   3.225   4.515   1.816 -0.6866 -0.0050  0.7092
 2227TIP3   OH228171   6.387   6.621  10.619  0.6969 -0.0903 -0.1558
 2227TIP3    H128172   6.478   6.643  10.639  0.5149 -0.1212  0.7450
 2227TIP3    H228173   6.386   6.604  10.525  1.1597  2.1419 -0.5916
 2228TIP3   OH228174   1.365   5.561  11.946  0.0284 -0.0811 -0.0890
 2228TIP3    H128175   1.441   5.605  11.906 -1.2344  0.8436 -1.5413
 2228TIP3    H228176   1.383   5.468  11.936  2.0676  0.0806  1.7084
 2229TIP3   OH228177   0.033   3.996  10.552  0.5126  0.9028  0.1053
 2229TIP3    H128178   0.114   3.970  10.596  0.2133 -0.6881 -0.2575
 2229TIP3    H228179   0.043   3.963  10.463 -0.4839  0.7940  0.0294
 2230TIP3   OH228180   0.241   4.331   3.658 -0.1279 -0.1137 -0.3453
 2230TIP3    H128181   0.244   4.266   3.588  3.7649  0.8700 -1.2303
 2230TIP3    H228182   0.277   4.286   3.734 -1.8660 -0.3710  0.3554
 2231TIP3   OH228183   5.598   3.464  16.149 -0.1817  0.2842 -0.1547
 2231TIP3    H128184   5.581   3.552  16.112  0.6094  0.1010 -0.9676
 2231TIP3    H228185   5.513   3.437  16.184 -0.7759  0.8096 -1.1413
 2232TIP3   OH228186   0.820   4.224   1.175  0.2691  0.5543  0.0565
 2232TIP3    H128187   0.726   4.243   1.177  0.0283 -0.5762  0.3836
 2232TIP3    H228188   0.829   4.157   1.107  0.3037 -1.9368  2.4292
 2233TIP3   OH228189   5.901   2.165  11.528 -0.1060  0.0468 -0.1498
 2233TIP3    H128190   5.958   2.241  11.516  0.7439 -0.6046 -0.2670
 2233TIP3    H228191   5.951   2.092  11.492 -0.5588 -0.7159  0.7672
 2234TIP3   OH228192   5.928   6.549  14.078  0.0272 -0.1988  0.3343
 2234TIP3    H128193   5.927   6.638  14.043 -1.7354  0.1593  1.2381
 2234TIP3    H228194   5.853   6.506  14.039 -1.1268 -0.2298  2.4924
 2235TIP3   OH228195   2.515   2.008  14.113  0.0990  0.1121  0.2118
 2235TIP3    H128196   2.560   2.092  14.117 -1.8250  1.2807 -1.3413
 2235TIP3    H228197   2.562   1.951  14.174  2.0806  2.0000  0.4731
 2236TIP3   OH228198   3.077   0.057  12.309  0.0332 -0.1185  0.5232
 2236TIP3    H128199   3.085  -0.002  12.234 -1.4490  0.6716 -0.2629
 2236TIP3    H228200   3.165   0.060  12.346  0.9792  0.1828 -1.7073
 2237TIP3   OH228201   4.314   5.282  13.003 -0.3582 -0.0313  0.0895
 2237TIP3    H128202   4.350   5.196  12.983 -0.3196 -0.1607  0.7289
 2237TIP3    H228203   4.280   5.313  12.919 -0.5701 -0.7606 -0.0997
 2238TIP3   OH228204   0.686   6.085  12.719  0.3728 -0.2684 -0.1921
 2238TIP3    H128205   0.628   6.020  12.759 -0.3315  1.4701  1.7669
 2238TIP3    H228206   0.774   6.052  12.736  0.0623 -3.6448 -4.4264
 2239TIP3   OH228207   3.522   5.677   3.789  0.4134 -0.0363  0.4952
 2239TIP3    H128208   3.586   5.742   3.818  0.4518 -1.3353  3.4600
 2239TIP3    H228209   3.482   5.645   3.870 -0.7360 -2.5650 -1.0238
 2240TIP3   OH228210   2.519   2.123   1.561 -0.0967  0.0660 -0.5775
 2240TIP3    H128211   2.518   2.052   1.625  0.3099 -0.4235 -1.1042
 2240TIP3    H228212   2.454   2.098   1.495  0.6739 -0.2559 -1.2231
 2241TIP3   OH228213   4.331   1.417  10.740  0.1412 -0.2267 -0.3289
 2241TIP3    H128214   4.372   1.395  10.823  0.5404 -0.9179 -0.6986
 2241TIP3    H228215   4.307   1.509  10.747  0.0839 -0.3147  0.5844
 2242TIP3   OH228216   6.424   1.144   5.160 -0.4185  0.0161 -0.3565
 2242TIP3    H128217   6.440   1.075   5.224  1.5122 -0.2663 -1.1125
 2242TIP3    H228218   6.381   1.099   5.087  0.3307 -0.2830 -0.6148
 2243TIP3   OH228219   5.827   3.038   4.039 -0.0604 -0.3915 -0.3456
 2243TIP3    H128220   5.776   3.086   3.974 -0.6649 -1.0309 -0.3514
 2243TIP3    H228221   5.766   3.026   4.112  1.1690  1.9383  1.1191
 2244TIP3   OH228222   5.179   0.520  13.929 -0.1910 -0.5665  0.1794
 2244TIP3    H128223   5.135   0.597  13.893 -0.3229 -0.3358  0.8161
 2244TIP3    H228224   5.237   0.490  13.859  0.9224  0.9676  0.4162
 2245TIP3   OH228225   4.618   1.024   5.925  1.0802 -0.1848  0.5645
 2245TIP3    H128226   4.636   1.049   6.016  1.9425  0.9055  0.1122
 2245TIP3    H228227   4.617   0.928   5.926  0.5766 -0.1714  1.8108
 2246TIP3   OH228228   0.336   2.133   5.397 -0.2636 -0.3103 -0.5754
 2246TIP3    H128229   0.282   2.121   5.475 -0.8369  1.4489 -0.6809
 2246TIP3    H228230   0.380   2.216   5.411 -1.2807  0.6116 -2.6504
 2247TIP3   OH228231   1.463   5.656  16.195 -0.8924  0.0846 -0.2826
 2247TIP3    H128232   1.495   5.655  16.286  1.2443 -1.0148 -1.0170
 2247TIP3    H228233   1.471   5.748  16.168  0.0072  0.1341  0.1299
 2248TIP3   OH228234   2.699   0.425   2.677 -0.2417 -0.1126  0.5749
 2248TIP3    H128235   2.785   0.383   2.670  0.4104  1.4526 -1.4017
 2248TIP3    H228236   2.643   0.375   2.617 -0.2859 -0.0836  0.5914
 2249TIP3   OH228237   5.122   2.381  15.579  0.4552  0.3270  0.5719
 2249TIP3    H128238   5.036   2.381  15.539  0.4263 -1.0690  0.5953
 2249TIP3    H228239   5.158   2.468  15.561  0.5386 -0.3167 -2.6872
 2250TIP3   OH228240   5.269   3.284   4.118  0.1377  0.1306  0.0513
 2250TIP3    H128241   5.240   3.222   4.186  0.7837 -0.6409 -0.3745
 2250TIP3    H228242   5.360   3.301   4.139  1.2654 -2.5446 -2.4170
 2251TIP3   OH228243   6.391   4.627   4.384  0.0509 -0.0294 -0.3841
 2251TIP3    H128244   6.446   4.566   4.433 -0.9673 -0.1723  0.5872
 2251TIP3    H228245   6.415   4.612   4.293  1.4345 -0.2767  0.0005
 2252TIP3   OH228246   0.186   3.874   5.042  0.1913  0.1370  0.4600
 2252TIP3    H128247   0.126   3.839   4.977 -0.2484  1.4926  0.1198
 2252TIP3    H228248   0.261   3.816   5.039  0.4499  0.5371 -1.7015
 2253TIP3   OH228249   0.094   0.293  11.866 -0.2414  0.3789  0.2841
 2253TIP3    H128250   0.139   0.209  11.854 -0.0804  0.6857 -1.3239
 2253TIP3    H228251   0.059   0.315  11.780 -1.5179  1.2777  1.0084
 2254TIP3   OH228252   4.324   3.554  16.841 -0.2687  0.0618 -0.0937
 2254TIP3    H128253   4.391   3.621  16.825 -2.9040  2.4999 -1.3881
 2254TIP3    H228254   4.301   3.564  16.933  0.1037  0.1940 -0.0127
 2255TIP3   OH228255   3.436   0.029   3.399  0.0417 -0.1858  0.1228
 2255TIP3    H128256   3.418  -0.064   3.385 -2.1074  0.5109 -2.1543
 2255TIP3    H228257   3.349   0.070   3.403  0.9784  1.9850 -0.8666
 2256TIP3   OH228258   0.719   2.745   3.468 -0.3705  0.4259 -0.1332
 2256TIP3    H128259   0.791   2.806   3.451  0.3608 -0.7294 -1.3008
 2256TIP3    H228260   0.758   2.658   3.456 -2.1974 -0.2016 -1.8213
 2257TIP3   OH228261   4.234   1.814   4.632  0.9184  0.5456 -0.7345
 2257TIP3    H128262   4.213   1.763   4.555  0.0362 -0.3525  0.0921
 2257TIP3    H228263   4.200   1.902   4.613  1.0865  0.4369 -1.5320
 2258TIP3   OH228264   0.701   0.866   1.074 -0.5261 -0.2507 -0.2563
 2258TIP3    H128265   0.662   0.953   1.065 -1.5094 -0.7452 -0.8709
 2258TIP3    H228266   0.687   0.825   0.989 -2.5244 -1.9973  0.8652
 2259TIP3   OH228267   1.201   4.699  11.916 -0.1152  0.5377  0.5170
 2259TIP3    H128268   1.159   4.784  11.898 -0.2241  0.5662  0.9042
 2259TIP3    H228269   1.129   4.642  11.943  0.1257  0.6459  1.3903
 2260TIP3   OH228270   4.471   3.654  15.836  0.0219  0.4436 -0.5772
 2260TIP3    H128271   4.381   3.682  15.857  0.1374  0.3837  0.0165
 2260TIP3    H228272   4.478   3.666  15.742 -0.5562  0.6201 -0.6030
 2261TIP3   OH228273   5.391   3.934  13.101  0.6014 -0.2454  0.2534
 2261TIP3    H128274   5.380   3.872  13.174  2.4554 -1.6541 -0.6202
 2261TIP3    H228275   5.307   3.931  13.055 -0.4348  0.3175  2.0415
 2262TIP3   OH228276   2.490   6.404   3.083 -0.2617  0.3250  0.3722
 2262TIP3    H128277   2.485   6.379   2.991  0.7473 -0.4644  0.5235
 2262TIP3    H228278   2.485   6.499   3.082  1.4001  0.4125 -0.6303
 2263TIP3   OH228279   1.399   1.506   0.976  0.4490 -0.6955  0.0099
 2263TIP3    H128280   1.419   1.413   0.986  0.4729 -0.7287 -0.3289
 2263TIP3    H228281   1.480   1.551   0.998  0.5756 -0.7787 -0.2824
 2264TIP3   OH228282   3.643   2.581   0.324  0.3696  0.5533  0.4414
 2264TIP3    H128283   3.553   2.605   0.345  0.1768 -1.0380  1.5344
 2264TIP3    H228284   3.669   2.643   0.256 -1.3705  1.3488  0.4677
 2265TIP3   OH228285   4.731   4.571   3.770  0.1786  0.1127  0.1061
 2265TIP3    H128286   4.690   4.511   3.708 -0.0661 -1.9369  2.1674
 2265TIP3    H228287   4.667   4.640   3.784  0.2573  0.6282 -1.9257
 2266TIP3   OH228288   6.762   5.032  13.464  0.1846 -0.4998 -1.0781
 2266TIP3    H128289   6.775   5.120  13.427 -1.4828 -0.3762 -1.3976
 2266TIP3    H228290   6.759   5.046  13.558  1.3261 -0.4066 -1.0470
 2267TIP3   OH228291   3.929   5.412   6.587  0.1227 -0.0476  0.3921
 2267TIP3    H128292   3.979   5.486   6.551 -0.8054  0.6353  0.5057
 2267TIP3    H228293   3.971   5.334   6.549 -0.5000  0.6407 -1.7844
 2268TIP3   OH228294   0.384   1.710   3.037 -0.1322 -0.5781 -0.4125
 2268TIP3    H128295   0.361   1.778   3.100  0.3897  0.7134 -1.5920
 2268TIP3    H228296   0.305   1.696   2.986 -0.7222 -2.0143  0.8424
 2269TIP3   OH228297   6.150   1.713  12.515 -0.4540  0.5818 -0.1161
 2269TIP3    H128298   6.173   1.637  12.568 -1.1055  0.1909 -0.3841
 2269TIP3    H228299   6.208   1.708  12.438 -0.2387  0.5674  0.0468
 2270TIP3   OH228300   2.450   1.564  15.287 -0.4207 -0.1370 -0.0396
 2270TIP3    H128301   2.444   1.635  15.223 -2.0411 -0.0422  0.2052
 2270TIP3    H228302   2.521   1.509  15.255  1.9767  2.4431  0.6206
 2271TIP3   OH228303   6.680   5.636  15.172  0.2119 -0.3429  0.1638
 2271TIP3    H128304   6.709   5.623  15.081  0.6860  0.3810  0.2054
 2271TIP3    H228305   6.585   5.648  15.166  0.4310  1.2341 -0.4096
 2272TIP3   OH228306   1.390   4.420   2.839  0.1376 -0.2207 -0.1465
 2272TIP3    H128307   1.360   4.351   2.897  1.1608 -1.1990 -0.7637
 2272TIP3    H228308   1.316   4.481   2.833 -0.9427 -1.5112  0.0024
 2273TIP3   OH228309   5.507   0.479   0.253 -0.0736  0.4511  0.6939
 2273TIP3    H128310   5.563   0.463   0.178 -1.8201  0.4260 -0.6341
 2273TIP3    H228311   5.525   0.570   0.278  0.0538  0.6638 -0.1569
 2274TIP3   OH228312   5.602   4.065   2.240  0.0010  0.3311  0.0315
 2274TIP3    H128313   5.560   4.019   2.313  1.3029  1.3386  1.4681
 2274TIP3    H228314   5.536   4.069   2.172 -1.4889 -0.0397  1.4360
 2275TIP3   OH228315   5.292   4.019   3.658 -0.1732 -0.0101 -0.5474
 2275TIP3    H128316   5.284   4.111   3.684 -0.5761 -0.3007  0.4063
 2275TIP3    H228317   5.286   3.971   3.741 -1.0089 -0.9478 -1.1467
 2276TIP3   OH228318   6.077   0.267  14.275 -0.5158  0.0811 -0.0420
 2276TIP3    H128319   6.027   0.347  14.261 -0.4537  0.2108  0.4691
 2276TIP3    H228320   6.140   0.290  14.343 -0.0650 -0.2136 -0.3559
 2277TIP3   OH228321   5.547   4.110   0.733 -0.3713 -0.1782 -0.1638
 2277TIP3    H128322   5.587   4.024   0.720  3.3933  1.4092  0.2135
 2277TIP3    H228323   5.561   4.129   0.826 -0.9170  0.9543 -0.3034
 2278TIP3   OH228324   2.947   4.167  16.976 -0.2514 -0.5680  0.1083
 2278TIP3    H128325   2.948   4.231  16.906  0.3300 -0.5456  0.1315
 2278TIP3    H228326   2.864   4.120  16.965 -0.6855  0.1896  0.1011
 2279TIP3   OH228327   2.212   3.626  13.377  0.0343  0.4561 -0.2126
 2279TIP3    H128328   2.177   3.643  13.290  1.9226  0.7276 -0.9503
 2279TIP3    H228329   2.292   3.575  13.362  0.2672  0.3163  1.3667
 2280TIP3   OH228330   1.344   1.474   3.380  0.0568  0.5273 -0.5192
 2280TIP3    H128331   1.326   1.505   3.292 -0.8489 -3.7055 -1.9443
 2280TIP3    H228332   1.439   1.472   3.386  0.1309  2.4487 -0.7439
 2281TIP3   OH228333   2.099   0.493  13.971 -0.1332 -0.0498  0.3483
 2281TIP3    H128334   2.121   0.446  14.052  0.5614 -0.0966  0.1335
 2281TIP3    H228335   2.024   0.445  13.935 -1.6616  1.0816  1.9319
 2282TIP3   OH228336   1.261   4.398  12.785 -0.3566  0.4223  0.1490
 2282TIP3    H128337   1.219   4.382  12.870 -0.2705 -1.6668 -0.1639
 2282TIP3    H228338   1.193   4.378  12.720  0.1406  0.2017 -0.3080
 2283TIP3   OH228339   5.735   4.947  15.121  0.0109 -0.1751 -0.3658
 2283TIP3    H128340   5.769   5.036  15.124 -0.5791  0.0461 -0.0412
 2283TIP3    H228341   5.792   4.897  15.180 -0.5319  0.3014  0.5878
 2284TIP3   OH228342   6.499   6.777   1.902  0.5533  0.3606  0.1269
 2284TIP3    H128343   6.591   6.770   1.928  0.0446 -0.1164  1.8740
 2284TIP3    H228344   6.478   6.870   1.917  1.0879  0.7512 -1.4841
 2285TIP3   OH228345   4.172   0.786  12.538  0.0449 -0.1968 -0.0313
 2285TIP3    H128346   4.264   0.776  12.512 -0.4544 -1.4656 -1.3780
 2285TIP3    H228347   4.123   0.773  12.457 -1.2879  1.5233  0.4688
 2286TIP3   OH228348   2.851   2.684  12.400  0.0113 -0.0363 -0.2789
 2286TIP3    H128349   2.862   2.594  12.369  0.7182 -0.3634  0.8837
 2286TIP3    H228350   2.789   2.724  12.338 -2.8087 -2.2632  1.0259
 2287TIP3   OH228351   6.620   0.078  17.133  0.3908  0.6341 -0.0322
 2287TIP3    H128352   6.615   0.065  17.228 -0.8176 -0.6319 -0.2527
 2287TIP3    H228353   6.533   0.112  17.109  0.9902  1.8386 -0.5713
 2288TIP3   OH228354   3.942   1.484  16.947  0.1963 -0.3118  0.0435
 2288TIP3    H128355   3.876   1.513  16.884  1.6443 -0.1995 -1.4461
 2288TIP3    H228356   4.025   1.515  16.911  1.2728 -2.1232  0.9032
 2289TIP3   OH228357   6.125   0.300  11.497 -0.5742 -0.3403  0.2542
 2289TIP3    H128358   6.129   0.254  11.581 -0.2603 -0.5909  0.1058
 2289TIP3    H228359   6.059   0.368  11.509 -2.7293 -2.2800 -0.2137
 2290TIP3   OH228360   2.362   3.795   6.143  0.3042  0.0641  0.6049
 2290TIP3    H128361   2.318   3.793   6.058 -0.2489  0.8379  0.8712
 2290TIP3    H228362   2.456   3.796   6.121  0.1613  0.7895 -0.0070
 2291TIP3   OH228363   4.212   6.424   5.772  0.2187 -0.1179  1.2882
 2291TIP3    H128364   4.262   6.385   5.844  0.3062 -2.2450  0.1130
 2291TIP3    H228365   4.129   6.376   5.773  0.0768  0.1107  0.2051
 2292TIP3   OH228366   0.155   0.725  15.570 -0.0649 -0.3946  0.1658
 2292TIP3    H128367   0.150   0.756  15.480 -0.2866 -0.7144  0.0662
 2292TIP3    H228368   0.243   0.690  15.579 -0.3430 -1.2132 -0.2079
 2293TIP3   OH228369   1.116   5.433  13.307 -0.2534  0.0343  0.1456
 2293TIP3    H128370   1.080   5.433  13.395 -0.6447  1.5705 -0.0084
 2293TIP3    H228371   1.096   5.520  13.272  2.5890  0.5407 -0.3541
 2294TIP3   OH228372   0.443   1.264   5.417  0.4008 -0.2466  0.1306
 2294TIP3    H128373   0.400   1.237   5.498 -0.1181 -2.3934 -0.8289
 2294TIP3    H228374   0.374   1.306   5.366  0.6496  0.8037  0.6407
 2295TIP3   OH228375   5.793   0.135   5.342 -0.6328  0.2405  0.7822
 2295TIP3    H128376   5.737   0.208   5.370  0.4430  0.9741  1.0651
 2295TIP3    H228377   5.735   0.059   5.343 -1.2637  0.7160  2.5203
 2296TIP3   OH228378   3.683   4.544   1.126  0.0533 -0.3228  0.0296
 2296TIP3    H128379   3.764   4.505   1.092 -0.0595 -0.5912  0.0716
 2296TIP3    H228380   3.712   4.596   1.201  0.3101  0.3094 -0.5015
 2297TIP3   OH228381   1.699   6.699   2.768  0.5881  0.4640  0.1034
 2297TIP3    H128382   1.716   6.613   2.807 -0.8645  0.9597  1.8876
 2297TIP3    H228383   1.782   6.722   2.726  1.1552 -1.5805  0.0195
 2298TIP3   OH228384   4.644   0.085   1.882  0.1264  0.2422 -0.0768
 2298TIP3    H128385   4.694   0.112   1.805  1.5805 -0.7482  0.5056
 2298TIP3    H228386   4.708   0.042   1.939 -1.5436 -1.8556  0.3013
 2299TIP3   OH228387   1.241   3.910   6.324  0.7957 -0.1541 -0.0742
 2299TIP3    H128388   1.189   3.946   6.395  0.6217 -1.2313  0.3492
 2299TIP3    H228389   1.323   3.958   6.327 -0.1247  1.4765 -0.6761
 2300TIP3   OH228390   3.172   3.761  13.493  0.2560  0.2728  0.5236
 2300TIP3    H128391   3.097   3.786  13.546  1.4796  2.0119  1.4559
 2300TIP3    H228392   3.229   3.712  13.552 -0.1627 -1.1028 -0.1989
 2301TIP3   OH228393   4.195   4.490   3.103 -0.2946  0.3443  0.5841
 2301TIP3    H128394   4.182   4.396   3.096 -1.1920  0.4667  0.5416
 2301TIP3    H228395   4.280   4.500   3.146 -0.6130 -0.4987  1.4329
 2302TIP3   OH228396   6.374   6.278   4.334  0.6650 -0.5275 -0.1041
 2302TIP3    H128397   6.386   6.306   4.244  0.3280 -1.9355 -0.5866
 2302TIP3    H228398   6.338   6.356   4.378  0.8464  0.1659 -1.1636
 2303TIP3   OH228399   2.278   6.250  11.733 -0.7822  0.3735  0.5451
 2303TIP3    H128400   2.259   6.216  11.821 -2.7917 -0.8526 -0.3106
 2303TIP3    H228401   2.228   6.192  11.675  3.2272 -1.0233 -1.7054
 2304TIP3   OH228402   3.932   4.093  12.882  0.2968  0.2012 -0.0482
 2304TIP3    H128403   3.935   4.001  12.907  0.2511  0.5555  1.2920
 2304TIP3    H228404   3.919   4.091  12.787  0.3433 -1.1664 -0.0445
 2305TIP3   OH228405   6.003   5.927   1.623  0.2773 -0.2009 -0.1262
 2305TIP3    H128406   5.959   5.886   1.697 -0.2002  0.9524  0.2379
 2305TIP3    H228407   6.035   6.011   1.657  0.7327 -0.0007 -1.0179
 2306TIP3   OH228408   4.481   0.760  13.193 -0.6890 -0.2207 -0.1084
 2306TIP3    H128409   4.428   0.835  13.167 -2.3143 -1.2772  0.0809
 2306TIP3    H228410   4.469   0.697  13.122  0.5458 -0.3809 -0.1931
 2307TIP3   OH228411   6.065   2.663  16.886 -0.3241 -0.9442  0.0753
 2307TIP3    H128412   5.974   2.636  16.897  0.1240 -1.6163  2.3519
 2307TIP3    H228413   6.090   2.700  16.971  0.8868  1.2124 -1.1752
 2308TIP3   OH228414   1.699   5.449  13.882 -0.4173  0.3872 -0.3072
 2308TIP3    H128415   1.757   5.421  13.812  1.6780 -1.8814  2.2518
 2308TIP3    H228416   1.643   5.374  13.900 -2.0316  1.4843 -0.5778
 2309TIP3   OH228417   1.193   1.227   2.252  0.5615  0.4478 -0.2619
 2309TIP3    H128418   1.138   1.196   2.180  3.0131 -0.4200 -1.8294
 2309TIP3    H228419   1.186   1.322   2.248 -0.2459  0.3655 -0.9105
 2310TIP3   OH228420   3.772   2.430  13.516 -0.0044  0.2757 -0.0087
 2310TIP3    H128421   3.732   2.493  13.456  0.0395  1.1706  0.8899
 2310TIP3    H228422   3.703   2.365  13.531 -0.1862  0.3203 -0.6257
 2311TIP3   OH228423   5.880   3.896  13.590 -0.0761 -0.1788 -0.6073
 2311TIP3    H128424   5.821   3.943  13.649 -1.0422 -0.7979 -1.0696
 2311TIP3    H228425   5.900   3.814  13.635 -0.8317 -0.6606 -1.1470
 2312TIP3   OH228426   5.157   0.040   5.980 -0.4651  0.0659  0.0423
 2312TIP3    H128427   5.159   0.083   6.065 -2.6251 -2.3142  1.3733
 2312TIP3    H228428   5.089  -0.027   5.989 -0.5646 -0.3897 -3.4853
 2313TIP3   OH228429   1.203   2.924  12.253 -0.6246 -0.0814  0.3553
 2313TIP3    H128430   1.126   2.948  12.305 -0.4307  1.3235  0.0182
 2313TIP3    H228431   1.198   2.982  12.177  0.2353 -0.6756 -0.1552
 2314TIP3   OH228432   6.039   5.234  14.188 -0.0262 -0.2672  0.6162
 2314TIP3    H128433   6.064   5.173  14.257  2.8109  0.9093  0.7079
 2314TIP3    H228434   6.080   5.317  14.213 -0.4693  0.6491 -1.5427
 2315TIP3   OH228435   1.310   4.534  15.084  0.1011  0.1517 -0.0770
 2315TIP3    H128436   1.233   4.584  15.110 -0.4128 -1.9250  2.5927
 2315TIP3    H228437   1.383   4.575  15.130  0.4915  1.4757 -1.8017
 2316TIP3   OH228438   3.693   5.023   1.364  0.4090  0.4869 -0.7658
 2316TIP3    H128439   3.651   5.001   1.281 -0.8159 -1.3374  0.3079
 2316TIP3    H228440   3.662   5.111   1.385 -1.0990  0.0368 -1.0910
 2317TIP3   OH228441   2.588   2.989   6.395 -0.0003 -0.6119 -0.1921
 2317TIP3    H128442   2.617   2.911   6.442  3.8048  0.4020 -0.6815
 2317TIP3    H228443   2.625   3.062   6.445 -1.2626  0.7594 -1.2272
 2318TIP3   OH228444   4.540   3.944   0.173 -0.0459 -0.7448 -0.1948
 2318TIP3    H128445   4.545   3.883   0.100 -2.2274 -2.2083  0.8110
 2318TIP3    H228446   4.476   3.905   0.233 -0.0693  1.5837  1.3874
 2319TIP3   OH228447   5.004   1.327   1.900  0.0777 -0.8717 -0.2249
 2319TIP3    H128448   4.948   1.405   1.907  0.7715 -0.4164  0.2911
 2319TIP3    H228449   5.065   1.335   1.973  0.0748 -1.9693 -0.1040
 2320TIP3   OH228450   2.841   1.209   3.148  0.4099 -0.3614  0.6141
 2320TIP3    H128451   2.892   1.129   3.143 -2.0388 -1.8830 -1.4963
 2320TIP3    H228452   2.810   1.213   3.238  0.5962 -1.7807  0.7463
 2321TIP3   OH228453   5.425   4.973  16.224  0.5899 -0.1653 -0.1350
 2321TIP3    H128454   5.492   4.950  16.159  1.4119 -0.6726  0.8879
 2321TIP3    H228455   5.361   4.902  16.218  0.6152 -0.1638 -0.4517
 2322TIP3   OH228456   0.041   1.024   4.763 -0.7742 -0.3494 -0.0527
 2322TIP3    H128457   0.090   0.959   4.712  0.0970 -0.7592  1.2917
 2322TIP3    H228458   0.095   1.103   4.759 -0.8755 -0.2812 -0.0606
 2323TIP3   OH228459   0.232   0.752   0.542 -0.4117 -0.4871  0.7023
 2323TIP3    H128460   0.153   0.805   0.554 -1.3957 -1.3220 -1.8431
 2323TIP3    H228461   0.207   0.665   0.572 -0.1949 -0.5776  0.6184
 2324TIP3   OH228462   1.910   4.017  15.335  0.1508 -0.7072  0.0904
 2324TIP3    H128463   1.968   4.014  15.411 -1.5441 -0.7394  1.4204
 2324TIP3    H228464   1.842   3.953  15.355 -0.7788 -0.0967 -1.0731
 2325TIP3   OH228465   4.511   2.694  12.247 -0.1398 -0.7023  0.8300
 2325TIP3    H128466   4.456   2.742  12.309 -0.0003  2.6429 -1.5302
 2325TIP3    H228467   4.588   2.668  12.298 -0.6019  0.8897  2.3741
 2326TIP3   OH228468   4.589   4.826  13.140 -0.3827  0.6927 -0.0875
 2326TIP3    H128469   4.551   4.892  13.198  0.4279  2.3219 -1.3867
 2326TIP3    H228470   4.518   4.763  13.127 -0.9462  0.9182  1.7130
 2327TIP3   OH228471   6.651   6.701   0.594 -0.0846 -0.0517  0.8594
 2327TIP3    H128472   6.600   6.759   0.651 -1.0416  0.7804 -0.8276
 2327TIP3    H228473   6.629   6.728   0.505  1.0729 -1.6229  0.0644
 2328TIP3   OH228474   2.287   4.371   0.141 -0.1928 -0.7970 -0.0541
 2328TIP3    H128475   2.353   4.437   0.164 -0.8331 -0.6336  1.4010
 2328TIP3    H228476   2.228   4.416   0.080 -1.5423  0.5271  2.1530
 2329TIP3   OH228477   5.428   1.752  11.880  0.0529  0.5369 -0.5876
 2329TIP3    H128478   5.342   1.763  11.837 -0.3135 -1.4810 -0.4508
 2329TIP3    H228479   5.483   1.712  11.812 -0.4937 -2.5669  0.6867
 2330TIP3   OH228480   6.008   5.239   5.837  0.0923 -0.2717 -0.1774
 2330TIP3    H128481   5.940   5.198   5.890 -0.4574 -2.2612 -2.3683
 2330TIP3    H228482   5.970   5.249   5.751  2.2531 -0.5912 -1.2143
 2331TIP3   OH228483   3.616   6.712   4.883 -0.8281 -0.3371 -0.5039
 2331TIP3    H128484   3.607   6.648   4.812 -0.5948 -0.3321 -0.5390
 2331TIP3    H228485   3.580   6.667   4.960 -1.5442 -0.1525 -0.7341
 2332TIP3   OH228486   5.237   5.450  13.979  0.4224  0.8033  0.4375
 2332TIP3    H128487   5.191   5.446  13.895  0.0113  0.2712  0.6818
 2332TIP3    H228488   5.203   5.529  14.021 -0.2111  0.4695  0.5727
 2333TIP3   OH228489   3.753   2.307   0.275 -0.8091  0.1735 -0.3900
 2333TIP3    H128490   3.722   2.396   0.294 -1.9407  0.3043 -2.6208
 2333TIP3    H228491   3.796   2.315   0.190  4.2789 -0.3047  2.0130
 2334TIP3   OH228492   2.638   6.815  10.817 -0.3607  0.0481 -0.5439
 2334TIP3    H128493   2.649   6.731  10.861 -0.3647  0.5236  0.3761
 2334TIP3    H228494   2.728   6.842  10.794 -0.0121  1.4137  2.2403
 2335TIP3   OH228495   4.315   1.884   5.462  0.6820 -0.0106  0.0565
 2335TIP3    H128496   4.330   1.893   5.556  1.1665 -0.4840  0.0264
 2335TIP3    H228497   4.394   1.843   5.428 -0.2464 -1.5714 -0.2714
 2336TIP3   OH228498   1.398   3.665   3.421  0.2118 -0.5298  0.0627
 2336TIP3    H128499   1.425   3.720   3.347 -1.0431  3.0341  2.0947
 2336TIP3    H228500   1.308   3.642   3.401 -0.0018  0.1043  0.2769
 2337TIP3   OH228501   2.870   3.265   4.083  0.6016  0.0463  0.6825
 2337TIP3    H128502   2.899   3.343   4.036 -2.2051  1.1734  0.7436
 2337TIP3    H228503   2.776   3.276   4.094  0.4408 -2.4361  2.4286
 2338TIP3   OH228504   5.684   4.528  14.354  0.0661  0.0463  0.2156
 2338TIP3    H128505   5.718   4.556  14.268 -0.3314  0.9253  0.3346
 2338TIP3    H228506   5.758   4.485  14.396 -0.0582 -1.4273 -1.0173
 2339TIP3   OH228507   4.078   3.750   1.171  0.3672  0.4891  0.6270
 2339TIP3    H128508   4.071   3.764   1.076 -1.3288 -0.1662  0.6488
 2339TIP3    H228509   4.160   3.794   1.195  0.4845  1.2242 -1.0291
 2340TIP3   OH228510   5.942   5.342   1.360 -0.5610  0.4550  0.2251
 2340TIP3    H128511   5.931   5.430   1.324 -0.0979  0.2627 -0.3916
 2340TIP3    H228512   5.888   5.286   1.305 -1.2041  0.4142  0.8895
 2341TIP3   OH228513   1.706   2.958  11.819  0.3783 -0.4483 -0.6183
 2341TIP3    H128514   1.716   2.929  11.909  0.4509  0.1494 -0.4324
 2341TIP3    H228515   1.779   3.018  11.804 -1.7158  2.3854  0.1213
 2342TIP3   OH228516   0.637   1.099   1.746  0.1451  0.3981 -0.0609
 2342TIP3    H128517   0.710   1.119   1.805 -1.9724 -1.3209  3.3502
 2342TIP3    H228518   0.653   1.009   1.718 -0.3059  0.2224  0.2258
 2343TIP3   OH228519   3.309   5.201   0.809 -0.5392 -0.0448 -0.0386
 2343TIP3    H128520   3.240   5.149   0.850 -0.6088  1.2950  1.6046
 2343TIP3    H228521   3.261   5.267   0.758 -0.5257  1.5071  1.8957
 2344TIP3   OH228522   1.089   4.740  16.075 -0.2195 -0.1438  0.0658
 2344TIP3    H128523   1.150   4.774  16.141 -1.7149  1.4094  0.6730
 2344TIP3    H228524   1.019   4.806  16.071 -0.5621 -0.6295 -2.4797
 2345TIP3   OH228525   6.813   4.365  15.183  0.5254 -0.0977 -0.0912
 2345TIP3    H128526   6.908   4.370  15.170  0.6141 -1.2532  0.0159
 2345TIP3    H228527   6.803   4.309  15.259 -0.1940  1.7774  1.2096
 2346TIP3   OH228528   0.106   5.780  13.186 -0.0228 -0.3466 -0.3320
 2346TIP3    H128529   0.046   5.811  13.118  1.0013 -0.8115 -1.4724
 2346TIP3    H228530   0.158   5.712  13.143  0.2870 -1.0168  1.0744
 2347TIP3   OH228531   6.682   5.213   4.768 -0.4950  0.1860 -0.3986
 2347TIP3    H128532   6.597   5.195   4.807 -0.3877  0.4834 -0.0227
 2347TIP3    H228533   6.708   5.129   4.728 -1.2935  0.2963 -1.1768
 2348TIP3   OH228534   2.176   2.139  17.168  0.2836  0.2498  0.0246
 2348TIP3    H128535   2.267   2.168  17.171  0.6043 -0.3070 -2.8163
 2348TIP3    H228536   2.135   2.196  17.103 -1.5567  0.8262  1.6416
 2349TIP3   OH228537   2.704   2.788   1.250 -0.0773 -0.4089 -0.0354
 2349TIP3    H128538   2.700   2.692   1.256  0.5283 -0.3556  1.7948
 2349TIP3    H228539   2.621   2.818   1.286 -1.0077 -0.2678 -2.2494
 2350TIP3   OH228540   4.846   2.322  14.782 -0.5952 -0.4101 -0.7016
 2350TIP3    H128541   4.859   2.282  14.868 -0.1820 -0.7339 -0.9133
 2350TIP3    H228542   4.917   2.385  14.774 -2.7973  2.3869  0.7930
 2351TIP3   OH228543   6.195   5.059  13.042  0.4222 -0.3438 -0.7877
 2351TIP3    H128544   6.280   5.094  13.069  0.4878  0.9354 -2.5567
 2351TIP3    H228545   6.173   4.994  13.108  1.8731  0.7101  0.7483
 2352TIP3   OH228546   1.948   1.533  16.052  0.0596  0.3105  0.3888
 2352TIP3    H128547   1.928   1.503  16.141  0.9067  1.0019  0.8174
 2352TIP3    H228548   1.910   1.620  16.047 -0.3792  0.0938 -0.0827
 2353TIP3   OH228549   0.418   3.091  12.182  0.3230  0.0007  0.4178
 2353TIP3    H128550   0.387   3.035  12.111  1.8612  0.5719 -0.7363
 2353TIP3    H228551   0.396   3.043  12.262  0.8918 -1.8565 -0.5170
 2354TIP3   OH228552   4.613   2.006  15.383  0.0844  0.3406  0.3659
 2354TIP3    H128553   4.663   1.978  15.306 -1.5250 -0.8402 -0.2849
 2354TIP3    H228554   4.596   1.925  15.431 -1.5459  0.6549  0.3490
 2355TIP3   OH228555   2.078   6.269   1.764  0.2439  0.3743  0.0623
 2355TIP3    H128556   2.022   6.340   1.731 -1.5022  0.4105  2.9583
 2355TIP3    H228557   2.025   6.190   1.750  1.9866 -0.3589 -2.7106
 2356TIP3   OH228558   6.312   2.978   3.431  0.5071  0.1851  0.0400
 2356TIP3    H128559   6.252   2.905   3.444 -0.2460  0.4371 -1.7678
 2356TIP3    H228560   6.291   3.039   3.502  0.0080 -0.6226  0.5972
 2357TIP3   OH228561   0.218   1.920   3.348  0.3581  0.1366 -0.3829
 2357TIP3    H128562   0.290   1.958   3.297 -0.3878  0.7591 -0.9857
 2357TIP3    H228563   0.251   1.917   3.438  1.5563 -0.6394 -0.8252
 2358TIP3   OH228564   1.295   1.950   3.011  0.5379  0.7883 -0.7939
 2358TIP3    H128565   1.368   1.899   2.977  0.0490 -0.4325 -0.0508
 2358TIP3    H228566   1.217   1.910   2.973 -0.1710 -1.8220  3.1252
 2359TIP3   OH228567   4.590   1.401  16.555  0.0741 -0.3671 -0.3222
 2359TIP3    H128568   4.589   1.402  16.459 -0.9358 -2.3641 -0.3543
 2359TIP3    H228569   4.677   1.434  16.578  0.4175 -0.0806 -1.9183
 2360TIP3   OH228570   6.568   4.292  16.165  0.0989  0.2406  0.0882
 2360TIP3    H128571   6.598   4.312  16.077 -0.1063  0.0238 -0.0324
 2360TIP3    H228572   6.626   4.341  16.223  2.9157 -2.8153  0.0011
 2361TIP3   OH228573   0.010   6.107   2.462 -0.0228 -0.3815 -0.5428
 2361TIP3    H128574  -0.083   6.119   2.483  0.3342 -0.1868  1.0174
 2361TIP3    H228575   0.043   6.197   2.451  0.5150 -0.3094  1.4283
 2362TIP3   OH228576   0.484   0.972  12.401 -0.0499  0.2174  0.2586
 2362TIP3    H128577   0.576   0.988  12.379  0.4329  1.7015  3.1146
 2362TIP3    H228578   0.441   0.963  12.316  2.5867  0.2970 -1.1590
 2363TIP3   OH228579   0.980   2.105  16.791  0.2833  0.6350 -0.1791
 2363TIP3    H128580   0.949   2.195  16.780 -2.6255 -0.2327  0.5774
 2363TIP3    H228581   1.007   2.101  16.883  0.5281  0.7792 -0.2437
 2364TIP3   OH228582   5.931   1.974  13.803  0.0748  0.4411  0.2626
 2364TIP3    H128583   5.838   1.952  13.801  0.4320 -1.1016  0.1901
 2364TIP3    H228584   5.966   1.927  13.879  1.1468 -0.5208 -0.7872
 2365TIP3   OH228585   2.969   2.782  17.200 -0.0148  0.8176 -0.4410
 2365TIP3    H128586   2.955   2.780  17.105  0.3003 -0.2302 -0.4799
 2365TIP3    H228587   2.882   2.796  17.237 -0.5827 -1.3780 -0.8226
 2366TIP3   OH228588   6.198   4.603   5.078  0.3872  0.0585 -0.2937
 2366TIP3    H128589   6.168   4.532   5.020  0.1766  0.8919 -1.2242
 2366TIP3    H228590   6.153   4.681   5.045 -0.9462  0.2729  1.9892
 2367TIP3   OH228591   0.151   3.349  15.966  0.6660 -0.2853  0.1608
 2367TIP3    H128592   0.058   3.369  15.979  0.9085  0.7281  0.3873
 2367TIP3    H228593   0.155   3.254  15.962 -0.6238 -0.2803 -1.6382
 2368TIP3   OH228594   1.445   3.768  10.746  0.2569  1.0599  0.3890
 2368TIP3    H128595   1.529   3.739  10.711  0.3245  0.5566  0.9553
 2368TIP3    H228596   1.380   3.717  10.697  0.2002  2.5381 -1.1063
 2369TIP3   OH228597   6.757   5.473  14.035 -0.4515  0.0521  0.2762
 2369TIP3    H128598   6.850   5.476  14.057 -0.1976 -1.3600 -0.5285
 2369TIP3    H228599   6.720   5.551  14.076  1.1123  0.7054  0.4902
 2370TIP3   OH228600   2.373   3.361  11.871  0.1023 -0.1590  0.2488
 2370TIP3    H128601   2.325   3.291  11.827  0.2809  0.0841 -0.3362
 2370TIP3    H228602   2.424   3.403  11.801 -0.7260  1.1434  0.4060
 2371TIP3   OH228603   0.798   6.025  15.993  0.1584 -0.8078 -0.4536
 2371TIP3    H128604   0.886   6.021  16.029  0.1443  0.4545 -0.2557
 2371TIP3    H228605   0.810   6.028  15.898  0.4130  1.1101 -0.3816
 2372TIP3   OH228606   2.226   1.142   5.946  0.0607 -0.6692  0.4688
 2372TIP3    H128607   2.133   1.122   5.955  0.0159  0.1622  2.0033
 2372TIP3    H228608   2.265   1.117   6.029  0.9829  0.2014  0.3123
 2373TIP3   OH228609   0.937   1.431   0.805  0.1351  0.3160 -0.4411
 2373TIP3    H128610   0.852   1.450   0.844  1.0903  1.0997  1.2906
 2373TIP3    H228611   0.957   1.342   0.832  0.8356  0.8888  0.9488
 2374TIP3   OH228612   3.727   3.904  16.685 -0.3676  0.3466  0.3908
 2374TIP3    H128613   3.757   3.961  16.615 -0.9144  0.8874  0.5902
 2374TIP3    H228614   3.665   3.957  16.734 -1.5832 -0.7044  0.0304
 2375TIP3   OH228615   4.106   0.980   4.175  0.1012 -0.0323  0.5833
 2375TIP3    H128616   4.044   0.943   4.112  0.6441  0.3302 -0.1795
 2375TIP3    H228617   4.077   1.070   4.188  0.5618  0.1928  0.0876
 2376TIP3   OH228618   1.530   6.645   5.343 -0.1588 -0.2855  0.4868
 2376TIP3    H128619   1.463   6.604   5.398 -1.8210 -0.9819 -1.9833
 2376TIP3    H228620   1.483   6.673   5.264  1.7445  2.6693  0.3205
 2377TIP3   OH228621   1.954   6.293   0.010 -0.3423 -0.5161 -0.0578
 2377TIP3    H128622   2.009   6.356  -0.036  1.5354 -2.0744 -0.0132
 2377TIP3    H228623   1.944   6.220  -0.052 -1.7855 -0.5520  0.1959
 2378TIP3   OH228624   0.124   5.849  13.712  0.0373 -0.7797  0.3766
 2378TIP3    H128625   0.122   5.899  13.631 -0.1274 -1.9629 -0.3574
 2378TIP3    H228626   0.206   5.798  13.707 -0.4209 -1.5354  0.5282
 2379TIP3   OH228627   0.583   6.606  17.129  0.7469 -0.0073  0.3835
 2379TIP3    H128628   0.541   6.675  17.077  0.1490 -2.2875 -2.3211
 2379TIP3    H228629   0.510   6.563  17.174  0.5967 -1.3310 -1.0607
 2380TIP3   OH228630   2.059   4.908   0.525  0.2130 -0.6290 -0.2092
 2380TIP3    H128631   2.053   4.917   0.620  2.0455  1.6286 -0.2528
 2380TIP3    H228632   2.047   4.997   0.492 -1.2964 -1.5128 -2.1909
 2381TIP3   OH228633   3.056   0.092  13.756  0.6406  0.2091 -0.4219
 2381TIP3    H128634   3.152   0.095  13.762  0.8509  4.5638 -3.5340
 2381TIP3    H228635   3.038   0.072  13.664 -1.5664 -3.1174  0.6389
 2382TIP3   OH228636   2.356   0.105   5.677  0.1077  0.1196  0.3713
 2382TIP3    H128637   2.439   0.149   5.660 -1.2440  2.8365  0.6151
 2382TIP3    H228638   2.371   0.055   5.757  1.8494 -0.3899 -0.2551
 2383TIP3   OH228639   1.100   6.812  10.749 -0.4142  0.0574 -0.0169
 2383TIP3    H128640   1.169   6.753  10.781 -0.0102  0.1303 -0.7302
 2383TIP3    H228641   1.038   6.753  10.706  1.3746  0.3837 -3.1702
 2384TIP3   OH228642   0.559   6.176  13.842 -0.1086  0.4054  0.6756
 2384TIP3    H128643   0.478   6.148  13.885 -0.7753 -0.6142 -1.1471
 2384TIP3    H228644   0.564   6.120  13.764  1.7624  1.2479  0.1767
 2385TIP3   OH228645   2.897   3.609  14.988  0.2877  0.6851 -0.3099
 2385TIP3    H128646   2.839   3.536  14.964  0.1764  1.0066 -1.0437
 2385TIP3    H228647   2.884   3.620  15.082 -1.3884  1.2155 -0.5699
 2386TIP3   OH228648   3.000   5.731   2.444  0.1078  0.3177  0.0768
 2386TIP3    H128649   2.931   5.777   2.492 -0.1608  0.2751 -0.2625
 2386TIP3    H228650   2.961   5.713   2.358  0.8488  1.0528 -0.4148
 2387TIP3   OH228651   6.322   6.670   1.125 -0.3138  0.0366  0.1904
 2387TIP3    H128652   6.262   6.613   1.076  0.3521 -0.0741 -0.5170
 2387TIP3    H228653   6.391   6.692   1.061  0.2477  0.3782  0.9103
 2388TIP3   OH228654   5.459   5.609  10.803 -0.2823  0.1646  0.6586
 2388TIP3    H128655   5.420   5.553  10.737 -2.0364  1.3367  0.6581
 2388TIP3    H228656   5.544   5.635  10.766 -1.0756  0.5058 -0.9769
 2389TIP3   OH228657   6.051   2.964   5.542  0.6727 -0.2863 -0.0242
 2389TIP3    H128658   6.145   2.968   5.556  0.2344 -1.3953  3.9068
 2389TIP3    H228659   6.027   2.874   5.567 -1.2273 -0.5228 -2.5247
 2390TIP3   OH228660   2.051   3.905   1.216  0.0959  0.1735 -0.3487
 2390TIP3    H128661   2.015   3.993   1.209  2.2247  1.1714  0.7820
 2390TIP3    H228662   2.103   3.906   1.296  1.8292 -1.4794 -1.4051
 2391TIP3   OH228663   6.241   2.678   1.548  0.4379 -0.0419 -0.0270
 2391TIP3    H128664   6.171   2.649   1.606  1.1423 -0.4789  0.6095
 2391TIP3    H228665   6.196   2.705   1.467 -0.3397 -1.6273 -0.1311
 2392TIP3   OH228666   5.627   0.490   4.038  0.1519  0.1591 -0.3659
 2392TIP3    H128667   5.545   0.479   3.991 -0.5461  0.0869  0.8402
 2392TIP3    H228668   5.645   0.584   4.035 -0.6808  0.3516  0.5163
 2393TIP3   OH228669   1.794   2.794   6.281  0.0252  0.1699  0.6218
 2393TIP3    H128670   1.809   2.886   6.260 -0.1695  0.3299  1.1715
 2393TIP3    H228671   1.880   2.754   6.277  0.0105  0.2217 -0.3448
 2394TIP3   OH228672   4.927   0.084  15.195 -0.2354  0.4024  0.5004
 2394TIP3    H128673   4.943  -0.009  15.209  0.2044  0.2841 -0.7002
 2394TIP3    H228674   4.877   0.112  15.272 -0.9656 -0.9748  0.5426
 2395TIP3   OH228675   3.312   2.222  14.275 -0.3879 -0.0257 -0.4027
 2395TIP3    H128676   3.402   2.201  14.253 -0.2927  0.0358 -0.0780
 2395TIP3    H228677   3.306   2.317  14.263 -1.0477 -0.3277 -2.7051
 2396TIP3   OH228678   2.597   1.555   0.203 -0.4967  0.0159 -0.0464
 2396TIP3    H128679   2.683   1.580   0.170 -0.2653  0.2924  0.7357
 2396TIP3    H228680   2.551   1.638   0.214 -0.7230 -0.1046 -0.0956
 2397TIP3   OH228681   5.663   1.213  13.134 -0.0261  0.2539  0.0516
 2397TIP3    H128682   5.741   1.160  13.150  0.3863  0.3202 -1.5945
 2397TIP3    H228683   5.665   1.280  13.202  0.9959 -0.1334  0.4134
 2398TIP3   OH228684   2.460   3.865   1.436  0.0179  0.1849 -0.6835
 2398TIP3    H128685   2.516   3.814   1.377 -0.4304 -0.8884 -0.1991
 2398TIP3    H228686   2.507   3.863   1.520  0.0330  0.6293 -0.6819
 2399TIP3   OH228687   6.637   5.842  16.248 -0.3199 -0.6919  0.1135
 2399TIP3    H128688   6.611   5.828  16.340  0.1667  3.1839  0.9257
 2399TIP3    H228689   6.568   5.898  16.212  0.4211 -0.7355 -1.4005
 2400TIP3   OH228690   6.633   3.764  12.382  0.3063 -0.5499 -0.4274
 2400TIP3    H128691   6.561   3.798  12.330  0.4556  0.3268 -0.0590
 2400TIP3    H228692   6.672   3.841  12.424  2.0844 -0.8647 -1.4206
 2401TIP3   OH228693   6.627   0.508   2.513 -0.3386  0.4381 -0.3404
 2401TIP3    H128694   6.689   0.568   2.554 -0.7928  0.6069  0.0974
 2401TIP3    H228695   6.632   0.429   2.567  0.4382 -0.0235 -1.0543
 2402TIP3   OH228696   6.480   2.228   1.659 -0.1944  0.2694  0.1624
 2402TIP3    H128697   6.439   2.190   1.736 -0.3606 -2.8826 -1.3998
 2402TIP3    H228698   6.565   2.259   1.689 -0.4227 -0.5596  1.6778
 2403TIP3   OH228699   6.348   5.282   6.516 -0.3249 -0.1782 -0.1522
 2403TIP3    H128700   6.431   5.279   6.468 -0.3814  0.7925 -0.3155
 2403TIP3    H228701   6.339   5.373   6.545 -1.7802 -0.0396 -0.9498
 2404TIP3   OH228702   2.561   3.245  14.785 -0.3226 -0.2075 -0.7183
 2404TIP3    H128703   2.565   3.341  14.786  1.7351 -0.2787  0.6926
 2404TIP3    H228704   2.468   3.225  14.790 -0.6530  1.7333  1.8766
 2405TIP3   OH228705   1.403   3.039   0.649  0.0856 -0.0466 -0.2343
 2405TIP3    H128706   1.441   2.962   0.691  1.0367  1.2942  1.4337
 2405TIP3    H228707   1.310   3.019   0.643  0.2373 -1.0847  0.7038
 2406TIP3   OH228708   0.915   5.712   5.430 -0.9093  0.1317 -0.3049
 2406TIP3    H128709   0.843   5.654   5.454 -0.8383  0.0031 -0.4030
 2406TIP3    H228710   0.891   5.745   5.343  0.3558 -1.8748 -1.4512
 2407TIP3   OH228711   3.283   3.988   5.283 -0.3034  0.0190 -0.5477
 2407TIP3    H128712   3.239   3.903   5.282 -0.5540  0.1470 -0.5619
 2407TIP3    H228713   3.337   3.986   5.362 -0.9298  0.1573 -0.1092
 2408TIP3   OH228714   1.000   4.379   2.549 -0.6101  0.2506  0.4259
 2408TIP3    H128715   0.909   4.348   2.542 -0.8719  0.9144  0.8072
 2408TIP3    H228716   1.003   4.457   2.493 -0.2414  0.1487  0.3068
 2409TIP3   OH228717   4.865   0.890   5.711 -0.8503 -0.0161  0.7754
 2409TIP3    H128718   4.907   0.943   5.643 -1.0593 -1.0851 -0.1960
 2409TIP3    H228719   4.930   0.824   5.734 -0.9491  0.0641  1.3009
 2410TIP3   OH228720   6.507   2.199   0.714  0.4939 -0.3373 -0.0001
 2410TIP3    H128721   6.504   2.143   0.637  3.4412 -1.3385  0.5323
 2410TIP3    H228722   6.524   2.287   0.680 -0.5014 -0.3757 -0.6087
 2411TIP3   OH228723   4.928   1.385  15.700 -0.1171 -0.0461 -0.1975
 2411TIP3    H128724   4.995   1.316  15.707 -0.0737  0.0577  0.4167
 2411TIP3    H228725   4.857   1.355  15.757  0.0239  0.5595  0.2984
 2412TIP3   OH228726   6.786   5.674   2.161 -0.1919  0.0349 -0.1604
 2412TIP3    H128727   6.724   5.745   2.179 -0.0918 -0.6748  3.4186
 2412TIP3    H228728   6.862   5.694   2.216  1.2437 -1.0507 -1.6978
 2413TIP3   OH228729   3.956   5.493   2.679  0.4299 -0.2989  0.0175
 2413TIP3    H128730   3.877   5.547   2.681  1.9723  1.9824  2.4034
 2413TIP3    H228731   3.968   5.472   2.586 -0.5676  3.0199 -0.9433
 2414TIP3   OH228732   6.581   0.076   2.992  0.0921 -0.6780 -0.0288
 2414TIP3    H128733   6.543   0.151   2.946 -0.7767 -1.1744 -0.1336
 2414TIP3    H228734   6.658   0.111   3.037 -0.1405  0.2096 -0.3214
 2415TIP3   OH228735   4.445   5.281  12.493 -0.4506 -0.4734  0.1092
 2415TIP3    H128736   4.431   5.375  12.497 -2.0430 -0.7246  0.8008
 2415TIP3    H228737   4.540   5.271  12.490 -0.2961  1.1818 -1.0171
 2416TIP3   OH228738   3.445   5.227  11.497 -0.0495  0.3380 -0.7949
 2416TIP3    H128739   3.513   5.232  11.565 -2.0344  2.0428  1.1548
 2416TIP3    H228740   3.437   5.317  11.466 -2.0880  0.3301 -0.3154
 2417TIP3   OH228741   2.027   1.266  13.854 -0.3269 -0.0449 -0.5474
 2417TIP3    H128742   2.023   1.298  13.945  1.3182 -0.4049 -0.3328
 2417TIP3    H228743   2.121   1.259  13.836 -0.6555 -0.0121 -2.2751
 2418TIP3   OH228744   4.836   3.629  12.259 -0.3037  0.0882  0.4226
 2418TIP3    H128745   4.832   3.725  12.260 -0.8040  0.0658  0.3687
 2418TIP3    H228746   4.887   3.607  12.338  0.0559  0.4071  0.2837
 2419TIP3   OH228747   6.655   4.889  16.928 -0.1238  0.1334  0.3804
 2419TIP3    H128748   6.573   4.915  16.886  0.4076 -1.1386 -1.5025
 2419TIP3    H228749   6.630   4.865  17.017 -1.8364 -0.4748 -0.2507
 2420TIP3   OH228750   6.504   4.535  16.573  0.1347  0.6264  0.5876
 2420TIP3    H128751   6.503   4.440  16.577 -1.1497  0.6227  0.4049
 2420TIP3    H228752   6.588   4.560  16.611  1.3761 -0.6588 -1.2165
 2421TIP3   OH228753   4.534   2.531   5.509 -0.5320 -0.0357 -0.3155
 2421TIP3    H128754   4.454   2.479   5.508  0.5966 -1.8117 -0.6142
 2421TIP3    H228755   4.547   2.556   5.417 -0.2207 -0.5598 -0.4126
 2422TIP3   OH228756   4.901   5.478   2.910  0.6701  0.3158  0.3534
 2422TIP3    H128757   4.819   5.520   2.937 -0.6210  0.7041 -3.7542
 2422TIP3    H228758   4.901   5.394   2.955 -2.3245  0.0544 -0.0204
 2423TIP3   OH228759   4.652   1.259   5.573 -0.0143 -0.5786  0.0054
 2423TIP3    H128760   4.657   1.239   5.479  0.0131  0.2736 -0.1800
 2423TIP3    H228761   4.569   1.307   5.583  0.0231 -0.5959  0.4002
 2424TIP3   OH228762   1.407   1.337  12.494  0.0524  0.2550 -0.1202
 2424TIP3    H128763   1.466   1.363  12.424 -0.5325 -1.3687 -1.2462
 2424TIP3    H228764   1.452   1.265  12.538  0.4924  1.3691  1.3156
 2425TIP3   OH228765   1.221   3.481   1.989  0.1022 -0.2498  0.7260
 2425TIP3    H128766   1.240   3.455   1.899 -2.0460  2.4377 -0.5761
 2425TIP3    H228767   1.306   3.508   2.025  0.5020  1.8679 -1.6483
 2426TIP3   OH228768   5.418   0.390  15.160 -0.0357  0.5772 -0.0104
 2426TIP3    H128769   5.477   0.350  15.095  0.0337  0.5206  0.0880
 2426TIP3    H228770   5.353   0.323  15.178  0.1751  0.4496  0.2767
 2427TIP3   OH228771   0.158   2.475  13.272  0.5347 -0.1796  0.2362
 2427TIP3    H128772   0.240   2.518  13.248 -0.8718  2.0673 -0.7519
 2427TIP3    H228773   0.104   2.545  13.309 -1.1142 -1.5173  0.4563
 2428TIP3   OH228774   2.067   3.367   5.930 -0.6738  0.3603 -0.3249
 2428TIP3    H128775   2.083   3.274   5.944  0.1283  0.7187  1.1824
 2428TIP3    H228776   2.012   3.394   6.003 -0.1481  1.2775 -0.2639
 2429TIP3   OH228777   2.435   5.348  16.821 -0.0747  0.5056 -0.5783
 2429TIP3    H128778   2.394   5.379  16.902 -0.6511 -0.3187 -0.5444
 2429TIP3    H228779   2.388   5.393  16.751  1.0694  1.9624 -0.4346
 2430TIP3   OH228780   6.029   6.573   4.868 -0.1263 -0.7839  0.1647
 2430TIP3    H128781   6.113   6.603   4.833 -1.7513  0.5261 -2.8221
 2430TIP3    H228782   5.990   6.651   4.909 -1.2573 -0.5335 -1.3324
 2431TIP3   OH228783   2.072   3.461  12.969  0.4510 -0.0294  0.3700
 2431TIP3    H128784   2.118   3.378  12.981  1.3429  0.4046 -0.0037
 2431TIP3    H228785   1.980   3.440  12.985  0.5639 -1.2583 -0.5698
 2432TIP3   OH228786   3.312   6.673   1.269  0.0513 -0.6666 -0.2084
 2432TIP3    H128787   3.246   6.616   1.310  0.6602 -0.2903  1.3293
 2432TIP3    H228788   3.396   6.634   1.295  0.4474 -0.1861 -0.7794
 2433TIP3   OH228789   4.237   5.029   4.144  0.2368  0.2409  0.0695
 2433TIP3    H128790   4.280   5.041   4.228  0.9182 -0.9422 -0.1057
 2433TIP3    H228791   4.169   4.964   4.161 -0.6301  1.1211  0.0407
 2434TIP3   OH228792   5.391   1.885  16.948 -0.2535  0.3756  0.1271
 2434TIP3    H128793   5.412   1.943  17.021  0.9051 -0.0743  0.1594
 2434TIP3    H228794   5.465   1.895  16.887 -1.6789  1.5153 -1.4717
 2435TIP3   OH228795   6.310   4.926   0.243 -0.4034  0.4404  0.1064
 2435TIP3    H128796   6.334   4.987   0.312  1.7809  0.4708 -0.6240
 2435TIP3    H228797   6.221   4.898   0.265 -0.6651  2.3211  1.5465
 2436TIP3   OH228798   3.414   2.694  11.820  0.1908  0.4888  0.2906
 2436TIP3    H128799   3.349   2.765  11.813 -0.3887  0.2913  3.0202
 2436TIP3    H228800   3.498   2.739  11.819 -0.1652  1.2219  1.6029
 2437TIP3   OH228801   4.359   1.387  16.979 -0.0417 -0.3335  0.0826
 2437TIP3    H128802   4.395   1.298  16.972 -0.4428 -0.3683 -1.5285
 2437TIP3    H228803   4.273   1.382  16.939  0.2926  0.9951 -0.8408
 2438TIP3   OH228804   1.132   5.684  10.749  0.4654  0.0676  0.2374
 2438TIP3    H128805   1.080   5.627  10.805  1.5666  0.0367  1.2628
 2438TIP3    H228806   1.209   5.706  10.802  1.2022  0.5886 -1.0119
 2439TIP3   OH228807   4.562   2.166   5.774 -0.1974 -0.3724 -0.0507
 2439TIP3    H128808   4.500   2.189   5.843 -1.5352  0.3139 -1.4440
 2439TIP3    H228809   4.524   2.089   5.732 -1.1283  1.1983 -2.1589
 2440TIP3   OH228810   6.689   1.228   4.442  0.0465 -0.3343 -0.0373
 2440TIP3    H128811   6.666   1.313   4.479  1.6070 -0.1781  0.6363
 2440TIP3    H228812   6.688   1.242   4.348  2.2886  1.0216  0.0976
 2441TIP3   OH228813   0.774   0.429   5.807  0.2943  0.0293 -0.4248
 2441TIP3    H128814   0.762   0.362   5.875 -0.5834  0.2499 -0.3538
 2441TIP3    H228815   0.855   0.404   5.763  0.4998 -0.5147  0.2505
 2442TIP3   OH228816   4.132   2.698   3.886  0.2883 -0.0517  0.3168
 2442TIP3    H128817   4.085   2.618   3.908  0.2287 -0.2531 -0.5152
 2442TIP3    H228818   4.080   2.768   3.925  0.5498 -0.4407  1.3847
 2443TIP3   OH228819   3.876   5.554  13.836  0.2604 -0.3888  0.7184
 2443TIP3    H128820   3.799   5.557  13.894  0.6701  1.8702  1.1751
 2443TIP3    H228821   3.949   5.534  13.894  0.4454  0.3098  0.7195
 2444TIP3   OH228822   5.223   5.347   0.361  0.1031  0.4178  0.1168
 2444TIP3    H128823   5.273   5.418   0.402 -0.4023  0.1247  1.2385
 2444TIP3    H228824   5.202   5.381   0.274 -1.1474  2.1346  1.0505
 2445TIP3   OH228825   3.011   3.886   4.577 -0.4901 -0.0418 -0.3020
 2445TIP3    H128826   2.957   3.824   4.625 -2.2487  0.6993 -1.2917
 2445TIP3    H228827   3.099   3.875   4.614 -0.7987 -2.9791 -0.3302
 2446TIP3   OH228828   0.914   0.010   6.676  0.3601 -1.1211 -0.2915
 2446TIP3    H128829   0.833   0.041   6.637  1.2487  1.2908 -0.3075
 2446TIP3    H228830   0.928  -0.076   6.636 -1.0535 -0.6298 -1.9250
 2447TIP3   OH228831   0.723   4.186   3.399 -0.3348 -0.4547  0.8185
 2447TIP3    H128832   0.818   4.195   3.409 -0.1415  0.3853 -1.4227
 2447TIP3    H228833   0.696   4.131   3.472  1.9742 -1.2119  1.1348
 2448TIP3   OH228834   3.647   3.965   5.529  0.1812  0.6681  0.5274
 2448TIP3    H128835   3.626   3.905   5.458  1.0266 -0.9345  1.6254
 2448TIP3    H228836   3.666   3.909   5.604 -2.1765  2.3508  2.4742
 2449TIP3   OH228837   6.722   4.712  10.617 -0.3028  0.1500 -0.0675
 2449TIP3    H128838   6.753   4.622  10.617 -0.4982  0.0857 -0.5692
 2449TIP3    H228839   6.798   4.764  10.642 -0.0950 -0.1184 -0.1513
 2450TIP3   OH228840   2.299   0.816  15.411 -0.1487  0.0820 -0.3481
 2450TIP3    H128841   2.349   0.798  15.491  1.2225  1.6383 -0.8202
 2450TIP3    H228842   2.313   0.910  15.395 -2.5559  0.3773 -0.9648
 2451TIP3   OH228843   0.688   3.436  11.402  0.7610  0.7499  0.3690
 2451TIP3    H128844   0.670   3.383  11.324  2.7111  0.2107  0.2702
 2451TIP3    H228845   0.764   3.488  11.379 -0.5904  2.9718  0.8006
 2452TIP3   OH228846   1.257   1.074  11.364 -0.0162  0.1071  0.7188
 2452TIP3    H128847   1.200   1.020  11.309  1.9368 -0.8236 -0.4260
 2452TIP3    H228848   1.284   1.015  11.435  2.0742 -0.4464 -0.5024
 2453TIP3   OH228849   0.186   1.442   1.047  0.0336 -0.0350 -0.2848
 2453TIP3    H128850   0.135   1.468   1.123 -0.0588  1.9450 -0.9679
 2453TIP3    H228851   0.136   1.476   0.972  1.5920  0.6508 -1.0378
 2454TIP3   OH228852   5.408   3.472  11.429  0.7663 -0.1882  0.4405
 2454TIP3    H128853   5.432   3.524  11.353  1.8247 -1.5929 -0.2024
 2454TIP3    H228854   5.447   3.519  11.503  1.7705 -0.0833 -0.1426
 2455TIP3   OH228855   6.699   6.040   1.370 -0.5314 -0.0308 -0.2976
 2455TIP3    H128856   6.637   6.086   1.313 -1.3525 -0.2678  0.3939
 2455TIP3    H228857   6.765   6.005   1.310 -0.4493  1.1868 -0.9333
 2456TIP3   OH228858   4.539   2.019   0.457 -0.0174  0.3548 -0.2331
 2456TIP3    H128859   4.522   1.999   0.549 -2.5764  0.6456 -0.6034
 2456TIP3    H228860   4.499   1.946   0.409  2.7024 -0.6368 -1.1001
 2457TIP3   OH228861   3.295   3.653   0.100  0.0773 -0.4396  0.4022
 2457TIP3    H128862   3.350   3.612   0.167 -0.8756 -2.1517  0.1659
 2457TIP3    H228863   3.206   3.623   0.119  0.0108 -2.4733 -2.6843
 2458TIP3   OH228864   1.728   5.988   3.094 -0.0714 -0.1529  0.0285
 2458TIP3    H128865   1.649   6.016   3.047  0.7087  2.1741  0.0665
 2458TIP3    H228866   1.716   5.893   3.105 -3.7561  0.4208  1.7510
 2459TIP3   OH228867   6.647   5.977   0.581  0.6260 -0.7675 -0.1843
 2459TIP3    H128868   6.642   5.946   0.671 -0.6411 -2.0523 -0.6777
 2459TIP3    H228869   6.740   5.995   0.566  1.2582 -3.3611  0.4551
 2460TIP3   OH228870   1.137   5.360  14.043 -0.2488  0.1926 -0.3221
 2460TIP3    H128871   1.154   5.319  14.129 -1.6308 -0.1093 -0.1831
 2460TIP3    H228872   1.074   5.302  14.002 -0.3042  0.8571 -1.1716
 2461TIP3   OH228873   6.526   5.461  12.566  0.0028 -0.4157 -0.6313
 2461TIP3    H128874   6.558   5.484  12.479  0.2796  0.2740 -0.3481
 2461TIP3    H228875   6.476   5.537  12.595 -1.5545 -1.3065 -0.8889
 2462TIP3   OH228876   1.881   4.222   1.941  0.8492  0.1728 -0.2205
 2462TIP3    H128877   1.849   4.200   2.029 -0.0203 -1.0409 -0.8392
 2462TIP3    H228878   1.829   4.299   1.916  1.1705  0.5841  0.3669
 2463TIP3   OH228879   6.419   1.149   1.441 -0.4720  0.2108  0.5023
 2463TIP3    H128880   6.468   1.228   1.419 -1.3774  0.9042  0.9655
 2463TIP3    H228881   6.438   1.134   1.533  1.3873 -1.3223 -0.1056
 2464TIP3   OH228882   2.255   2.480   3.613 -0.2046 -0.4336  0.0423
 2464TIP3    H128883   2.326   2.537   3.584  0.9150 -1.7456  0.1933
 2464TIP3    H228884   2.197   2.473   3.537 -0.1177  0.5420 -0.1149
 2465TIP3   OH228885   4.310   3.491  16.405  0.4967  0.2511 -0.1981
 2465TIP3    H128886   4.223   3.532  16.398  0.7551  0.6511 -1.1798
 2465TIP3    H228887   4.307   3.444  16.488 -0.6685  0.2572 -0.2164
 2466TIP3   OH228888   0.814   4.486  11.602 -0.3324 -0.2576  0.0194
 2466TIP3    H128889   0.879   4.445  11.658  0.1445  0.8384  0.2898
 2466TIP3    H228890   0.865   4.530  11.534 -0.9384 -2.4216 -1.8889
 2467TIP3   OH228891   0.158   0.734  14.465  0.7269  0.1907  0.1274
 2467TIP3    H128892   0.144   0.695  14.551 -0.3061  2.1890  0.9126
 2467TIP3    H228893   0.069   0.749  14.431  1.1222 -0.8330 -1.4280
 2468TIP3   OH228894   0.289   3.206   4.300 -0.2749 -0.3670  0.0633
 2468TIP3    H128895   0.227   3.212   4.227 -0.0807  0.1114 -0.0651
 2468TIP3    H228896   0.371   3.242   4.265  0.1636 -1.2607  0.1416
 2469TIP3   OH228897   5.572   6.773   5.416  0.1738 -0.2184  0.0260
 2469TIP3    H128898   5.580   6.850   5.472  1.8655  1.1864 -2.0516
 2469TIP3    H228899   5.640   6.713   5.447  0.3229  0.0559  0.2319
 2470TIP3   OH228900   4.085   6.077   3.837  0.2484 -0.4464 -0.3402
 2470TIP3    H128901   4.155   6.139   3.813 -0.8337  0.6255 -0.7968
 2470TIP3    H228902   4.120   5.991   3.814  1.4708  0.0764 -0.4530
 2471TIP3   OH228903   1.681   0.416  15.009  0.0491 -0.2145  0.2538
 2471TIP3    H128904   1.661   0.376  15.094  3.1092 -2.5935 -0.0379
 2471TIP3    H228905   1.621   0.490  15.002  0.5007  0.7835  5.0246
 2472TIP3   OH228906   0.699   2.367   1.863 -0.0541 -0.1849  0.2885
 2472TIP3    H128907   0.709   2.363   1.768  0.4664  0.5534  0.3138
 2472TIP3    H228908   0.787   2.380   1.897 -0.5820  2.5937  0.6997
 2473TIP3   OH228909   0.507   1.905   0.098 -0.0309  0.0126  0.2677
 2473TIP3    H128910   0.566   1.972   0.132 -0.9480  0.1776  1.5567
 2473TIP3    H228911   0.431   1.908   0.155 -0.5524 -1.3989 -0.3159
 2474TIP3   OH228912   2.929   6.206  12.146  0.2438  0.2914 -0.4667
 2474TIP3    H128913   2.943   6.186  12.053  0.8429 -0.3768 -0.2347
 2474TIP3    H228914   2.835   6.223  12.153  0.3102  1.0653 -1.3385
 2475TIP3   OH228915   6.206   4.485  11.340  0.6473  0.2384  0.4188
 2475TIP3    H128916   6.172   4.569  11.308 -0.8925 -0.7956 -0.7385
 2475TIP3    H228917   6.202   4.428  11.264  0.7531 -1.1550  1.4453
 2476TIP3   OH228918   5.804   4.326  12.015  0.2857 -0.2619  0.5961
 2476TIP3    H128919   5.893   4.332  12.050  0.1436 -1.8432  1.2867
 2476TIP3    H228920   5.750   4.305  12.092 -0.5553 -0.1595  0.0335
 2477TIP3   OH228921   6.398   3.155   5.009  0.0721  0.2903  0.8693
 2477TIP3    H128922   6.421   3.084   5.069  1.2803 -0.8705 -0.9311
 2477TIP3    H228923   6.478   3.207   5.002 -0.1340  0.5476  0.4339
 2478TIP3   OH228924   4.544   3.281   2.548  0.0838  0.1400  0.1323
 2478TIP3    H128925   4.507   3.314   2.630 -0.7161 -0.4610  0.0248
 2478TIP3    H228926   4.584   3.197   2.572  3.5482  1.8891  0.7361
 2479TIP3   OH228927   0.792   0.797   0.805  0.4645  0.1241  0.2706
 2479TIP3    H128928   0.875   0.812   0.852  0.3171 -0.0831  0.5991
 2479TIP3    H228929   0.819   0.768   0.718  0.7311 -1.2510  0.8021
 2480TIP3   OH228930   1.551   2.282  17.089  1.1221 -0.3491 -0.2024
 2480TIP3    H128931   1.496   2.245  17.158 -0.1237 -1.0723 -1.5626
 2480TIP3    H228932   1.547   2.376  17.103 -0.0653 -0.4316 -0.0021
 2481TIP3   OH228933   5.113   0.429   0.298 -0.3133  0.4006 -0.2444
 2481TIP3    H128934   5.039   0.374   0.274  1.8114 -0.9979 -4.0259
 2481TIP3    H228935   5.092   0.516   0.263 -0.4346  0.1720 -0.7313
 2482TIP3   OH228936   3.170   2.069  14.465 -0.0605  0.1684 -0.1186
 2482TIP3    H128937   3.121   2.016  14.402 -0.7330  0.8021 -0.1275
 2482TIP3    H228938   3.240   2.109  14.414 -0.3680  0.3701 -0.3766
 2483TIP3   OH228939   5.279   1.869   4.617 -0.2927 -0.4050 -0.0806
 2483TIP3    H128940   5.330   1.841   4.693 -1.2937 -0.5998  0.5279
 2483TIP3    H228941   5.278   1.793   4.559 -0.5679 -0.6762  0.2736
 2484TIP3   OH228942   3.061   4.880  16.475 -0.5573 -0.3202  0.4331
 2484TIP3    H128943   3.018   4.804  16.435  0.2306  0.7888 -2.6644
 2484TIP3    H228944   3.119   4.843  16.541 -0.9311 -2.3623 -0.3503
 2485TIP3   OH228945   6.605   4.028  12.501  0.1052 -0.4730  0.5863
 2485TIP3    H128946   6.613   4.120  12.526  1.3818 -0.3168 -0.2961
 2485TIP3    H228947   6.533   3.994  12.554  0.5936  0.6539  2.0064
 2486TIP3   OH228948   6.675   4.457  15.529  0.0089 -0.1702 -0.4570
 2486TIP3    H128949   6.603   4.466  15.467  0.0056 -2.1796 -0.8013
 2486TIP3    H228950   6.649   4.384  15.586 -0.1572  1.8860  2.1966
 2487TIP3   OH228951   4.688   4.267   3.433 -1.2160  0.0835  0.5384
 2487TIP3    H128952   4.753   4.249   3.365 -2.8837 -0.8473 -0.8379
 2487TIP3    H228953   4.629   4.192   3.432 -1.8179  0.4872  2.3953
 2488TIP3   OH228954   2.145   2.768  15.399  0.0509  0.2451  0.2354
 2488TIP3    H128955   2.156   2.684  15.444  3.3246  0.5375  0.1103
 2488TIP3    H228956   2.172   2.751  15.309  1.3131  1.5441  0.3557
 2489TIP3   OH228957   5.728   4.671  11.946 -0.2016  0.6558 -0.1807
 2489TIP3    H128958   5.715   4.577  11.949 -1.0843  0.7000 -1.9602
 2489TIP3    H228959   5.804   4.684  11.889 -0.0439  1.0139  0.1056
 2490TIP3   OH228960   1.473   0.173  15.855  0.6478  0.0958  0.2634
 2490TIP3    H128961   1.515   0.093  15.886  0.2187  0.3201  1.4768
 2490TIP3    H228962   1.530   0.244  15.886  1.8310  0.2134 -2.1030
 2491TIP3   OH228963   5.401   1.943   1.979 -0.3236 -0.1237 -0.0244
 2491TIP3    H128964   5.368   1.874   1.921 -0.0029 -1.0525  0.8818
 2491TIP3    H228965   5.334   1.952   2.046  0.0481 -0.1776  0.3528
 2492TIP3   OH228966   6.649   6.326  11.121  0.9118 -0.2163  0.6166
 2492TIP3    H128967   6.591   6.355  11.191  0.5888 -0.6083  0.5088
 2492TIP3    H228968   6.628   6.383  11.047  1.7176  0.6451  1.0339
 2493TIP3   OH228969   1.119   5.838  15.102  0.1458 -0.1484 -0.4211
 2493TIP3    H128970   1.041   5.843  15.157 -0.1332  2.9450 -0.9862
 2493TIP3    H228971   1.189   5.875  15.157  0.5098  0.0859 -1.0328
 2494TIP3   OH228972   2.187   2.595  12.289  0.0222  0.5466 -0.6720
 2494TIP3    H128973   2.128   2.559  12.355  0.4901  1.5234  0.2786
 2494TIP3    H228974   2.262   2.536  12.288 -0.3621  0.0501 -0.9511
 2495TIP3   OH228975   6.627   5.421   1.417 -0.6631  0.4463  0.3967
 2495TIP3    H128976   6.533   5.419   1.436 -0.5146 -0.3937  1.0874
 2495TIP3    H228977   6.663   5.485   1.478 -0.7337  0.4951  0.3865
 2496TIP3   OH228978   4.092   5.616   3.622 -0.4490 -0.0621 -0.3433
 2496TIP3    H128979   4.155   5.553   3.658  0.2407  1.1615  0.6293
 2496TIP3    H228980   4.112   5.619   3.529  1.4056  0.8163  0.0552
 2497TIP3   OH228981   3.108   0.996   0.130  0.7559 -0.2672 -0.6584
 2497TIP3    H128982   3.145   0.984   0.217 -0.2698  0.6412 -0.0787
 2497TIP3    H228983   3.019   1.028   0.146 -0.2207 -2.1883 -2.0156
 2498TIP3   OH228984   1.509   3.870   0.495  0.0750 -0.2086  0.2490
 2498TIP3    H128985   1.535   3.943   0.550 -0.9145  0.4970 -0.2124
 2498TIP3    H228986   1.485   3.800   0.556  0.3935  0.0773  0.6941
 2499TIP3   OH228987   1.192   4.407   4.680  0.2081  0.1680 -0.3038
 2499TIP3    H128988   1.139   4.487   4.687  0.3844  0.4070 -1.4609
 2499TIP3    H228989   1.266   4.422   4.738 -1.0879 -0.2658  1.5158
 2500TIP3   OH228990   1.438   1.054   3.243 -0.1549  0.6883  0.3876
 2500TIP3    H128991   1.471   1.060   3.332  3.7526  0.4655 -0.9349
 2500TIP3    H228992   1.466   1.135   3.201  0.7967 -0.5393 -1.4389
 2501TIP3   OH228993   3.660   2.046   0.678 -0.1008 -0.1284  0.0561
 2501TIP3    H128994   3.580   2.001   0.708  0.6405 -0.7795  1.1241
 2501TIP3    H228995   3.728   1.978   0.682  1.1321  1.1526  2.0937
 2502TIP3   OH228996   3.286   2.551  14.641 -0.1677 -1.0612  0.4256
 2502TIP3    H128997   3.336   2.612  14.694 -1.2497  0.8500 -0.7092
 2502TIP3    H228998   3.347   2.521  14.573  0.1222 -0.6208  0.4947
 2503TIP3   OH228999   0.489   1.118   4.852  0.0028  0.6128 -0.0477
 2503TIP3    H129000   0.436   1.141   4.776 -0.3913 -0.7915 -0.2192
 2503TIP3    H229001   0.533   1.036   4.827  0.0019  0.2329  1.1593
 2504TIP3   OH229002   5.563   6.531   0.192 -0.5483  0.5237 -0.5427
 2504TIP3    H129003   5.607   6.480   0.260 -0.3750  0.9339 -0.3481
 2504TIP3    H229004   5.551   6.469   0.120  1.4692  0.7341 -1.0893
 2505TIP3   OH229005   3.439   3.481   5.367 -0.7528  0.4719 -0.2433
 2505TIP3    H129006   3.515   3.525   5.406 -0.6510  0.7086 -0.7020
 2505TIP3    H229007   3.472   3.395   5.343 -0.3223  0.9461 -1.4253
 2506TIP3   OH229008   2.384   4.781  16.741  0.1957 -0.5870  0.2834
 2506TIP3    H129009   2.379   4.875  16.761  1.2001 -0.6481  0.8447
 2506TIP3    H229010   2.420   4.778  16.652 -3.7785 -0.3341 -1.4245
 2507TIP3   OH229011   0.994   0.796   4.176  0.8263  0.5940  0.1479
 2507TIP3    H129012   0.913   0.824   4.134  0.4734 -2.0691 -1.0636
 2507TIP3    H229013   0.965   0.745   4.251  1.2700 -2.0745 -1.4207
 2508TIP3   OH229014   1.018   3.156   4.612 -0.1209 -0.2715  0.2541
 2508TIP3    H129015   1.012   3.250   4.629 -0.9326 -0.0026 -1.3411
 2508TIP3    H229016   1.070   3.150   4.532  0.9368 -1.2655  0.9972
 2509TIP3   OH229017   0.767   3.282   0.091 -0.3534 -0.4518 -0.1154
 2509TIP3    H129018   0.742   3.221   0.160  0.2872  0.5087  0.9806
 2509TIP3    H229019   0.841   3.241   0.048  0.2110 -0.3650  0.7597
 2510TIP3   OH229020   3.053   4.190  14.255 -0.1005 -0.6029  0.0568
 2510TIP3    H129021   3.060   4.273  14.302 -3.1996  0.1755 -0.6806
 2510TIP3    H229022   3.070   4.123  14.320 -0.3560  0.5606  1.3364
 2511TIP3   OH229023   1.722   5.167   0.523 -1.2364 -0.2514  1.1226
 2511TIP3    H129024   1.716   5.133   0.434 -1.3169  0.9829  0.6416
 2511TIP3    H229025   1.631   5.170   0.554 -1.6284  2.7226 -0.0974
 2512TIP3   OH229026   6.532   0.640  16.280  0.3634 -0.2437 -0.1932
 2512TIP3    H129027   6.447   0.597  16.287  0.3665 -0.1943  0.1872
 2512TIP3    H229028   6.584   0.583  16.225  0.5790 -1.0612  0.8510
 2513TIP3   OH229029   6.586   0.646   4.653  0.0418 -0.3551  0.1017
 2513TIP3    H129030   6.503   0.653   4.699  0.1234  1.4618  0.0044
 2513TIP3    H229031   6.572   0.691   4.570  0.7812 -1.0479 -0.4107
 2514TIP3   OH229032   5.364   0.483   5.261 -0.1616  0.3004 -0.1318
 2514TIP3    H129033   5.304   0.493   5.187 -0.3645 -1.7329 -0.2908
 2514TIP3    H229034   5.311   0.503   5.338 -0.7209 -0.2258 -0.3668
 2515TIP3   OH229035   2.500   2.695   3.903 -0.7926 -0.0662  0.0660
 2515TIP3    H129036   2.576   2.665   3.952 -2.4489 -1.2466  1.9810
 2515TIP3    H229037   2.536   2.729   3.821  1.7735 -0.6327  0.9199
 2516TIP3   OH229038   3.915   4.691  16.688  0.2321  0.1011  0.0328
 2516TIP3    H129039   3.869   4.623  16.638  1.1057 -0.4037 -0.0873
 2516TIP3    H229040   3.953   4.748  16.621  0.1754  0.2523  0.1287
 2517TIP3   OH229041   5.403   0.787   1.472  0.3141  0.4876  0.7827
 2517TIP3    H129042   5.348   0.796   1.394 -0.4185 -2.0065  0.9490
 2517TIP3    H229043   5.346   0.808   1.545  0.5639  1.3002  0.7453
 2518TIP3   OH229044   0.422   4.797  11.530 -0.4821  0.3633  0.0922
 2518TIP3    H129045   0.375   4.819  11.610  1.9390  2.3826  1.0333
 2518TIP3    H229046   0.438   4.881  11.488  1.2012 -0.3735 -0.7962
 2519TIP3   OH229047   6.182   5.365   2.640  0.3706  0.0912  0.2459
 2519TIP3    H129048   6.112   5.315   2.599  0.7990  0.2277 -0.6464
 2519TIP3    H229049   6.162   5.457   2.619 -0.8696  0.3964  2.5601
 2520TIP3   OH229050   4.103   6.800   1.763  0.4738 -0.3950  0.1359
 2520TIP3    H129051   4.197   6.802   1.784  0.1029  2.1232  1.8760
 2520TIP3    H229052   4.092   6.865   1.694  0.1544 -1.3749 -0.7355
 2521TIP3   OH229053   3.795   5.820   5.003 -0.0631  0.2036 -0.0890
 2521TIP3    H129054   3.880   5.859   4.980 -0.4088  1.5882  0.9083
 2521TIP3    H229055   3.738   5.841   4.929 -0.6550  2.9625  1.0720
 2522TIP3   OH229056   5.937   5.639   0.610  0.2592 -0.2041 -0.9041
 2522TIP3    H129057   5.917   5.646   0.517  1.2737  0.1859 -1.1028
 2522TIP3    H229058   5.874   5.576   0.644 -1.6559  1.3965 -1.3745
 2523TIP3   OH229059   6.718   0.377  14.162 -0.3783 -0.5118  0.5003
 2523TIP3    H129060   6.763   0.292  14.164  2.5688  1.0100  0.8856
 2523TIP3    H229061   6.704   0.399  14.254 -2.5202 -1.2057  0.3917
 2524TIP3   OH229062   5.780   4.455   0.374 -0.0404  0.0157 -0.1676
 2524TIP3    H129063   5.832   4.379   0.348  0.2035 -0.9030  2.8501
 2524TIP3    H229064   5.838   4.530   0.360  1.3251 -0.7979  1.1051
 2525TIP3   OH229065   0.196   4.175  16.329  0.1607  0.1508 -0.0340
 2525TIP3    H129066   0.263   4.150  16.392 -0.0551  0.8280  0.4709
 2525TIP3    H229067   0.214   4.121  16.251  1.8675  1.0259 -0.2588
 2526TIP3   OH229068   2.181   3.859   2.982  0.4707  0.6928 -0.0657
 2526TIP3    H129069   2.269   3.843   2.948  0.1199 -0.3117 -0.5519
 2526TIP3    H229070   2.193   3.920   3.054  1.7205 -0.4147  0.6857
 2527TIP3   OH229071   0.716   5.151  14.315  0.0179 -0.5024  0.2338
 2527TIP3    H129072   0.644   5.206  14.345 -1.4709 -0.9600 -2.3076
 2527TIP3    H229073   0.741   5.188  14.230  2.3711 -0.7258  0.7993
 2528TIP3   OH229074   0.008   3.860  16.506 -0.4472 -0.6581  0.1533
 2528TIP3    H129075  -0.026   3.930  16.561  3.0568  1.6105 -0.3910
 2528TIP3    H229076   0.010   3.783  16.564  0.2657  0.9116  2.2886
 2529TIP3   OH229077   3.525   4.236   1.295  0.2367 -0.5100 -0.3418
 2529TIP3    H129078   3.557   4.156   1.338 -1.6476 -0.6655  0.7925
 2529TIP3    H229079   3.515   4.299   1.366 -0.7561 -0.0691 -0.8637
 2530TIP3   OH229080   5.010   6.600  16.334  0.0054  0.1108  0.0279
 2530TIP3    H129081   5.058   6.679  16.308  0.0337 -0.4018 -1.5373
 2530TIP3    H229082   5.069   6.555  16.394  0.2652  0.9443  0.4091
 2531TIP3   OH229083   5.477   3.139  16.528 -0.1404  0.2599  0.3483
 2531TIP3    H129084   5.460   3.128  16.622  4.3463 -0.2045  1.2343
 2531TIP3    H229085   5.479   3.050  16.493  2.2192  0.1564  0.6750
 2532TIP3   OH229086   6.732   6.228   3.506  0.3364  0.3970  0.5763
 2532TIP3    H129087   6.791   6.301   3.521  0.1509  0.4348  1.1292
 2532TIP3    H229088   6.781   6.151   3.536  0.6403  0.2545 -0.2659
 2533TIP3   OH229089   4.518   0.342   1.855  0.4019  0.1660  0.0709
 2533TIP3    H129090   4.429   0.322   1.886  0.6401  1.4875  1.6433
 2533TIP3    H229091   4.572   0.271   1.889  0.4102  0.8363  1.4777
 2534TIP3   OH229092   2.233   6.093  13.365  0.5127  0.2645 -0.0659
 2534TIP3    H129093   2.244   6.187  13.347 -0.1693  0.6528  1.4092
 2534TIP3    H229094   2.180   6.061  13.292  1.2288  0.9089 -0.8812
 2535TIP3   OH229095   0.044   3.851   2.696  0.4578  0.5857 -0.3405
 2535TIP3    H129096   0.089   3.886   2.773 -0.1716  0.0758  0.2642
 2535TIP3    H229097  -0.012   3.923   2.666  0.8361  0.8452 -0.4327
 2536TIP3   OH229098   5.413   2.224   1.560 -0.0258 -0.5351  0.1490
 2536TIP3    H129099   5.495   2.176   1.552  0.4806  0.1972  0.8272
 2536TIP3    H229100   5.348   2.158   1.583  0.0888 -1.3492 -1.8048
 2537TIP3   OH229101   0.726   1.573   0.276  0.2560 -0.0617  0.4539
 2537TIP3    H129102   0.784   1.630   0.326 -1.6315  0.7390  1.7955
 2537TIP3    H229103   0.668   1.534   0.342 -0.8785 -0.6571 -0.8633
 2538TIP3   OH229104   5.494   5.677  14.846 -0.4180 -0.4954 -0.2481
 2538TIP3    H129105   5.427   5.641  14.787  1.9077 -1.4143 -2.4252
 2538TIP3    H229106   5.551   5.603  14.866  0.6714  0.5389  0.5359
 2539TIP3   OH229107   3.206   5.688   2.630  0.2233  0.3549  0.1361
 2539TIP3    H129108   3.129   5.678   2.575  0.0265  2.0264  0.0836
 2539TIP3    H229109   3.258   5.609   2.613 -1.8010 -1.1596  0.7271
 2540TIP3   OH229110   6.812   1.408   5.315  0.3751 -0.5131  0.0121
 2540TIP3    H129111   6.767   1.386   5.397 -0.8458  1.9542  0.0492
 2540TIP3    H229112   6.797   1.332   5.259 -1.2369 -1.0394  1.0901
 2541TIP3   OH229113   2.886   2.802   2.417  0.4075  0.2402 -0.2963
 2541TIP3    H129114   2.960   2.741   2.407  1.0141  1.0174 -0.5552
 2541TIP3    H229115   2.842   2.800   2.332  0.5157  0.2830 -0.3535
 2542TIP3   OH229116   1.108   2.284   2.369  0.3356 -0.1551  0.8997
 2542TIP3    H129117   1.143   2.332   2.294 -2.3120  1.8405  0.8756
 2542TIP3    H229118   1.021   2.257   2.342 -0.3676 -0.0358  2.9838
 2543TIP3   OH229119   0.853   1.949  13.045  0.5526 -0.6510 -0.0235
 2543TIP3    H129120   0.873   1.983  12.958  1.2790  0.0333  0.4033
 2543TIP3    H229121   0.788   1.881  13.030 -0.7627  0.7676 -0.9334
 2544TIP3   OH229122   1.341   1.446   5.380 -0.2111 -0.3012  0.5999
 2544TIP3    H129123   1.249   1.468   5.395 -0.7946 -0.6953 -2.2627
 2544TIP3    H229124   1.339   1.376   5.315  2.1679  0.8080 -0.7157
 2545TIP3   OH229125   5.261   3.137   1.268 -0.2707 -0.0191 -0.1938
 2545TIP3    H129126   5.208   3.150   1.346  0.3555  0.5799  0.1441
 2545TIP3    H229127   5.238   3.211   1.211  0.6789  0.6307  0.2378
 2546TIP3   OH229128   5.551   0.071  14.322  0.1562  0.3390 -0.1562
 2546TIP3    H129129   5.608  -0.002  14.347 -1.0425 -0.7132 -0.4167
 2546TIP3    H229130   5.602   0.150  14.341  2.4050 -0.5978 -2.1302
 2547TIP3   OH229131   4.461   6.165   1.720 -0.0386  0.4289 -0.3388
 2547TIP3    H129132   4.463   6.260   1.736  0.9174  0.4311 -0.4691
 2547TIP3    H229133   4.399   6.155   1.647 -1.8479  0.7262  1.1289
 2548TIP3   OH229134   0.356   1.611   5.957 -0.0588  0.2378 -0.5291
 2548TIP3    H129135   0.304   1.691   5.948 -0.0096  0.2578 -0.6406
 2548TIP3    H229136   0.296   1.541   5.934 -0.4652  0.1404  0.8183
 2549TIP3   OH229137   3.216   5.970  13.218 -0.0300  0.8029  0.3877
 2549TIP3    H129138   3.147   6.033  13.201 -0.3924  0.5307  0.8357
 2549TIP3    H229139   3.267   5.967  13.137 -0.4301  1.1470  0.1258
 2550TIP3   OH229140   2.508   5.639   4.544  0.3500 -0.2538 -0.0830
 2550TIP3    H129141   2.435   5.701   4.533 -0.1108 -0.8323 -0.3376
 2550TIP3    H229142   2.573   5.667   4.480 -1.3483 -2.1884 -2.7506
 2551TIP3   OH229143   5.800   2.122   0.707 -0.0034  0.2460  0.0465
 2551TIP3    H129144   5.780   2.182   0.635 -0.5510  1.4023  1.1469
 2551TIP3    H229145   5.733   2.054   0.700 -0.1267  0.4153 -0.4610
 2552TIP3   OH229146   3.986   2.873   4.042  0.2937 -0.6754 -0.1805
 2552TIP3    H129147   3.989   2.827   4.126  1.9767 -0.0523  0.1227
 2552TIP3    H229148   3.988   2.966   4.064 -2.6179 -0.4137 -0.8137
 2553TIP3   OH229149   5.739   0.661   2.835  0.3050 -0.4145 -0.1875
 2553TIP3    H129150   5.830   0.641   2.816 -0.1250 -0.7273 -1.9703
 2553TIP3    H229151   5.689   0.602   2.779 -0.9856  0.7550 -0.3038
 2554TIP3   OH229152   0.295   4.748   0.201 -0.0617 -0.6708 -0.1828
 2554TIP3    H129153   0.383   4.752   0.164  0.7799 -1.8557  1.6212
 2554TIP3    H229154   0.283   4.832   0.246 -0.4904  0.1334 -1.7537
 2555TIP3   OH229155   1.470   3.087   3.588 -0.2455 -0.0469 -0.0390
 2555TIP3    H129156   1.429   3.173   3.601  0.4281  0.1364  0.8703
 2555TIP3    H229157   1.546   3.105   3.533  0.2930  0.0388  0.7349
 2556TIP3   OH229158   3.312   0.576   2.779 -0.0680 -0.5119  0.2696
 2556TIP3    H129159   3.318   0.498   2.724 -2.6009 -2.2763  2.3928
 2556TIP3    H229160   3.394   0.578   2.827  0.1266 -1.7334  0.0138
 2557TIP3   OH229161   6.354   6.664  17.192 -0.0721  0.2851 -0.7469
 2557TIP3    H129162   6.315   6.697  17.111  1.1059  3.3081 -0.1644
 2557TIP3    H229163   6.444   6.641  17.168 -0.5406 -1.5019 -0.8818
 2558TIP3   OH229164   4.968   4.919  17.283  0.1675  0.1236 -0.1137
 2558TIP3    H129165   4.905   4.982  17.317 -1.2809 -1.4517  0.1346
 2558TIP3    H229166   4.927   4.883  17.205  0.0376 -2.0718  0.9299
 2559TIP3   OH229167   2.841   1.621   5.088 -0.0726  0.1433  0.4676
 2559TIP3    H129168   2.753   1.638   5.122 -1.1799 -1.8323 -1.3404
 2559TIP3    H229169   2.889   1.587   5.163 -0.3126  2.8289  1.9069
 2560TIP3   OH229170   2.571   1.085   0.952 -0.0661 -0.2877 -0.0470
 2560TIP3    H129171   2.657   1.072   0.993 -0.7438 -2.1548  0.8332
 2560TIP3    H229172   2.512   1.029   1.003 -1.3339 -1.0123 -2.2795
 2561TIP3   OH229173   3.484   3.273   5.602 -0.2697  0.0501 -0.5101
 2561TIP3    H129174   3.434   3.354   5.599  0.0128  0.2653  0.3188
 2561TIP3    H229175   3.434   3.211   5.550 -0.8389  0.5669 -0.5781
 2562TIP3   OH229176   2.277   3.725   3.823 -0.4347 -0.1979  0.2720
 2562TIP3    H129177   2.317   3.681   3.898  0.6669  0.0634 -0.1536
 2562TIP3    H229178   2.188   3.746   3.851 -0.6579 -1.8655  0.8017
 2563TIP3   OH229179   3.575   3.166   5.865 -0.2632 -0.9411  0.0580
 2563TIP3    H129180   3.546   3.207   5.783  0.5190 -0.7317 -0.1255
 2563TIP3    H229181   3.514   3.197   5.931 -1.2131 -1.5219 -0.5457
 2564TIP3   OH229182   4.486   1.257   3.704 -0.3710 -0.4925 -0.5250
 2564TIP3    H129183   4.577   1.234   3.684  0.4575  3.6804 -1.9232
 2564TIP3    H229184   4.444   1.266   3.619 -1.4584  0.0822  0.0613
 2565TIP3   OH229185   6.248   5.657  10.945 -0.4040 -0.1478  0.5428
 2565TIP3    H129186   6.231   5.579  10.893  1.5444  0.0416 -0.4107
 2565TIP3    H229187   6.203   5.641  11.028 -0.2050 -2.1765  0.2675
 2566TIP3   OH229188   2.257   5.774   2.206 -0.2528 -0.2082 -0.5018
 2566TIP3    H129189   2.162   5.787   2.205 -0.3008 -0.5115 -0.2776
 2566TIP3    H229190   2.271   5.698   2.150 -0.2716 -0.9092  0.4299
 2567TIP3   OH229191   1.684   5.057   5.515 -0.0255  0.3855 -0.9062
 2567TIP3    H129192   1.606   5.044   5.460  0.6081 -1.5071 -1.3949
 2567TIP3    H229193   1.735   5.124   5.469  0.1539 -0.6655 -2.2671
 2568TIP3   OH229194   2.157   2.986   5.655 -0.1430  0.0916 -0.1983
 2568TIP3    H129195   2.183   2.895   5.643  0.5101  0.3139 -0.4919
 2568TIP3    H229196   2.222   3.022   5.716 -2.6236 -0.6593  2.9945
 2569TIP3   OH229197   5.635   4.704  11.442 -0.8840  0.0369  0.5852
 2569TIP3    H129198   5.578   4.739  11.373  0.0223  1.1615  0.4069
 2569TIP3    H229199   5.574   4.675  11.510 -1.8436 -1.8094 -0.9810
 2570TIP3   OH229200   4.368   4.881  16.256  0.1907  0.1809 -0.1260
 2570TIP3    H129201   4.391   4.932  16.178  2.8826 -0.8597 -0.0429
 2570TIP3    H229202   4.416   4.922  16.328 -1.7693  0.7397  0.9101
 2571TIP3   OH229203   4.379   4.576   3.874  0.2920 -0.0306  0.3812
 2571TIP3    H129204   4.381   4.524   3.955  0.6908 -1.1341 -0.3342
 2571TIP3    H229205   4.423   4.522   3.809 -0.2698  0.7352 -0.6606
 2572TIP3   OH229206   3.464   1.194  17.067  0.3070 -0.6334  0.7233
 2572TIP3    H129207   3.414   1.153  17.138  0.5973  0.1066  1.3660
 2572TIP3    H229208   3.443   1.287  17.075  0.5694 -0.5178  0.0165
 2573TIP3   OH229209   0.995   5.988   4.638 -0.0160  0.0021  0.1680
 2573TIP3    H129210   0.956   5.927   4.701  1.2307 -0.7318  0.2441
 2573TIP3    H229211   1.031   5.931   4.570  0.7433  0.6839 -0.0050
 2574TIP3   OH229212   3.173   1.037   1.093 -0.2774  0.4188 -0.1608
 2574TIP3    H129213   3.203   1.083   1.014 -0.9632  1.1780  0.0101
 2574TIP3    H229214   3.110   0.973   1.061  0.7103 -0.4420 -0.4052
 2575TIP3   OH229215   6.074   5.700   4.626 -0.0844 -0.1399  0.3807
 2575TIP3    H129216   6.127   5.721   4.549  0.3123 -2.7011 -0.0906
 2575TIP3    H229217   6.085   5.605   4.637  0.6865  0.3394  4.1949
 2576TIP3   OH229218   5.023   6.816   3.929 -0.6714  0.5301  0.1860
 2576TIP3    H129219   5.042   6.742   3.987 -1.3772 -0.3795 -0.7315
 2576TIP3    H229220   5.035   6.781   3.840  0.8926  2.0316 -0.2372
 2577TIP3   OH229221   4.430   3.797   2.950  0.5013 -0.1887 -0.0892
 2577TIP3    H129222   4.480   3.732   3.000  0.3780 -0.1680  0.0632
 2577TIP3    H229223   4.469   3.796   2.863 -1.1184 -2.3045 -0.8646
 2578TIP3   OH229224   6.320   5.855   5.601  0.2148  0.7656  0.0719
 2578TIP3    H129225   6.259   5.887   5.668  0.6096 -0.8977  1.2551
 2578TIP3    H229226   6.292   5.899   5.521 -2.2691  0.3568  0.6805
 2579TIP3   OH229227   5.223   4.785   3.016 -0.1619  0.8335 -0.4869
 2579TIP3    H129228   5.292   4.846   3.044  0.9252  0.0909 -1.5369
 2579TIP3    H229229   5.256   4.746   2.935 -1.4794 -0.1023 -0.5868
 2580TIP3   OH229230   5.381   3.258   5.696  0.2492 -0.3689  0.3991
 2580TIP3    H129231   5.431   3.332   5.661  1.5254 -1.9745 -1.2625
 2580TIP3    H229232   5.337   3.293   5.773  0.9125  2.0942 -0.3085
 2581TIP3   OH229233   6.607   1.611  14.512  0.3137 -0.6522  0.0852
 2581TIP3    H129234   6.671   1.642  14.447  0.9863 -2.1674  0.0159
 2581TIP3    H229235   6.534   1.672  14.503  0.1972 -1.0796 -2.4454
 2582TIP3   OH229236   2.357   2.314   4.941  0.6544 -0.2076  0.4520
 2582TIP3    H129237   2.441   2.330   4.898  0.7703  0.4775  0.9432
 2582TIP3    H229238   2.373   2.236   4.995  0.6628 -0.7380 -0.2925
 2583TIP3   OH229239   2.160   0.564   0.858 -0.7289  0.2696  0.0291
 2583TIP3    H129240   2.107   0.490   0.889 -0.3649  0.0828  0.2062
 2583TIP3    H229241   2.125   0.583   0.771  0.3383 -1.2767 -0.7755
 2584TIP3   OH229242   0.795   1.807  17.239  0.4007  0.2301 -0.4437
 2584TIP3    H129243   0.791   1.835  17.147  0.0217  0.0242 -0.4890
 2584TIP3    H229244   0.773   1.886  17.289  2.4671  0.8352 -0.4575
 2585TIP3   OH229245   0.650   1.016  10.510  0.0052  0.0368 -0.3215
 2585TIP3    H129246   0.600   0.989  10.587 -0.9743 -0.2236 -1.0327
 2585TIP3    H229247   0.742   1.004  10.535 -0.3670 -3.4644 -0.4033
 2586TIP3   OH229248   2.831   6.024  16.515 -0.1342 -0.3465  0.3866
 2586TIP3    H129249   2.747   6.066  16.496 -0.5032  0.0918  2.8006
 2586TIP3    H229250   2.849   6.048  16.606  3.2181  0.5788 -0.4592
 2587TIP3   OH229251   6.124   4.342  13.532 -0.5178 -0.0779  0.0807
 2587TIP3    H129252   6.136   4.435  13.512 -0.3022  0.1847  1.3806
 2587TIP3    H229253   6.035   4.322  13.501 -0.5719  0.5626 -0.1883
 2588TIP3   OH229254   4.136   6.440   0.009  0.0523  0.4239  0.0289
 2588TIP3    H129255   4.164   6.465  -0.079  1.7916 -1.5680 -0.0136
 2588TIP3    H229256   4.041   6.456   0.009  0.1933  1.4204 -1.8466
 2589TIP3   OH229257   3.541   4.648  13.330  0.4412  0.0774  0.2444
 2589TIP3    H129258   3.572   4.733  13.298  3.0125 -0.6241  0.8062
 2589TIP3    H229259   3.556   4.651  13.425  0.1165 -0.8532  0.3341
 2590TIP3   OH229260   0.126   0.578  13.810  0.3133  0.1038 -0.0459
 2590TIP3    H129261   0.200   0.631  13.780  0.5627  0.5702  1.3434
 2590TIP3    H229262   0.062   0.641  13.843 -1.0230 -0.2530 -1.8522
 2591TIP3   OH229263   0.258   2.080  14.852 -0.5174  0.0469 -0.2787
 2591TIP3    H129264   0.231   2.064  14.762  1.2204 -1.1882 -0.6104
 2591TIP3    H229265   0.231   2.002  14.900  1.2068 -0.6319 -0.3595
 2592TIP3   OH229266   6.682   6.235  13.900  0.3077 -0.1717  0.1329
 2592TIP3    H129267   6.683   6.225  13.805  2.6045  0.6100  0.0444
 2592TIP3    H229268   6.680   6.330  13.914 -0.2689 -0.2903  0.8718
 2593TIP3   OH229269   3.120   3.209  12.936 -0.3061  0.3544  0.1582
 2593TIP3    H129270   3.197   3.248  12.893  0.9626 -1.1661  0.9975
 2593TIP3    H229271   3.094   3.138  12.879  1.5608 -1.8612  1.9330
 2594TIP3   OH229272   2.678   2.611   2.899  0.3462  0.7838  0.6453
 2594TIP3    H129273   2.599   2.657   2.870  0.1376  0.5997  0.9156
 2594TIP3    H229274   2.750   2.670   2.875  0.3918 -0.4169 -2.4410
 2595TIP3   OH229275   1.269   0.859  15.428 -0.7474  0.3419  0.0160
 2595TIP3    H129276   1.225   0.897  15.352 -1.0434  0.3965  0.2121
 2595TIP3    H229277   1.199   0.851  15.494  0.1313  3.2211  1.3811
 2596TIP3   OH229278   0.711   3.393  16.183 -0.2331 -0.0024  0.0828
 2596TIP3    H129279   0.626   3.415  16.145 -0.5797 -1.2859  0.0780
 2596TIP3    H229280   0.696   3.309  16.228  0.3117  1.1703  2.5373
 2597TIP3   OH229281   6.721   1.902  13.049 -0.1004 -0.2767  0.1620
 2597TIP3    H129282   6.685   1.949  12.974  0.2967 -1.4218 -0.7787
 2597TIP3    H229283   6.688   1.948  13.126 -1.0472  0.5202 -0.7181
 2598TIP3   OH229284   6.779   3.797   3.176  0.3679 -0.3668 -0.0515
 2598TIP3    H129285   6.854   3.855   3.165 -0.2086  1.0035  2.7994
 2598TIP3    H229286   6.716   3.828   3.110 -0.3140  3.0228  2.0246
 2599TIP3   OH229287   3.505   2.023  14.205 -0.3961 -0.0648  0.8990
 2599TIP3    H129288   3.490   1.970  14.283  0.3832 -1.0072  0.4071
 2599TIP3    H229289   3.487   1.965  14.131  0.0408  0.4722  0.3603
 2600TIP3   OH229290   0.244   4.343   0.251 -0.7381  0.4281  0.3395
 2600TIP3    H129291   0.330   4.342   0.208 -1.4726  0.0360 -1.1282
 2600TIP3    H229292   0.263   4.321   0.342  0.8359  1.2772  0.2405
 2601TIP3   OH229293   3.546   3.888  10.888  0.0833 -0.7381 -0.4022
 2601TIP3    H129294   3.510   3.843  10.811  0.7712 -2.3993  0.2378
 2601TIP3    H229295   3.640   3.871  10.883  0.1559 -0.6431  0.6719
 2602TIP3   OH229296   6.298   2.085   5.205  0.3019  0.1780  0.7861
 2602TIP3    H129297   6.305   2.151   5.273 -0.5318 -1.4508  2.5229
 2602TIP3    H229298   6.365   2.020   5.228  0.1159 -0.3146 -0.0427
 2603TIP3   OH229299   2.160   6.796  15.431  0.0258  0.3168 -0.4739
 2603TIP3    H129300   2.066   6.781  15.434  0.5656 -2.9583  1.6800
 2603TIP3    H229301   2.195   6.722  15.382  1.7722 -0.0363  1.2630
 2604TIP3   OH229302   4.578   1.700  15.383 -0.3342  0.4430  0.3486
 2604TIP3    H129303   4.642   1.666  15.446  0.7648  0.8905 -0.4981
 2604TIP3    H229304   4.613   1.673  15.298 -2.7035 -1.6616  0.0054
 2605TIP3   OH229305   2.202   5.972  13.101 -0.8488  1.0027 -0.1602
 2605TIP3    H129306   2.151   5.946  13.024  1.1227 -0.0234 -1.1710
 2605TIP3    H229307   2.219   5.890  13.147  0.1658  1.2819 -0.0277
 2606TIP3   OH229308   1.675   6.237  13.444  0.2800 -0.0691 -0.1485
 2606TIP3    H129309   1.635   6.217  13.359  1.5419 -0.4220 -0.6703
 2606TIP3    H229310   1.624   6.311  13.477 -1.6053 -1.3082 -0.2213
 2607TIP3   OH229311   3.809   0.193  12.787 -0.0369 -0.4870 -0.2453
 2607TIP3    H129312   3.854   0.155  12.863 -0.7093 -1.0342 -0.1135
 2607TIP3    H229313   3.717   0.177  12.804 -0.3833  1.6394  0.0325
 2608TIP3   OH229314   4.240   1.791   0.576  0.4846  0.1196  0.2789
 2608TIP3    H129315   4.256   1.834   0.660  0.5334 -1.2207  0.9627
 2608TIP3    H229316   4.230   1.698   0.597  1.3674 -0.3580 -1.3107
 2609TIP3   OH229317   2.193   6.643  12.742 -0.5258  0.6791 -0.4687
 2609TIP3    H129318   2.212   6.660  12.650  0.1872  2.0423 -0.0831
 2609TIP3    H229319   2.267   6.589  12.772 -0.5242  0.6193 -0.5799
 2610TIP3   OH229320   6.143   5.457  14.320  0.1460  0.0586 -0.4327
 2610TIP3    H129321   6.205   5.453  14.394  0.8475  0.5415 -0.9849
 2610TIP3    H229322   6.089   5.534  14.339  1.7884  1.5338 -1.5290
 2611TIP3   OH229323   4.069   5.278  13.209  0.0944  0.4760  0.4576
 2611TIP3    H129324   4.162   5.273  13.187  0.7397  1.4077  2.7916
 2611TIP3    H229325   4.033   5.341  13.146  0.7173 -0.9494 -1.3705
 2612TIP3   OH229326   1.617   0.361  13.079 -0.0340  0.8371 -0.6856
 2612TIP3    H129327   1.607   0.439  13.025 -1.7557  1.7487  0.8672
 2612TIP3    H229328   1.586   0.388  13.166  0.4181 -1.2467  0.1547
 2613TIP3   OH229329   4.981   4.982  14.438 -0.6851  0.6069  0.7948
 2613TIP3    H129330   4.997   5.067  14.478 -1.0652  1.4338 -0.7755
 2613TIP3    H229331   4.963   5.001  14.346 -0.6917 -1.1733  0.3976
 2614TIP3   OH229332   0.565   1.083   5.719 -0.4646 -0.3062  0.2703
 2614TIP3    H129333   0.494   1.146   5.735  0.2248  0.6277 -0.3057
 2614TIP3    H229334   0.523   0.998   5.727 -0.8181  0.1268  4.0132
 2615TIP3   OH229335   1.462   2.591  15.636  0.6338 -0.0186 -0.0576
 2615TIP3    H129336   1.490   2.666  15.689 -0.4745  0.5537 -0.2490
 2615TIP3    H229337   1.370   2.578  15.661  0.4235 -0.4428 -1.0216
 2616TIP3   OH229338   0.394   3.712   2.283  0.2785 -0.0459 -0.1836
 2616TIP3    H129339   0.437   3.797   2.286  2.2465 -0.9794 -1.0318
 2616TIP3    H229340   0.313   3.727   2.234  0.4151  1.4074  0.0356
 2617TIP3   OH229341   6.159   4.619   0.313  0.0154 -0.0462  0.3156
 2617TIP3    H129342   6.185   4.682   0.380  0.1846  0.2822 -0.0625
 2617TIP3    H229343   6.065   4.633   0.302  0.0905  0.2676  0.0911
 2618TIP3   OH229344   3.981   6.436  12.268  0.0720  0.8104  0.9231
 2618TIP3    H129345   4.048   6.504  12.253  1.7610 -0.7174  1.3737
 2618TIP3    H229346   3.967   6.437  12.363  1.1641 -0.4283  1.1113
 2619TIP3   OH229347   6.814   0.488   4.647 -0.5545 -0.4303  0.1868
 2619TIP3    H129348   6.882   0.488   4.580 -0.0736 -1.7354  0.6650
 2619TIP3    H229349   6.755   0.560   4.621 -0.0431 -0.5208 -1.2812
 2620TIP3   OH229350   4.026   3.983  15.057 -0.3127  0.1019 -0.2829
 2620TIP3    H129351   3.959   4.043  15.090 -1.8945 -0.5538 -2.1651
 2620TIP3    H229352   4.060   4.026  14.979  1.2880  0.2946  0.5077
 2621TIP3   OH229353   2.173   1.127  10.866  0.5741 -0.3280  0.3511
 2621TIP3    H129354   2.250   1.095  10.819  0.9708  0.0216  0.7587
 2621TIP3    H229355   2.208   1.191  10.928  0.0766 -0.9194  1.2454
 2622TIP3   OH229356   2.948   0.738  12.086 -0.0747  0.3249 -0.1010
 2622TIP3    H129357   2.856   0.714  12.097 -0.0396 -0.6173 -1.7376
 2622TIP3    H229358   2.951   0.786  12.003  0.4665  2.8883  1.3485
 2623TIP3   OH229359   6.103   2.463  15.640  0.1319 -0.3536  0.3508
 2623TIP3    H129360   6.139   2.551  15.631  1.4441 -0.8704  0.3598
 2623TIP3    H229361   6.011   2.476  15.663  0.1553  1.0032 -0.3183
 2624TIP3   OH229362   5.617   3.630  14.218  0.3650  0.3240  0.0076
 2624TIP3    H129363   5.649   3.594  14.136 -0.5187  0.3244 -0.3373
 2624TIP3    H229364   5.647   3.721  14.218  0.7167  0.2092 -0.1170
 2625TIP3   OH229365   0.147   6.679   0.661 -0.4375 -0.0038 -0.1535
 2625TIP3    H129366   0.112   6.631   0.735 -1.6725  0.6000 -0.3212
 2625TIP3    H229367   0.113   6.768   0.672 -0.2630  0.2047 -1.1858
 2626TIP3   OH229368   3.971   3.912  16.800  0.3426  0.2655  0.5108
 2626TIP3    H129369   3.888   3.892  16.756 -0.5739  2.3675  1.2306
 2626TIP3    H229370   3.997   3.829  16.841 -0.5280 -0.8358 -1.0988
 2627TIP3   OH229371   3.557   2.632  13.848  0.6344  0.0830 -0.6355
 2627TIP3    H129372   3.517   2.659  13.765 -0.7629 -0.6326 -0.2127
 2627TIP3    H229373   3.634   2.581  13.822  0.6140  0.4776 -1.4824
 2628TIP3   OH229374   1.744   1.872  15.264 -0.3041  0.5413 -0.3722
 2628TIP3    H129375   1.706   1.845  15.180  3.0070  1.7036 -2.3315
 2628TIP3    H229376   1.709   1.960  15.279  1.0046  1.3381 -1.8330
 2629TIP3   OH229377   4.123   1.717  16.073  0.0120 -0.3032 -0.3579
 2629TIP3    H129378   4.150   1.632  16.108 -2.0996 -1.1599 -0.7487
 2629TIP3    H229379   4.104   1.700  15.981  0.2940  0.7619 -0.6163
 2630TIP3   OH229380   2.955   3.445  12.309  0.8588  0.0501 -0.3249
 2630TIP3    H129381   3.033   3.470  12.260  0.4714 -0.3741 -1.1742
 2630TIP3    H229382   2.983   3.370  12.362  1.3309  0.6336  0.2556
 2631TIP3   OH229383   2.856   5.002  16.698 -0.9503  0.1264  0.3205
 2631TIP3    H129384   2.845   5.097  16.691  1.1701  0.3570 -0.3609
 2631TIP3    H229385   2.801   4.966  16.628 -1.0080  0.9230 -0.0483
 2632TIP3   OH229386   3.320   4.075   2.432  0.3338  0.1602 -0.3887
 2632TIP3    H129387   3.363   4.160   2.445 -1.8369  1.0240  1.4406
 2632TIP3    H229388   3.318   4.036   2.519 -1.7009 -0.2599 -0.5976
 2633TIP3   OH229389   5.088   5.934  15.649  0.1541  0.1087  0.2608
 2633TIP3    H129390   5.103   5.985  15.569  0.9298  0.8381  0.8760
 2633TIP3    H229391   5.174   5.925  15.689 -0.2325 -0.2608  1.0223
 2634TIP3   OH229392   0.202   2.838   1.620 -0.3798 -0.2407 -0.4996
 2634TIP3    H129393   0.295   2.815   1.629 -0.4444  0.1029  1.3696
 2634TIP3    H229394   0.164   2.814   1.705 -1.6404  1.2245 -0.6368
 2635TIP3   OH229395   2.950   2.810  15.493 -0.6553 -0.1533 -0.5155
 2635TIP3    H129396   2.905   2.746  15.437 -0.7128 -0.7230  0.1738
 2635TIP3    H229397   2.889   2.825  15.565 -1.8669  2.8181 -2.0920
 2636TIP3   OH229398   0.059   0.417   0.055  0.4696  0.0841  0.0333
 2636TIP3    H129399   0.004   0.453  -0.016  0.8698  1.4748  0.4252
 2636TIP3    H229400   0.142   0.395   0.012 -0.0684 -1.2156 -0.3825
 2637TIP3   OH229401   5.007   5.768  15.039  0.4918  0.2830  0.5711
 2637TIP3    H129402   5.051   5.766  15.123  1.2004  0.2233  0.2042
 2637TIP3    H229403   5.060   5.827  14.985 -0.2853  0.7892  0.3460
 2638TIP3   OH229404   2.781   1.433   2.529  0.1433  0.3228  0.0339
 2638TIP3    H129405   2.701   1.387   2.552  0.0020  0.6210  0.1448
 2638TIP3    H229406   2.832   1.370   2.478 -0.7852  0.6197 -1.2615
 2639TIP3   OH229407   3.748   3.975  13.919 -0.1265 -0.3241 -0.1020
 2639TIP3    H129408   3.837   3.944  13.901 -0.0984 -1.4334  1.7709
 2639TIP3    H229409   3.742   3.975  14.015 -2.3814 -0.9537 -0.2195
 2640TIP3   OH229410   6.279   0.005   5.460 -0.1485  0.0365  0.2295
 2640TIP3    H129411   6.229  -0.066   5.421 -0.1009  0.1608 -0.0621
 2640TIP3    H229412   6.213   0.065   5.495 -0.1691 -1.6539  3.2388
 2641TIP3   OH229413   4.222   4.208   4.504  0.4080  0.8842 -0.6630
 2641TIP3    H129414   4.183   4.203   4.591  0.9875 -0.3048 -0.4661
 2641TIP3    H229415   4.157   4.169   4.446  1.5756 -1.8211 -0.2284
 2642TIP3   OH229416   4.378   3.992   3.193  0.6912 -0.3157 -0.2249
 2642TIP3    H129417   4.356   3.900   3.205 -1.4225  0.3186  0.9718
 2642TIP3    H229418   4.472   3.992   3.172  1.4290 -2.5304  2.7494
 2643TIP3   OH229419   5.016   0.489   0.684  0.2621 -0.0729 -0.6953
 2643TIP3    H129420   5.110   0.496   0.700  0.4452 -1.9893 -0.8114
 2643TIP3    H229421   4.997   0.558   0.620  1.3708  1.0467  0.1680
 2644TIP3   OH229422   2.996   3.572  14.633 -0.1926 -0.9400  0.2013
 2644TIP3    H129423   3.076   3.626  14.634 -0.0941 -1.0688 -0.5074
 2644TIP3    H229424   3.017   3.497  14.689 -0.1852 -0.4478  0.8592
 2645TIP3   OH229425   4.762   6.522   1.696  0.1146  0.5564  0.0551
 2645TIP3    H129426   4.764   6.473   1.778 -2.3736  3.8053  2.1969
 2645TIP3    H229427   4.682   6.492   1.653  0.2753  0.4325 -0.1599
 2646TIP3   OH229428   3.371   4.326   0.631  0.2116  0.4143 -0.2430
 2646TIP3    H129429   3.335   4.380   0.701  0.9648  0.8321 -0.1703
 2646TIP3    H229430   3.353   4.376   0.551 -0.2317  0.1597 -0.3028
 2647TIP3   OH229431   3.600   3.286  16.441 -0.1990  0.0254 -0.4289
 2647TIP3    H129432   3.614   3.252  16.353 -0.3763  1.0212 -0.8388
 2647TIP3    H229433   3.577   3.378  16.429  0.0041  0.2296  0.6671
 2648TIP3   OH229434   2.432   6.670  14.495  0.4888 -0.0813  0.6903
 2648TIP3    H129435   2.363   6.725  14.458  0.9790  1.0961  1.5352
 2648TIP3    H229436   2.411   6.582  14.462  0.3225  0.7595 -1.5176
 2649TIP3   OH229437   1.656   6.048  15.865  0.6912  0.1693 -0.8220
 2649TIP3    H129438   1.617   6.135  15.852  0.8844  0.5702  1.0678
 2649TIP3    H229439   1.587   5.987  15.839 -0.3881  0.8898  0.2958
 2650TIP3   OH229440   5.410   0.285  15.680 -0.7531 -0.0025 -0.4536
 2650TIP3    H129441   5.452   0.323  15.757 -1.8188  1.9993 -0.8368
 2650TIP3    H229442   5.374   0.202  15.711 -2.1715  1.2975  1.5437
 2651TIP3   OH229443   3.953   3.840  12.955  0.0626  0.3914 -0.3622
 2651TIP3    H129444   4.015   3.771  12.929 -0.1404  0.0789 -0.0242
 2651TIP3    H229445   3.868   3.796  12.956 -0.2730  1.0017 -1.5412
 2652TIP3   OH229446   3.127   0.331  11.000 -0.4608 -0.2387 -0.2169
 2652TIP3    H129447   3.135   0.239  11.025  0.7806  0.1838  1.0659
 2652TIP3    H229448   3.033   0.347  10.997 -0.6798 -1.3846  0.2082
 2653TIP3   OH229449   2.815   5.332   5.664 -0.2937  0.6696 -0.6290
 2653TIP3    H129450   2.804   5.387   5.587 -0.2309  0.1950 -0.9807
 2653TIP3    H229451   2.731   5.337   5.709 -0.8310 -0.2282 -1.5116
 2654TIP3   OH229452   6.639   2.150  13.203 -0.0387  0.3081 -0.0461
 2654TIP3    H129453   6.638   2.246  13.202  1.2093  0.3548  1.3169
 2654TIP3    H229454   6.547   2.125  13.213 -0.6056  1.2961 -2.4330
 2655TIP3   OH229455   3.967   3.534  11.065 -1.2828  0.1353  0.4196
 2655TIP3    H129456   3.957   3.625  11.038  0.6144  0.5708  1.1115
 2655TIP3    H229457   3.968   3.484  10.983  2.4041  1.2343 -0.2929
 2656TIP3   OH229458   4.497   1.206   0.724  0.7385 -0.1246  0.6284
 2656TIP3    H129459   4.405   1.190   0.701  0.7878  0.2152  0.1743
 2656TIP3    H229460   4.544   1.194   0.641  1.0743 -0.0720  0.8123
 2657TIP3   OH229461   0.573   2.484   5.415 -0.1141 -0.4417 -0.5631
 2657TIP3    H129462   0.668   2.476   5.421 -0.1283 -1.4754 -1.6046
 2657TIP3    H229463   0.545   2.509   5.503  0.8774 -2.5903  0.3732
 2658TIP3   OH229464   1.435   6.569   4.851  0.0048 -0.2906 -0.2829
 2658TIP3    H129465   1.445   6.502   4.783 -1.4263 -1.4814  0.6532
 2658TIP3    H229466   1.431   6.652   4.803  0.0263 -1.0220 -1.5806
 2659TIP3   OH229467   6.695   3.926   4.908 -0.1585 -0.4096  0.8801
 2659TIP3    H129468   6.721   3.834   4.917 -0.0721 -0.2008  3.1424
 2659TIP3    H229469   6.641   3.928   4.829  1.6987 -1.9570 -0.5009
 2660TIP3   OH229470   4.686   1.625   0.234  0.2482 -0.0513  0.1623
 2660TIP3    H129471   4.701   1.625   0.328 -0.9625  1.4049  0.3789
 2660TIP3    H229472   4.605   1.676   0.223  0.6176  0.1539 -1.6876
 2661TIP3   OH229473   2.011   0.041  12.996  0.3401  0.5458 -0.5286
 2661TIP3    H129474   1.980  -0.042  13.033  0.4626  0.8024  0.1462
 2661TIP3    H229475   1.949   0.107  13.027  1.9815  1.1882  1.4973
 2662TIP3   OH229476   5.044   2.010   4.575 -0.0066  0.4570  0.2159
 2662TIP3    H129477   5.107   1.939   4.587 -1.7453 -0.9710  1.0730
 2662TIP3    H229478   5.088   2.087   4.611  2.1818  0.0014 -1.3687
 2663TIP3   OH229479   0.520   6.385  13.647  0.8639 -0.3821  0.0418
 2663TIP3    H129480   0.588   6.435  13.693  1.2230 -0.6232 -0.2153
 2663TIP3    H229481   0.486   6.324  13.712  2.4732 -1.8205 -0.4068
 2664TIP3   OH229482   2.655   0.651  13.078 -0.0567 -0.0907  0.1581
 2664TIP3    H129483   2.654   0.655  12.983  0.1713  0.6366  0.1840
 2664TIP3    H229484   2.591   0.716  13.106  1.1148  0.9130  0.5313
 2665TIP3   OH229485   6.780   0.944  17.065  0.7375 -0.5515 -0.3300
 2665TIP3    H129486   6.736   0.861  17.084  1.2211 -0.3032  2.1101
 2665TIP3    H229487   6.791   0.984  17.151  1.2074  1.6935 -1.4218
 2666TIP3   OH229488   5.342   2.967  12.330  0.3208 -0.2004 -0.1638
 2666TIP3    H129489   5.368   3.056  12.355  1.3887 -1.0109  1.7345
 2666TIP3    H229490   5.246   2.968  12.336  0.3873  0.4912  1.1235
 2667TIP3   OH229491   3.081   4.584   0.071 -0.2057  0.0501  0.6665
 2667TIP3    H129492   3.079   4.570   0.166  1.8733  0.0086  0.7175
 2667TIP3    H229493   3.167   4.555   0.044 -1.4534 -1.7088 -1.5599
 2668TIP3   OH229494   6.768   4.638   5.225 -0.0649  0.0893  0.3066
 2668TIP3    H129495   6.711   4.641   5.301 -0.1811 -0.3098  0.2382
 2668TIP3    H229496   6.854   4.664   5.258 -0.2538  0.5388  0.4419
 2669TIP3   OH229497   2.742   2.186  12.343  0.8114  0.3262 -0.1084
 2669TIP3    H129498   2.772   2.164  12.431 -0.0860 -2.0853 -0.3853
 2669TIP3    H229499   2.646   2.188  12.350  0.6621 -1.5134 -1.3772
 2670TIP3   OH229500   4.483   0.658  11.984  0.2227 -0.3131  0.8800
 2670TIP3    H129501   4.555   0.620  12.033  0.3692  3.4767  3.8665
 2670TIP3    H229502   4.405   0.638  12.037 -0.5269 -1.7612 -0.7430
 2671TIP3   OH229503   6.621   1.988  15.719  0.3556 -0.2274  0.0449
 2671TIP3    H129504   6.706   2.031  15.733 -0.5224  1.5177  0.2179
 2671TIP3    H229505   6.612   1.927  15.792  2.1484 -1.5748 -0.8352
 2672TIP3   OH229506   6.036   3.462  15.743  0.0436 -0.2385 -0.3094
 2672TIP3    H129507   6.054   3.433  15.832 -0.8761 -2.2784 -0.7618
 2672TIP3    H229508   6.111   3.433  15.692 -0.3369 -0.7965 -0.5531
 2673TIP3   OH229509   0.475   5.100  13.441 -0.4142  0.1619  0.0022
 2673TIP3    H129510   0.425   5.171  13.401  1.9081  2.7694  1.5548
 2673TIP3    H229511   0.414   5.059  13.503 -1.5279  1.3319 -0.3093
 2674TIP3   OH229512   0.834   0.206  14.232  0.2787 -0.3498  0.0419
 2674TIP3    H129513   0.782   0.285  14.220  0.1442 -0.4950 -0.3437
 2674TIP3    H229514   0.922   0.231  14.206  0.4856 -0.0034  1.0384
 2675TIP3   OH229515   0.717   5.354  14.089  0.3199  0.0831 -0.2633
 2675TIP3    H129516   0.641   5.345  14.032  0.9020 -0.5297 -0.9549
 2675TIP3    H229517   0.787   5.381  14.030  1.0409 -1.0033  0.0819
 2676TIP3   OH229518   4.281   3.969  12.224  0.0001  0.2934 -0.0939
 2676TIP3    H129519   4.221   4.002  12.157 -0.6593 -0.4304  0.1427
 2676TIP3    H229520   4.250   3.881  12.244  0.2383  0.4660  1.1030
 2677TIP3   OH229521   2.748   2.319  14.878  0.0195  0.2873  0.1458
 2677TIP3    H129522   2.679   2.355  14.823 -0.2392 -0.4422 -0.0184
 2677TIP3    H229523   2.814   2.388  14.882 -0.2786  0.6186 -0.4995
 2678TIP3   OH229524   5.335   0.486  12.684 -0.0210  1.0641  0.1666
 2678TIP3    H129525   5.271   0.414  12.688 -1.4447  2.1742 -1.9034
 2678TIP3    H229526   5.284   0.565  12.702  0.4031  2.1329 -3.0155
 2679TIP3   OH229527   0.771   6.204   5.612 -0.5441  0.2778  0.3472
 2679TIP3    H129528   0.705   6.139   5.586  1.1288 -0.3492 -2.5418
 2679TIP3    H229529   0.724   6.288   5.607 -1.5280 -0.2954 -0.2664
 2680TIP3   OH229530   1.655   3.721  12.153 -0.6012  0.2172  0.6999
 2680TIP3    H129531   1.662   3.657  12.224  1.8915  0.0095  0.2957
 2680TIP3    H229532   1.588   3.685  12.095  1.4665 -2.6018 -0.0555
 2681TIP3   OH229533   3.009   2.475  13.028  0.2753 -0.3965  0.2668
 2681TIP3    H129534   3.050   2.393  13.054  0.0992 -0.6530 -0.2517
 2681TIP3    H229535   3.077   2.520  12.977 -0.4050 -1.2556 -1.4268
 2682TIP3   OH229536   2.394   4.441   0.883  0.1605  0.1275 -0.0109
 2682TIP3    H129537   2.399   4.354   0.843  0.5135 -1.0316  2.4685
 2682TIP3    H229538   2.300   4.460   0.886 -0.0355 -0.8819  0.8403
 2683TIP3   OH229539   3.608   3.721   5.747 -0.4041 -0.4893  0.1224
 2683TIP3    H129540   3.529   3.769   5.771 -0.9377 -2.0109  1.4956
 2683TIP3    H229541   3.680   3.781   5.767 -1.1661  0.6517 -0.5030
 2684TIP3   OH229542   0.020   6.492  16.436  0.0650  0.3200 -0.1121
 2684TIP3    H129543   0.015   6.501  16.341 -0.3552  0.5442 -0.0707
 2684TIP3    H229544   0.107   6.527  16.459  0.0130  0.6251 -0.3726
 2685TIP3   OH229545   4.873   2.461   5.183 -0.1022 -0.2392 -0.3401
 2685TIP3    H129546   4.837   2.542   5.220  1.3920 -0.0833  0.8393
 2685TIP3    H229547   4.860   2.395   5.251 -1.1696 -0.9626 -1.2352
 2686TIP3   OH229548   6.772   2.502   2.256 -0.2261  0.2673  0.2322
 2686TIP3    H129549   6.685   2.536   2.276  0.3762  2.5446 -0.7832
 2686TIP3    H229550   6.794   2.446   2.330 -0.7509  3.2050  2.7385
 2687TIP3   OH229551   3.150   0.943   2.260  0.6132 -0.2005 -0.0692
 2687TIP3    H129552   3.134   0.887   2.184  1.3088 -2.7032  1.5684
 2687TIP3    H229553   3.097   0.904   2.329 -0.0202  2.0589  0.7402
 2688TIP3   OH229554   4.064   4.943   2.327 -0.4137 -0.3145 -0.2421
 2688TIP3    H129555   4.009   4.995   2.385 -0.9692  1.1861 -2.0633
 2688TIP3    H229556   4.039   4.971   2.239  2.1212 -0.7697 -1.1482
 2689TIP3   OH229557   5.688   4.955   5.556 -0.0295  0.3126 -0.0640
 2689TIP3    H129558   5.701   4.931   5.465 -1.4971  1.3834 -0.5870
 2689TIP3    H229559   5.638   4.883   5.594  1.7890 -0.8006  0.2919
 2690TIP3   OH229560   4.811   5.984  12.982  0.1297 -0.5884 -0.2487
 2690TIP3    H129561   4.862   5.909  13.012 -1.9430 -2.6236 -1.5944
 2690TIP3    H229562   4.802   5.971  12.888  0.6916  1.9848 -0.6809
 2691TIP3   OH229563   1.122   1.280   0.058 -0.2254  0.5795 -0.1427
 2691TIP3    H129564   1.202   1.327   0.035  0.8653 -0.0641  2.1324
 2691TIP3    H229565   1.121   1.204  -0.000  0.7164  0.6939 -0.3178
 2692TIP3   OH229566   5.227   2.019  14.374 -0.0135 -0.2625 -0.2910
 2692TIP3    H129567   5.218   1.974  14.290 -0.6274 -2.6741  1.0222
 2692TIP3    H229568   5.154   1.985  14.427 -0.0049  1.6845  1.0113
 2693TIP3   OH229569   4.178   1.957  14.781  0.3280 -0.0044  0.0983
 2693TIP3    H129570   4.251   2.004  14.742  0.1602 -0.2435 -0.5129
 2693TIP3    H229571   4.217   1.876  14.816  0.3541 -0.1302 -0.2242
 2694TIP3   OH229572   2.536   4.476  16.745  0.1156  0.1931 -0.7555
 2694TIP3    H129573   2.451   4.479  16.701 -0.2672 -0.2174 -0.0555
 2694TIP3    H229574   2.520   4.518  16.830  0.0543 -1.8768  0.2942
 2695TIP3   OH229575   1.433   1.676  10.591 -0.8661 -0.2414  0.2675
 2695TIP3    H129576   1.511   1.683  10.646 -1.9958 -0.1149  1.9125
 2695TIP3    H229577   1.427   1.584  10.568  0.2405 -0.1075 -0.5984
 2696TIP3   OH229578   5.570   0.262   2.105 -0.4860 -0.1090  0.0842
 2696TIP3    H129579   5.501   0.310   2.060  0.7157  0.2223 -1.4564
 2696TIP3    H229580   5.557   0.171   2.080 -0.1933 -0.0067 -0.4517
 2697TIP3   OH229581   4.709   5.392   1.927 -0.5646 -0.2414 -0.9484
 2697TIP3    H129582   4.726   5.444   1.848 -1.4648  0.2460 -0.8251
 2697TIP3    H229583   4.640   5.440   1.973  0.6172 -0.0247  0.6164
 2698TIP3   OH229584   6.037   3.468   3.776 -0.0860 -0.0933 -0.5038
 2698TIP3    H129585   6.085   3.441   3.698 -0.4688 -1.0780 -0.4091
 2698TIP3    H229586   5.945   3.452   3.754 -0.0701 -2.2490  0.8341
 2699TIP3   OH229587   1.918   3.582   3.002 -0.0945  0.2799 -0.1441
 2699TIP3    H129588   1.959   3.612   3.083  0.6093  1.5187 -0.9548
 2699TIP3    H229589   1.858   3.512   3.030 -0.6215  1.3971  1.5686
 2700TIP3   OH229590   4.016   5.534   4.972 -0.3065  0.0057 -0.2814
 2700TIP3    H129591   4.057   5.606   5.020 -0.1581 -1.2250  1.4848
 2700TIP3    H229592   3.953   5.497   5.034 -0.6764 -1.1183 -1.3147
 2701TIP3   OH229593   1.230   0.115  13.770 -0.1097  0.2831  0.0109
 2701TIP3    H129594   1.210   0.185  13.708 -0.5510 -0.6119 -0.8673
 2701TIP3    H229595   1.307   0.071  13.732  0.4127  0.5437  0.7644
 2702TIP3   OH229596   3.315   2.218  16.192 -0.2449  0.2215 -0.2277
 2702TIP3    H129597   3.281   2.238  16.104  0.7738  1.0180 -0.4456
 2702TIP3    H229598   3.381   2.285  16.208  1.1234 -1.2067  0.2557
 2703TIP3   OH229599   5.166   3.468   0.350  0.1498 -0.0143 -0.9077
 2703TIP3    H129600   5.139   3.543   0.403 -0.7026 -0.3990 -0.7966
 2703TIP3    H229601   5.104   3.466   0.277  0.5560 -0.2368 -1.2544
 2704TIP3   OH229602   0.668   2.802  13.699 -0.2381  0.4318  0.4720
 2704TIP3    H129603   0.725   2.788  13.775  0.5770 -1.6484 -0.4758
 2704TIP3    H229604   0.630   2.716  13.681  1.0013  0.4240 -2.5508
 2705TIP3   OH229605   3.078   0.418  12.771 -0.0620 -0.7232  0.0989
 2705TIP3    H129606   3.042   0.501  12.802 -0.4918 -1.3502  1.3005
 2705TIP3    H229607   3.035   0.404  12.687  0.6610  0.6900 -0.5262
 2706TIP3   OH229608   6.680   1.171  16.648  0.4764 -0.5275  0.0076
 2706TIP3    H129609   6.677   1.250  16.702  0.9610 -1.1517  0.9576
 2706TIP3    H229610   6.774   1.155  16.634  0.3951 -1.1528  0.1474
 2707TIP3   OH229611   0.905   6.793   0.971  0.2194  0.7006  0.2476
 2707TIP3    H129612   0.858   6.734   1.029  2.4742  0.6364  2.0677
 2707TIP3    H229613   0.987   6.749   0.953  0.8902  2.1792 -0.3999
 2708TIP3   OH229614   6.410   5.574   2.309  0.4594  0.5608  0.4865
 2708TIP3    H129615   6.415   5.630   2.387  0.0360  1.2187  0.0495
 2708TIP3    H229616   6.343   5.615   2.255 -1.8596 -1.9226  1.3691
 2709TIP3   OH229617   2.234   0.823  11.593  0.1802  0.0128 -0.6250
 2709TIP3    H129618   2.261   0.741  11.635  1.3982  1.2196  1.0281
 2709TIP3    H229619   2.295   0.888  11.628  1.0421  1.1368 -4.0712
 2710TIP3   OH229620   2.684   2.709   0.268 -0.2905 -0.1020 -0.6136
 2710TIP3    H129621   2.694   2.782   0.329 -3.0295 -0.0220 -0.1909
 2710TIP3    H229622   2.740   2.641   0.303  0.0947  0.8141  0.5918
 2711TIP3   OH229623   6.420   3.753  13.954  0.5415 -0.0888 -0.2581
 2711TIP3    H129624   6.406   3.809  13.877  1.9835  0.7971  0.0938
 2711TIP3    H229625   6.513   3.764  13.974  0.8694 -2.6675 -0.2146
 2712TIP3   OH229626   3.517   5.862  14.399  0.6646 -0.1854 -0.1211
 2712TIP3    H129627   3.521   5.926  14.328 -0.0938  0.0831  0.0723
 2712TIP3    H229628   3.453   5.898  14.460 -1.6568 -2.3565 -1.2024
 2713TIP3   OH229629   5.944   6.210   0.140 -0.8149  0.5459  0.0810
 2713TIP3    H129630   6.030   6.192   0.102 -0.5967  1.9146 -0.0870
 2713TIP3    H229631   5.963   6.243   0.228 -1.1966  0.3588  0.2350
 2714TIP3   OH229632   6.394   1.262  14.900 -0.0973  0.3753  0.1595
 2714TIP3    H129633   6.349   1.186  14.936  1.7041 -0.1626  1.3481
 2714TIP3    H229634   6.486   1.237  14.899  0.2689  1.6657 -1.6619
 2715TIP3   OH229635   0.250   6.549  15.078 -0.0372 -0.3337  0.0171
 2715TIP3    H129636   0.169   6.568  15.031  0.0316  1.3111  0.5198
 2715TIP3    H229637   0.228   6.476  15.136 -1.0456 -0.1581 -0.1405
 2716TIP3   OH229638   4.899   5.051  14.932 -0.0142  0.1996 -0.1625
 2716TIP3    H129639   4.861   5.042  14.844 -1.9469 -1.2891  0.7786
 2716TIP3    H229640   4.918   4.961  14.959 -0.4977  0.5539  1.3833
 2717TIP3   OH229641   0.067   3.143   1.228  0.1058 -0.2422 -0.0375
 2717TIP3    H129642   0.020   3.218   1.192 -0.2205  0.0761  1.0298
 2717TIP3    H229643   0.044   3.142   1.321 -0.6994 -2.2652 -0.2353
 2718TIP3   OH229644   6.224   0.928   5.380  0.3943 -0.1181  0.4883
 2718TIP3    H129645   6.202   0.835   5.384 -0.1292 -0.0500 -0.5353
 2718TIP3    H229646   6.319   0.930   5.368  0.6058 -0.4838  2.0413
 2719TIP3   OH229647   2.114   5.247   5.409  0.3636 -0.3708  0.0517
 2719TIP3    H129648   2.125   5.306   5.484 -2.1958  0.8573 -0.5034
 2719TIP3    H229649   2.154   5.294   5.335 -0.7093  0.2005 -0.1684
 2720TIP3   OH229650   0.246   2.894  13.521  0.3667 -0.2876  0.1008
 2720TIP3    H129651   0.203   2.961  13.574 -1.4803 -1.1519 -0.3021
 2720TIP3    H229652   0.311   2.943  13.470  0.5753  0.8703  1.4544
 2721TIP3   OH229653   2.909   1.244  14.496  0.2236 -0.6534  0.0135
 2721TIP3    H129654   2.966   1.201  14.432 -0.1081 -2.0909  0.6699
 2721TIP3    H229655   2.968   1.297  14.550  0.4894  0.7251 -1.5640
 2722TIP3   OH229656   5.899   4.931   6.542  0.5971 -0.2641  0.5824
 2722TIP3    H129657   5.916   4.861   6.478  0.1314 -0.1499  0.3274
 2722TIP3    H229658   5.977   4.932   6.598  0.0362 -1.8805  1.4219
 2723TIP3   OH229659   3.189   6.301   3.741 -0.0662 -0.4836 -0.2177
 2723TIP3    H129660   3.157   6.231   3.684 -2.6023  0.2375  0.2686
 2723TIP3    H229661   3.149   6.282   3.826  1.2507  0.1498  0.5475
 2724TIP3   OH229662   5.057   2.880  15.530 -0.2703 -0.4342  0.1367
 2724TIP3    H129663   5.010   2.925  15.600 -1.4460 -0.0458 -0.8728
 2724TIP3    H229664   5.030   2.926  15.450  2.7953  0.6018 -0.3654
 2725TIP3   OH229665   2.476   2.605   2.326 -0.4114 -0.3681  0.3766
 2725TIP3    H129666   2.512   2.599   2.238  1.0676  0.5438  0.9166
 2725TIP3    H229667   2.533   2.550   2.380 -0.9683 -0.4663  0.8803
 2726TIP3   OH229668   0.454   1.544  12.741 -0.1489 -0.1104 -0.2761
 2726TIP3    H129669   0.367   1.520  12.771 -0.6427  1.7442 -0.1694
 2726TIP3    H229670   0.446   1.550  12.646 -0.1168 -0.0824 -0.2770
 2727TIP3   OH229671   2.963   2.043  12.068  0.3950  0.5205 -0.1675
 2727TIP3    H129672   3.044   2.075  12.028 -0.2008  1.7860 -0.4100
 2727TIP3    H229673   2.957   2.089  12.151  0.7240 -0.7738  0.5859
 2728TIP3   OH229674   0.951   5.151  13.951 -0.1295 -0.6984 -0.4447
 2728TIP3    H129675   0.863   5.158  13.914 -0.1742 -0.6213 -0.3228
 2728TIP3    H229676   1.009   5.167  13.877 -0.2105 -1.6658 -0.7184
 2729TIP3   OH229677   5.304   3.857  10.829  0.5365  0.1870  0.0939
 2729TIP3    H129678   5.273   3.816  10.910  0.3880 -1.9478 -1.0238
 2729TIP3    H229679   5.293   3.951  10.845 -3.2239 -0.3252  1.0485
 2730TIP3   OH229680   6.608   5.828  12.105 -0.4133 -0.2493  0.1716
 2730TIP3    H129681   6.516   5.809  12.089 -0.1103  0.5501 -2.7649
 2730TIP3    H229682   6.655   5.751  12.073  0.1884  1.2201 -2.6075
 2731TIP3   OH229683   6.168   3.814  12.822  0.5959 -0.5372 -0.2092
 2731TIP3    H129684   6.106   3.747  12.851  0.2955 -0.2041 -0.0768
 2731TIP3    H229685   6.217   3.772  12.751 -0.5953 -0.4180 -1.1361
 2732TIP3   OH229686   4.208   2.302   4.895 -0.0174  0.2642 -0.2504
 2732TIP3    H129687   4.302   2.300   4.878 -0.0045  1.3392 -0.3542
 2732TIP3    H229688   4.189   2.218   4.936  0.8491 -0.2856 -0.9521
 2733TIP3   OH229689   3.860   1.904  15.068 -0.1518 -0.2522  0.1215
 2733TIP3    H129690   3.946   1.935  15.098  0.3257 -1.0999 -0.3473
 2733TIP3    H229691   3.879   1.820  15.026 -0.9750  0.3283 -1.4532
 2734TIP3   OH229692   5.595   5.001   0.302  0.9166  0.3033  0.0257
 2734TIP3    H129693   5.542   4.922   0.305  1.1770  0.0967 -0.8592
 2734TIP3    H229694   5.532   5.073   0.305  0.7146  0.0958  1.9557
 2735TIP3   OH229695   2.671   2.352   2.806  0.0192 -0.0922  0.5542
 2735TIP3    H129696   2.640   2.427   2.858  1.3909  1.4045 -0.7087
 2735TIP3    H229697   2.766   2.367   2.797 -0.0416 -0.8013 -1.5721
 2736TIP3   OH229698   5.107   5.396  15.907  0.2037  0.0780  0.5331
 2736TIP3    H129699   5.084   5.303  15.911 -1.0120  0.3280 -0.1176
 2736TIP3    H229700   5.178   5.400  15.843 -0.2582 -0.3289 -0.0191
 2737TIP3   OH229701   6.719   6.763   1.158 -0.2667 -0.2188  0.0196
 2737TIP3    H129702   6.643   6.790   1.106 -1.2008 -0.9571  0.9786
 2737TIP3    H229703   6.699   6.790   1.247  1.1452  0.6639  0.0932
 2738TIP3   OH229704   6.094   6.040  17.071 -0.1384 -0.3667  0.2505
 2738TIP3    H129705   6.047   5.995  17.141  1.0645 -1.0029  0.6819
 2738TIP3    H229706   6.166   6.085  17.116 -0.0540  0.1945 -0.4404
 2739TIP3   OH229707   2.182   3.662  11.833 -0.0442  0.3023  0.4198
 2739TIP3    H129708   2.120   3.730  11.857  2.2950  2.4500  0.5896
 2739TIP3    H229709   2.254   3.672  11.895  2.2850  0.4797 -2.2134
 2740TIP3   OH229710   3.367   2.165   5.720 -0.8178 -0.2756  0.0210
 2740TIP3    H129711   3.287   2.153   5.669 -1.5842  0.3855  1.0497
 2740TIP3    H229712   3.387   2.258   5.714  0.2066 -0.5258 -0.6934
 2741TIP3   OH229713   3.929   1.161   0.791  0.2966  0.5472  0.3506
 2741TIP3    H129714   3.892   1.073   0.777  0.5418  0.2027  1.7314
 2741TIP3    H229715   3.877   1.218   0.734 -0.4543 -0.3592  0.0975
 2742TIP3   OH229716   3.055   1.136  12.845 -0.6001  0.0396 -0.0296
 2742TIP3    H129717   3.033   1.229  12.842 -1.6984 -0.1360  1.8935
 2742TIP3    H229718   3.093   1.122  12.932  1.3042 -0.9535 -0.9865
 2743TIP3   OH229719   3.293   3.350   4.938  0.0707  0.1092 -0.5424
 2743TIP3    H129720   3.279   3.432   4.986 -1.6902  0.0442 -0.9033
 2743TIP3    H229721   3.387   3.333   4.946  0.2910  1.6527  0.3576
 2744TIP3   OH229722   6.512   4.328  12.189 -0.5264 -0.5233  0.1573
 2744TIP3    H129723   6.472   4.345  12.275 -1.1900 -2.3525  0.2273
 2744TIP3    H229724   6.489   4.237  12.169  0.0676 -0.2834 -1.7302
 2745TIP3   OH229725   0.912   4.466   6.629  0.1030  0.0158 -0.2461
 2745TIP3    H129726   0.869   4.490   6.547 -2.0005 -1.8454  0.2690
 2745TIP3    H229727   0.909   4.547   6.681 -4.1679 -0.3720  0.3161
 2746TIP3   OH229728   0.230   0.618   3.362  0.0200 -0.4443 -0.2161
 2746TIP3    H129729   0.206   0.648   3.274 -0.2220  0.6925  0.2292
 2746TIP3    H229730   0.150   0.581   3.398 -0.7880  2.2317  0.8099
 2747TIP3   OH229731   4.592   4.305  16.463 -0.4229  0.4115 -0.2835
 2747TIP3    H129732   4.605   4.219  16.425 -1.7578  0.5403 -1.0597
 2747TIP3    H229733   4.674   4.324  16.508  0.1345 -0.9565 -0.6974
 2748TIP3   OH229734   1.746   1.912  14.107 -0.0030  0.0309  0.5286
 2748TIP3    H129735   1.746   2.004  14.134  3.2563  0.5258 -0.9430
 2748TIP3    H229736   1.838   1.890  14.098 -0.7886 -2.9237 -0.7665
 2749TIP3   OH229737   2.915   3.526   1.361 -0.0921 -0.3994 -0.1793
 2749TIP3    H129738   2.839   3.573   1.328  0.7028  0.6655 -0.4904
 2749TIP3    H229739   2.918   3.446   1.308  1.3792  1.4414 -2.9771
 2750TIP3   OH229740   3.371   3.700  15.516  0.3013 -0.1045  0.2251
 2750TIP3    H129741   3.458   3.709  15.479 -0.9200 -0.7445 -2.9417
 2750TIP3    H229742   3.326   3.781  15.493 -0.1760 -0.0715  1.2395
 2751TIP3   OH229743   0.622   1.939  14.357 -0.2234 -0.0955 -0.1369
 2751TIP3    H129744   0.595   2.011  14.299 -0.0022 -1.5158 -2.0279
 2751TIP3    H229745   0.715   1.927  14.340  0.0199 -0.0325  1.0831
 2752TIP3   OH229746   3.023   3.792  15.683  0.0866 -0.2824 -0.0663
 2752TIP3    H129747   3.101   3.838  15.650  0.2239 -1.0691 -0.8474
 2752TIP3    H229748   3.054   3.705  15.706 -0.2191 -0.0594  1.2332
 2753TIP3   OH229749   0.476   4.316   2.612  0.6804 -0.7150 -0.0411
 2753TIP3    H129750   0.470   4.412   2.613  2.7716 -0.5523 -0.1309
 2753TIP3    H229751   0.456   4.290   2.702  0.7982 -0.1291  0.1586
 2754TIP3   OH229752   5.827   0.866  14.865 -0.0187 -0.1202  0.3580
 2754TIP3    H129753   5.795   0.953  14.837 -0.5607 -0.6094 -0.5701
 2754TIP3    H229754   5.747   0.816  14.881  0.2978 -0.6937  0.1286
 2755TIP3   OH229755   5.282   5.267  13.159 -0.5048 -0.2853 -0.0654
 2755TIP3    H129756   5.244   5.186  13.193 -0.2480 -0.1611  0.5253
 2755TIP3    H229757   5.372   5.267  13.191 -0.4342  0.1255 -0.2515
 2756TIP3   OH229758   6.764   3.480   4.004 -0.1932  0.4993  0.2042
 2756TIP3    H129759   6.832   3.508   3.943 -0.6671  0.0074 -0.5532
 2756TIP3    H229760   6.693   3.543   3.994 -0.5784 -0.0039 -0.3078
 2757TIP3   OH229761   0.995   3.526   6.347  0.3544  0.6558 -0.2960
 2757TIP3    H129762   0.973   3.615   6.376 -1.1395  0.6483 -1.3781
 2757TIP3    H229763   1.049   3.491   6.418 -1.1336  1.5354  1.3153
 2758TIP3   OH229764   1.048   3.183  13.050 -0.0872 -0.6331  0.3513
 2758TIP3    H129765   0.989   3.205  12.978 -0.6859  0.3594  1.1349
 2758TIP3    H229766   1.011   3.105  13.090 -1.2686  0.3803  1.2713
 2759TIP3   OH229767   1.223   4.696   6.376 -0.0166  0.0064 -0.1116
 2759TIP3    H129768   1.236   4.783   6.339  0.5289 -1.0563 -2.5380
 2759TIP3    H229769   1.288   4.689   6.445  0.7386  1.1037 -0.6936
 2760TIP3   OH229770   3.782   3.319   0.520  0.5604  0.4063 -0.1008
 2760TIP3    H129771   3.870   3.290   0.542  0.7065  1.1870  0.3653
 2760TIP3    H229772   3.779   3.320   0.425 -0.2660 -3.6361 -0.2273
 2761TIP3   OH229773   3.815   5.921   3.894 -0.4112 -0.1755  0.0900
 2761TIP3    H129774   3.775   5.857   3.953  0.5288  0.2869  1.2756
 2761TIP3    H229775   3.827   5.874   3.812  0.4000 -1.5871  0.9827
 2762TIP3   OH229776   2.827   1.623   6.010  0.1822 -0.5751 -0.7502
 2762TIP3    H129777   2.776   1.587   6.082 -0.3053 -0.4800 -1.0499
 2762TIP3    H229778   2.908   1.572   6.010  0.9109  0.5321  0.9453
 2763TIP3   OH229779   0.738   6.116   3.822  0.5126  1.2701 -0.0721
 2763TIP3    H129780   0.799   6.174   3.777  0.7932 -0.2524 -1.7444
 2763TIP3    H229781   0.759   6.029   3.788 -1.8836  0.5728  0.1239
 2764TIP3   OH229782   4.715   6.189  13.178  0.3549  0.0654  0.6052
 2764TIP3    H129783   4.751   6.118  13.125  1.6568  0.3392  1.1017
 2764TIP3    H229784   4.670   6.145  13.250 -3.3654 -0.3953 -1.8211
 2765TIP3   OH229785   1.312   0.618   3.053  0.4858 -0.0887 -0.5974
 2765TIP3    H129786   1.401   0.652   3.058  0.5773 -0.4475  0.3304
 2765TIP3    H229787   1.286   0.631   2.961  1.9952 -1.2220 -1.2007
 2766TIP3   OH229788   6.060   3.962   4.412  0.1308 -0.2969  0.3966
 2766TIP3    H129789   6.011   4.004   4.342  2.1644  0.1150 -0.8453
 2766TIP3    H229790   6.055   3.868   4.392 -1.6210 -0.4152  1.2991
 2767TIP3   OH229791   0.080   2.795  11.251 -0.1354 -0.5756  0.0197
 2767TIP3    H129792   0.035   2.772  11.170 -0.5677 -2.1610  0.7039
 2767TIP3    H229793   0.009   2.815  11.313  0.1892  0.5192  0.0424
 2768TIP3   OH229794   5.109   6.635   3.736 -0.5699  0.0453 -0.1803
 2768TIP3    H129795   5.199   6.665   3.745 -0.9540  1.3541 -0.5351
 2768TIP3    H229796   5.102   6.560   3.796  0.8689 -0.3590 -0.5050
 2769TIP3   OH229797   2.218   2.598   5.873 -0.1547 -0.0023  0.2214
 2769TIP3    H129798   2.218   2.689   5.900  0.9228 -0.1459  0.7120
 2769TIP3    H229799   2.310   2.578   5.855 -0.4770 -0.7758 -0.5948
 2770TIP3   OH229800   4.206   6.692   5.921 -0.4952  0.2630 -0.2092
 2770TIP3    H129801   4.299   6.713   5.929 -0.5326  0.6599 -0.7958
 2770TIP3    H229802   4.200   6.645   5.839 -0.7834  0.0473 -0.0629
 2771TIP3   OH229803   2.116   1.635   2.751  0.1599  0.0831  0.2252
 2771TIP3    H129804   2.201   1.613   2.714 -0.1506 -0.1175 -0.3854
 2771TIP3    H229805   2.131   1.713   2.803  0.3682  1.0627 -1.2817
 2772TIP3   OH229806   1.188   3.969   5.758  0.3177  0.1464  0.1868
 2772TIP3    H129807   1.254   4.013   5.811  1.1883  1.5135 -1.9466
 2772TIP3    H229808   1.125   3.935   5.821  1.4956  1.4058  2.1009
 2773TIP3   OH229809   5.696   0.055  10.652  0.7576 -0.0386 -0.0529
 2773TIP3    H129810   5.616   0.018  10.614  0.6914 -0.0843  0.1289
 2773TIP3    H229811   5.736  -0.018  10.700  0.0757  0.3933  1.1944
 2774TIP3   OH229812   6.355   5.071   5.162 -0.0263 -0.1538  0.1878
 2774TIP3    H129813   6.278   5.118   5.198  1.4858  2.0711  0.6466
 2774TIP3    H229814   6.397   5.033   5.239  0.5952  0.5845  0.2148
 2775TIP3   OH229815   2.521   0.249   6.806 -0.3119  0.4346 -0.0544
 2775TIP3    H129816   2.428   0.249   6.828 -0.3883  0.4351 -0.3701
 2775TIP3    H229817   2.556   0.170   6.847 -0.1226  1.2649  1.4258
 2776TIP3   OH229818   3.699   4.306  16.714 -0.0959  0.3264 -0.1511
 2776TIP3    H129819   3.790   4.279  16.725  0.1046  1.0911  0.0948
 2776TIP3    H229820   3.649   4.224  16.722  0.5646 -0.0977 -0.3072
 2777TIP3   OH229821   6.629   5.463  16.331 -0.3161 -0.3539 -0.2892
 2777TIP3    H129822   6.545   5.454  16.287 -0.2769  0.9967 -0.6675
 2777TIP3    H229823   6.681   5.388  16.301 -1.1568 -0.8302 -0.5586
 2778TIP3   OH229824   4.815   0.373   6.029 -0.4222 -0.0959 -0.2479
 2778TIP3    H129825   4.849   0.287   6.055 -0.6506 -0.3103 -0.6435
 2778TIP3    H229826   4.891   0.421   5.998 -0.6391 -0.9447 -2.1318
 2779TIP3   OH229827   4.870   5.485   1.062  0.3288 -0.0520 -0.3985
 2779TIP3    H129828   4.921   5.404   1.059  1.5344  0.7460 -2.0872
 2779TIP3    H229829   4.809   5.472   1.134  0.8792 -2.2456 -0.2985
 2780TIP3   OH229830   0.223   0.294   3.317 -0.2276  0.0865  0.3917
 2780TIP3    H129831   0.280   0.371   3.320 -0.4813  0.2778  0.2828
 2780TIP3    H229832   0.281   0.221   3.339 -0.2322  0.4435  1.6286
 2781TIP3   OH229833   2.596   3.591  12.021 -0.0126  0.1998  0.0429
 2781TIP3    H129834   2.578   3.634  12.104  0.9079  1.4551 -0.4036
 2781TIP3    H229835   2.683   3.553  12.031  0.7347  1.6406 -0.8624
 2782TIP3   OH229836   2.800   0.513  13.570 -0.4848  0.5504 -0.3495
 2782TIP3    H129837   2.865   0.456  13.611  0.1212  0.2435 -1.7075
 2782TIP3    H229838   2.748   0.456  13.515  0.1990  1.3057 -1.8093
 2783TIP3   OH229839   3.115   3.596  15.276  0.0917  0.3401  0.1086
 2783TIP3    H129840   3.078   3.516  15.238 -0.4856  0.1906  0.9666
 2783TIP3    H229841   3.089   3.593  15.368 -1.3752  2.3504 -0.1978
 2784TIP3   OH229842   0.976   5.460  12.960  0.1845  0.2809 -0.1736
 2784TIP3    H129843   1.064   5.448  12.923  1.1861 -0.1512  2.2123
 2784TIP3    H229844   0.923   5.492  12.887  2.6866  2.0401 -1.2923
 2785TIP3   OH229845   3.163   5.314  11.768 -0.1871 -0.4084  0.8023
 2785TIP3    H129846   3.221   5.240  11.747 -1.1647 -0.4867 -1.8609
 2785TIP3    H229847   3.222   5.387  11.785  0.7457 -1.2835  1.4058
 2786TIP3   OH229848   0.420   0.456   4.119 -0.3317  0.2806  0.4992
 2786TIP3    H129849   0.505   0.477   4.080  0.7208 -0.5156  2.3106
 2786TIP3    H229850   0.380   0.396   4.057  0.2164  1.0251 -0.6005
 2787TIP3   OH229851   4.429   2.971   4.003  0.3002  0.4066  0.3359
 2787TIP3    H129852   4.349   3.020   4.023  0.4402  1.4074 -1.4014
 2787TIP3    H229853   4.404   2.879   4.013 -1.5650  0.6213 -1.7573
 2788TIP3   OH229854   0.889   2.518  14.742 -0.1733  0.4827  0.2595
 2788TIP3    H129855   0.886   2.447  14.806  0.0814  0.5112  0.3036
 2788TIP3    H229856   0.905   2.475  14.659 -1.4075  0.3550  0.0671
 2789TIP3   OH229857   0.714   4.374   0.686 -0.2315 -0.5059  0.3977
 2789TIP3    H129858   0.684   4.396   0.598  1.9187 -1.8305 -0.7200
 2789TIP3    H229859   0.784   4.436   0.703 -0.7904 -0.1130  1.2676
 2790TIP3   OH229860   6.339   1.698   1.329 -0.5860  0.0102 -0.1567
 2790TIP3    H129861   6.319   1.789   1.307 -0.7827 -0.3701 -1.6186
 2790TIP3    H229862   6.425   1.682   1.291 -1.3762 -0.9614 -1.6139
 2791TIP3   OH229863   1.560   6.110  10.948  0.0291 -0.1885 -0.4231
 2791TIP3    H129864   1.532   6.103  10.857 -2.0507 -0.8924  0.2383
 2791TIP3    H229865   1.594   6.023  10.969  1.2648  0.2042 -0.7462
 2792TIP3   OH229866   2.753   2.044  16.721  0.2611 -0.5612  0.6437
 2792TIP3    H129867   2.835   2.046  16.671 -0.4664  1.4498 -0.5110
 2792TIP3    H229868   2.692   2.096  16.669 -0.6162  1.2996  3.4511
 2793TIP3   OH229869   4.110   1.538   2.684 -0.0763  0.5098  0.2549
 2793TIP3    H129870   4.045   1.542   2.614 -0.0596  1.0568  0.2643
 2793TIP3    H229871   4.059   1.517   2.763  0.1367 -1.8644 -0.2082
 2794TIP3   OH229872   2.459   0.003   3.439 -0.6994  0.3416 -0.6741
 2794TIP3    H129873   2.392   0.036   3.379 -0.7937 -0.2375 -0.8885
 2794TIP3    H229874   2.455   0.062   3.515  1.0283  2.5228 -2.2311
 2795TIP3   OH229875   5.232   2.471   2.829 -0.6305  0.0969  0.3480
 2795TIP3    H129876   5.250   2.382   2.799 -1.0730 -0.2056  0.9777
 2795TIP3    H229877   5.160   2.502   2.774 -0.6766 -0.0352  0.3357
 2796TIP3   OH229878   5.466   5.495   1.572  0.5693 -0.3923  0.1303
 2796TIP3    H129879   5.536   5.549   1.535 -0.8196  1.4989  0.2203
 2796TIP3    H229880   5.437   5.441   1.498  0.0708  0.9865 -0.6978
 2797TIP3   OH229881   6.355   5.289  14.473  0.0352  0.1840  0.0082
 2797TIP3    H129882   6.312   5.362  14.516 -0.5004  0.1256 -0.4107
 2797TIP3    H229883   6.328   5.212  14.523 -1.5004 -0.0160 -1.0707
 2798TIP3   OH229884   6.282   0.132   0.932 -0.4123  0.2502 -0.9708
 2798TIP3    H129885   6.311   0.050   0.892  0.5987 -0.9339  2.0767
 2798TIP3    H229886   6.363   0.178   0.954 -0.9473  0.4910  0.4882
 2799TIP3   OH229887   6.265   5.449  11.673  0.4046 -0.3518  0.0403
 2799TIP3    H129888   6.279   5.475  11.764  0.9759 -1.6498  0.3380
 2799TIP3    H229889   6.182   5.403  11.673 -0.3650  0.9962 -0.3961
 2800TIP3   OH229890   4.672   2.372  16.216  0.0263 -0.9261  0.6309
 2800TIP3    H129891   4.637   2.335  16.297  0.0731 -1.6556  0.3203
 2800TIP3    H229892   4.643   2.312  16.147  0.3320 -0.5363  0.1573
 2801TIP3   OH229893   6.223   6.549  11.445  0.1234 -0.2548 -0.1625
 2801TIP3    H129894   6.256   6.580  11.360  0.6118 -0.6101 -0.1105
 2801TIP3    H229895   6.136   6.587  11.453 -0.2568 -0.8721 -1.1959
 2802TIP3   OH229896   5.461   2.041   3.739  0.1872 -0.0033 -0.4737
 2802TIP3    H129897   5.479   2.135   3.746 -0.7458  0.0528  1.7364
 2802TIP3    H229898   5.531   2.000   3.791  1.0995 -0.6093 -2.1450
 2803TIP3   OH229899   5.047   4.707   4.646  0.0186  0.0330  0.0421
 2803TIP3    H129900   5.072   4.763   4.573 -1.3763 -0.3868 -0.7556
 2803TIP3    H229901   5.105   4.632   4.639 -0.4946 -0.2763 -0.9775
 2804TIP3   OH229902   0.020   3.635   0.365  0.3640  0.7878 -0.4920
 2804TIP3    H129903   0.114   3.617   0.364 -0.1773 -2.8011  2.2696
 2804TIP3    H229904  -0.005   3.623   0.457 -2.7383  2.1414 -1.0999
 2805TIP3   OH229905   4.560   5.351  10.752 -0.1354 -0.4723  0.2327
 2805TIP3    H129906   4.589   5.261  10.734 -0.9977 -0.9153  1.0286
 2805TIP3    H229907   4.626   5.385  10.812  1.0672 -0.0250 -1.3177
 2806TIP3   OH229908   3.093   6.572  11.326  0.4222 -0.1425  0.3449
 2806TIP3    H129909   3.128   6.576  11.414  1.1222  1.0170  0.0333
 2806TIP3    H229910   3.118   6.486  11.293 -1.2457 -1.2131  1.8371
 2807TIP3   OH229911   2.942   1.655   6.330 -0.5907 -0.5862  0.0083
 2807TIP3    H129912   2.985   1.590   6.274 -0.7853 -0.0065 -0.8150
 2807TIP3    H229913   2.851   1.655   6.302 -0.6179 -0.0451  0.0971
 2808TIP3   OH229914   5.641   4.995  11.597  0.2780 -0.3490  0.7769
 2808TIP3    H129915   5.688   4.951  11.526  1.6376 -1.7720  2.5017
 2808TIP3    H229916   5.706   5.054  11.635 -0.6882  1.0116  0.3353
 2809TIP3   OH229917   0.744   0.994   2.478  0.3030 -0.3243  0.1493
 2809TIP3    H129918   0.834   1.024   2.494  0.0440 -0.1867  1.4160
 2809TIP3    H229919   0.724   0.938   2.553 -1.2482  0.9860  0.7614
 2810TIP3   OH229920   1.301   4.063  13.630 -0.5945 -0.6358  0.3393
 2810TIP3    H129921   1.249   4.047  13.709  0.5279 -0.6415  1.0776
 2810TIP3    H229922   1.269   4.148  13.598 -2.8635 -1.8117 -0.6660
 2811TIP3   OH229923   3.810   4.293   5.626  0.0225  0.3663  0.2570
 2811TIP3    H129924   3.769   4.224   5.678  0.6281 -0.6227 -0.5554
 2811TIP3    H229925   3.779   4.375   5.665 -0.6765 -0.3670  1.2479
 2812TIP3   OH229926   5.483   2.702  12.991  0.6439 -0.2682 -0.8063
 2812TIP3    H129927   5.400   2.724  13.032  1.5732  0.1034  0.8992
 2812TIP3    H229928   5.467   2.712  12.897 -0.7743  1.3425 -0.3974
 2813TIP3   OH229929   4.208   4.937  14.283  0.0128 -0.1345  0.1821
 2813TIP3    H129930   4.285   4.937  14.339  0.2605 -1.6322 -0.1399
 2813TIP3    H229931   4.134   4.938  14.343  0.2855 -0.7366  0.5350
 2814TIP3   OH229932   3.108   0.467  14.520 -0.2182 -0.1610  0.6943
 2814TIP3    H129933   3.154   0.498  14.598 -0.7058 -0.9238  1.2979
 2814TIP3    H229934   3.159   0.392  14.490  1.0955  1.3416 -0.9060
 2815TIP3   OH229935   4.626   2.119  16.878 -0.1423 -0.3708 -0.0177
 2815TIP3    H129936   4.626   2.209  16.845 -0.7605 -0.1266  0.6366
 2815TIP3    H229937   4.617   2.064  16.800  1.5439  0.0810 -0.5379
 2816TIP3   OH229938   0.963   1.460  14.629  0.3260 -0.1038  0.4614
 2816TIP3    H129939   0.893   1.499  14.578  0.4819 -0.2713  0.1169
 2816TIP3    H229940   1.043   1.503  14.598  0.4454 -0.3667  0.3978
 2817TIP3   OH229941   1.192   1.272   4.955  0.2560  0.0743 -0.0758
 2817TIP3    H129942   1.115   1.288   4.900  0.5731 -1.8828 -1.1622
 2817TIP3    H229943   1.163   1.208   5.019  0.4407  0.8528  0.7926
 2818TIP3   OH229944   4.231   1.926  13.224 -0.0366  0.5539  0.1175
 2818TIP3    H129945   4.192   1.995  13.276  0.6895  0.7114  0.4527
 2818TIP3    H229946   4.158   1.867  13.204 -0.6715  1.4590 -0.2477
 2819TIP3   OH229947   5.013   1.587  10.586  0.5049  0.2502  0.3923
 2819TIP3    H129948   5.015   1.538  10.504  0.8555  0.8395  0.0459
 2819TIP3    H229949   5.085   1.649  10.579  0.6010  0.2397  1.1897
 2820TIP3   OH229950   0.997   6.346  10.982  0.3236 -0.1908  0.0843
 2820TIP3    H129951   0.923   6.358  10.922  0.9697  0.7525 -0.5399
 2820TIP3    H229952   0.968   6.278  11.042 -1.1986  0.4310  0.0726
 2821TIP3   OH229953   2.587   0.681   1.949 -0.5045  0.2393 -0.4228
 2821TIP3    H129954   2.588   0.770   1.985 -2.5301  0.2083 -0.2589
 2821TIP3    H229955   2.551   0.627   2.019  2.8443 -1.1481  0.3356
 2822TIP3   OH229956   3.884   5.122   4.796 -0.3808  0.1829 -0.2138
 2822TIP3    H129957   3.902   5.064   4.722 -0.3837  0.2145 -0.2392
 2822TIP3    H229958   3.916   5.208   4.768 -0.7093  0.2715 -0.3133
 2823TIP3   OH229959   6.655   4.218   4.844 -0.2619  0.6049  0.3717
 2823TIP3    H129960   6.723   4.151   4.855  1.2171  1.8977 -0.6757
 2823TIP3    H229961   6.703   4.301   4.843 -2.0858  1.7087  1.7418
 2824TIP3   OH229962   4.028   1.788   6.114  0.1961  0.5704  0.7279
 2824TIP3    H129963   4.096   1.788   6.180  0.3926  1.5929  0.5256
 2824TIP3    H229964   3.967   1.857   6.141 -0.7158 -0.2669  0.8586
 2825TIP3   OH229965   2.619   2.359  13.783 -0.0467  0.3990 -0.0793
 2825TIP3    H129966   2.563   2.302  13.836  0.6970  0.0307  0.3066
 2825TIP3    H229967   2.563   2.433  13.761 -1.0811 -0.5513 -0.7197
 2826TIP3   OH229968   3.525   2.435   1.544 -0.0718 -0.1788 -0.4855
 2826TIP3    H129969   3.560   2.411   1.630 -1.8480  0.6861  0.5234
 2826TIP3    H229970   3.525   2.354   1.494 -0.1854 -0.9654  0.7767
 2827TIP3   OH229971   2.536   5.647   2.718 -0.4985  0.1465 -0.3644
 2827TIP3    H129972   2.508   5.558   2.738  2.0521 -1.0094 -1.7889
 2827TIP3    H229973   2.608   5.637   2.656  0.4712  3.1639  0.1809
 2828TIP3   OH229974   2.774   0.188  15.805  0.1211  0.1921 -0.1539
 2828TIP3    H129975   2.856   0.213  15.846 -0.3536  0.5559  0.5806
 2828TIP3    H229976   2.729   0.135  15.871 -0.7887  1.0608 -0.0693
 2829TIP3   OH229977   3.288   0.730   3.910 -0.4505 -0.0374  0.3921
 2829TIP3    H129978   3.233   0.696   3.980  1.0351 -0.9837  1.1323
 2829TIP3    H229979   3.376   0.696   3.930  0.3493  1.2196 -0.8927
 2830TIP3   OH229980   4.735   4.590   1.161  0.0106  0.1372 -0.2105
 2830TIP3    H129981   4.671   4.527   1.129  0.7137 -0.6571 -0.0894
 2830TIP3    H229982   4.815   4.538   1.174  0.8151  1.2061 -0.8346
 2831TIP3   OH229983   2.712   1.793   0.016  0.6388  0.7477 -0.8211
 2831TIP3    H129984   2.649   1.777  -0.054 -0.2705 -3.5875  0.8160
 2831TIP3    H229985   2.797   1.773  -0.024  0.1506 -1.4061 -0.8569
 2832TIP3   OH229986   2.597   4.876  12.694 -0.4428 -0.3338 -0.6274
 2832TIP3    H129987   2.658   4.803  12.684  2.2693  1.8188 -0.1913
 2832TIP3    H229988   2.630   4.924  12.770 -2.1996  1.3580 -0.9022
 2833TIP3   OH229989   5.756   2.316  14.187  0.3220 -0.1824 -0.1871
 2833TIP3    H129990   5.734   2.228  14.156 -1.1098 -0.3908  1.3320
 2833TIP3    H229991   5.734   2.374  14.114 -2.9382 -0.6622  0.3394
 2834TIP3   OH229992   5.966   5.445  13.814 -0.1184  0.2788  0.3621
 2834TIP3    H129993   5.950   5.375  13.877 -0.0035  1.7860  2.0953
 2834TIP3    H229994   5.990   5.399  13.733 -1.3000 -1.6973  1.0982
 2835TIP3   OH229995   5.462   1.546  16.731 -0.0755  0.0130  0.1083
 2835TIP3    H129996   5.378   1.522  16.692 -0.5461 -0.2878  1.2825
 2835TIP3    H229997   5.527   1.497  16.682 -0.6386 -0.2459 -0.3853
 2836TIP3   OH229998   6.690   0.338  14.456  0.4951  0.0624 -0.7373
 2836TIP3    H129999   6.635   0.412  14.481 -0.6441 -1.2072  0.6740
 2836TIP3    H230000   6.779   0.366  14.476  0.0741  1.0406 -0.2038
 2837TIP3   OH230001   2.589   2.511  12.353 -0.4122 -0.0966  0.0952
 2837TIP3    H130002   2.601   2.589  12.298 -1.9151 -0.0133 -0.1436
 2837TIP3    H230003   2.675   2.497  12.393  0.3311  0.6949 -1.1578
 2838TIP3   OH230004   2.026   0.018   3.858 -0.7179 -0.4501 -0.0921
 2838TIP3    H130005   2.036   0.111   3.841  0.5552 -0.8615 -1.7655
 2838TIP3    H230006   2.038  -0.024   3.773  2.6415 -2.3906  1.2194
 2839TIP3   OH230007   2.490   1.717  12.500  0.0425 -0.1703  0.1603
 2839TIP3    H130008   2.420   1.782  12.506  0.6576  0.3887  1.5318
 2839TIP3    H230009   2.566   1.766  12.468  0.4877 -0.2043  1.1337
 2840TIP3   OH230010   1.621   2.080  16.513 -0.8420 -0.6173  0.3763
 2840TIP3    H130011   1.585   2.165  16.537  2.0410  0.4203  1.3059
 2840TIP3    H230012   1.621   2.079  16.417 -0.8613  0.4679  0.3605
 2841TIP3   OH230013   4.849   1.679   5.840  0.1561  0.5577  0.1282
 2841TIP3    H130014   4.855   1.773   5.825 -0.5116  0.5089 -0.5157
 2841TIP3    H230015   4.762   1.655   5.806 -0.5280  0.0578  2.1969
 2842TIP3   OH230016   4.801   5.872   0.104  0.2018 -0.1002  0.9459
 2842TIP3    H130017   4.820   5.854   0.012  0.0761  1.5255  0.5925
 2842TIP3    H230018   4.844   5.801   0.151  1.5835 -0.0994 -0.2657
 2843TIP3   OH230019   1.045   0.571   2.527  0.9148  0.5373  0.3828
 2843TIP3    H130020   1.107   0.561   2.455  1.3070  1.2682  0.6065
 2843TIP3    H230021   1.074   0.509   2.593  1.3668  0.8223  0.4555
 2844TIP3   OH230022   0.173   0.164  13.661  0.4011  0.0081  0.7423
 2844TIP3    H130023   0.147   0.243  13.615 -0.3615 -0.4395  0.3934
 2844TIP3    H230024   0.240   0.124  13.605  1.4809  0.8988  1.3931
 2845TIP3   OH230025   1.360   4.511   5.671 -0.0949  0.4517  0.2474
 2845TIP3    H130026   1.366   4.422   5.636  1.4006  0.1280  1.2567
 2845TIP3    H230027   1.450   4.532   5.697 -0.4880  2.1571  0.2698
 2846TIP3   OH230028   1.582   1.089   3.758 -0.2533 -0.0108  0.6982
 2846TIP3    H130029   1.588   1.027   3.830 -0.6482  0.4222  1.1041
 2846TIP3    H230030   1.522   1.157   3.789 -2.7536 -1.3079 -1.0982
 2847TIP3   OH230031   0.488   2.699  12.295 -0.3683 -0.3876 -0.1645
 2847TIP3    H130032   0.419   2.634  12.310 -1.0005 -0.8143 -4.1977
 2847TIP3    H230033   0.496   2.703  12.200  2.4610  2.5695  0.1143
 2848TIP3   OH230034   0.875   3.854  11.601  0.5732 -0.0164 -0.2024
 2848TIP3    H130035   0.809   3.894  11.658  1.0739  2.5426 -1.3110
 2848TIP3    H230036   0.837   3.862  11.513  2.1120  1.0424 -0.7954
 2849TIP3   OH230037   1.980   0.809   0.943  0.0630  0.5044 -0.4406
 2849TIP3    H130038   1.986   0.716   0.923 -0.1181  0.5393 -0.6611
 2849TIP3    H230039   2.071   0.838   0.949  0.1236  0.0117  1.0523
 2850TIP3   OH230040   2.761   5.418   0.918  0.3307 -0.4511 -0.4859
 2850TIP3    H130041   2.834   5.467   0.955 -1.5126  1.1822  1.1363
 2850TIP3    H230042   2.733   5.470   0.843 -0.2407 -0.1393 -0.0661
 2851TIP3   OH230043   4.550   3.597  13.852 -0.0692  0.4957  0.3193
 2851TIP3    H130044   4.551   3.593  13.756 -2.4623  1.4521  0.2008
 2851TIP3    H230045   4.552   3.691  13.871 -0.1843  0.3247  1.1789
 2852TIP3   OH230046   6.160   2.821  14.606  0.1440  0.1132  0.2660
 2852TIP3    H130047   6.143   2.727  14.612  0.2835  0.0782  0.1082
 2852TIP3    H230048   6.200   2.833  14.520 -1.3780  0.5535 -0.3969
 2853TIP3   OH230049   2.387   4.583  12.906 -0.1008 -0.3207  0.2673
 2853TIP3    H130050   2.399   4.535  12.825  2.6246  0.6087  0.0738
 2853TIP3    H230051   2.303   4.628  12.895  0.2065 -0.2523 -2.0021
 2854TIP3   OH230052   5.009   0.958   5.441 -0.2859  0.5739  0.3716
 2854TIP3    H130053   4.995   0.942   5.347  1.4599  2.6619 -0.2841
 2854TIP3    H230054   5.000   1.052   5.450  0.7093  0.5115  2.1108
 2855TIP3   OH230055   4.209   5.924   1.846  0.1614  0.3029 -0.7741
 2855TIP3    H130056   4.191   5.910   1.753  0.7901  0.3185 -0.9005
 2855TIP3    H230057   4.234   5.838   1.879 -1.3209  0.0434 -0.3340
 2856TIP3   OH230058   5.753   1.138   5.406 -0.6704  0.2098  0.2891
 2856TIP3    H130059   5.844   1.107   5.403 -0.5968  0.4899 -0.5133
 2856TIP3    H230060   5.714   1.089   5.478  0.7793  1.9591  2.3090
 2857TIP3   OH230061   4.650   5.147   4.150  0.7955  0.0441  0.3146
 2857TIP3    H130062   4.649   5.227   4.202 -1.3423 -1.6320  2.9741
 2857TIP3    H230063   4.606   5.171   4.068 -0.2456  1.4656  1.2702
 2858TIP3   OH230064   0.055   2.723  13.373 -0.1756  0.1442 -0.1872
 2858TIP3    H130065   0.122   2.776  13.417  0.5256 -0.3786 -0.6142
 2858TIP3    H230066   0.038   2.770  13.291  0.6541 -0.4273 -0.6986
 2859TIP3   OH230067   2.062   3.648   5.440  0.1909 -0.2670  0.2132
 2859TIP3    H130068   2.072   3.584   5.510 -0.4903 -0.6547 -0.0400
 2859TIP3    H230069   1.972   3.635   5.408 -1.0512  2.9190  2.2125
 2860TIP3   OH230070   3.394   2.449  11.636  0.3035 -0.2211 -0.3917
 2860TIP3    H130071   3.389   2.535  11.678  0.4412 -0.7330  0.6952
 2860TIP3    H230072   3.453   2.463  11.562 -0.2350  0.7832 -0.6470
 2861TIP3   OH230073   0.952   6.047  17.033  0.6007  0.4176  0.2148
 2861TIP3    H130074   0.918   6.123  17.080  1.0970  1.3637 -0.9057
 2861TIP3    H230075   0.961   5.979  17.099 -1.9425  0.6292  0.8322
 2862TIP3   OH230076   1.589   2.197   0.215  0.4221  0.0894  0.1974
 2862TIP3    H130077   1.551   2.231   0.134  0.5605  0.2344  0.1912
 2862TIP3    H230078   1.522   2.210   0.281  0.8174  1.2446  0.3902
 2863TIP3   OH230079   0.308   3.077  13.926  0.1075  0.2745 -0.0516
 2863TIP3    H130080   0.357   3.109  14.002  1.5037 -0.2876 -0.7074
 2863TIP3    H230081   0.359   3.003  13.893 -0.7270  0.2193 -1.2768
 2864TIP3   OH230082   3.246   6.409  14.708 -0.4270  0.4481 -0.0507
 2864TIP3    H130083   3.190   6.335  14.683 -0.3650  0.2037  0.5277
 2864TIP3    H230084   3.250   6.463  14.629 -0.6387 -0.0599 -0.4147
 2865TIP3   OH230085   3.395   3.600  16.621  0.1456 -0.2895  0.6332
 2865TIP3    H130086   3.424   3.650  16.697 -2.1463  0.4388  1.0798
 2865TIP3    H230087   3.320   3.549  16.652 -3.5058  3.1433 -2.0458
 2866TIP3   OH230088   6.227   1.909   3.490  0.1604 -0.3168  0.0393
 2866TIP3    H130089   6.135   1.910   3.462  0.1917  0.6742 -0.0652
 2866TIP3    H230090   6.272   1.959   3.422  0.5765  0.2921  0.7574
 2867TIP3   OH230091   2.836   5.821  14.678 -0.2070 -0.0733 -0.5696
 2867TIP3    H130092   2.761   5.855  14.629 -0.8979  0.8916  1.1237
 2867TIP3    H230093   2.846   5.731  14.647 -0.6085  0.5160 -2.4883
 2868TIP3   OH230094   0.238   1.934  16.252  0.6855 -0.3747 -0.1406
 2868TIP3    H130095   0.241   1.839  16.264  2.4095 -0.3707 -0.5189
 2868TIP3    H230096   0.317   1.955  16.202 -0.9562  0.9440 -2.2661
 2869TIP3   OH230097   3.021   2.902  15.780  0.4872 -0.1328  0.5899
 2869TIP3    H130098   3.034   2.841  15.707 -0.7398 -0.4214  0.5992
 2869TIP3    H230099   3.106   2.945  15.791  0.5638  0.2144 -1.2712
 2870TIP3   OH230100   5.419   6.311  14.962  0.3717 -0.5366 -0.3385
 2870TIP3    H130101   5.448   6.385  15.015  0.2128 -1.3117  0.8413
 2870TIP3    H230102   5.500   6.268  14.934  0.4586 -0.0607 -0.8265
 2871TIP3   OH230103   2.148   3.569   2.210  0.4395 -0.1777 -0.1096
 2871TIP3    H130104   2.081   3.525   2.261  1.5519 -0.6571  0.9766
 2871TIP3    H230105   2.222   3.507   2.210  0.5222 -0.1124 -2.1480
 2872TIP3   OH230106   1.820   0.478   0.409 -1.1568 -0.4032  0.0718
 2872TIP3    H130107   1.775   0.423   0.474 -1.3706  1.3968  1.4910
 2872TIP3    H230108   1.751   0.503   0.347 -1.9131  1.4565  1.6279
 2873TIP3   OH230109   2.576   2.902  15.855  0.1398  0.5311 -0.0280
 2873TIP3    H130110   2.524   2.948  15.920  2.0073  1.8557  0.5891
 2873TIP3    H230111   2.580   2.811  15.886 -1.5701  0.4680  0.0227
 2874TIP3   OH230112   1.848   2.565   0.861 -0.4621  0.2523 -0.0001
 2874TIP3    H130113   1.773   2.507   0.869 -0.4021 -0.0006 -1.3207
 2874TIP3    H230114   1.904   2.542   0.935 -2.4420  1.5784  2.0040
 2875TIP3   OH230115   1.505   1.625  16.727  0.3157  0.0388 -1.1493
 2875TIP3    H130116   1.539   1.686  16.663 -0.8308  0.8339 -1.0099
 2875TIP3    H230117   1.511   1.671  16.811  0.1466 -0.3162 -0.9404
 2876TIP3   OH230118   5.961   5.106  15.235  0.1956 -0.6022  0.0962
 2876TIP3    H130119   5.908   5.186  15.237  2.3894  0.9091 -0.5238
 2876TIP3    H230120   6.035   5.127  15.179  0.4568 -3.3478 -0.6953
 2877TIP3   OH230121   1.766   3.791   0.341 -0.0069 -0.2077 -0.0781
 2877TIP3    H130122   1.838   3.852   0.325 -0.5057  0.9488  1.9359
 2877TIP3    H230123   1.705   3.840   0.396 -0.7069 -2.3128  1.0696
 2878TIP3   OH230124   0.630   3.316  14.986  0.6839 -0.1868  0.1585
 2878TIP3    H130125   0.592   3.234  14.953 -1.8868  0.5727  1.1335
 2878TIP3    H230126   0.719   3.317  14.951  0.5878 -3.1588 -0.2766
 2879TIP3   OH230127   2.881   5.816  16.313 -1.1016 -0.2472  0.7616
 2879TIP3    H130128   2.943   5.828  16.241 -0.2084 -1.8389  1.2351
 2879TIP3    H230129   2.886   5.898  16.362  1.4231 -0.7004  1.3493
 2880TIP3   OH230130   3.192   6.819  12.877  0.1902  0.7207  0.0821
 2880TIP3    H130131   3.245   6.766  12.936  0.7833  1.9952  0.7029
 2880TIP3    H230132   3.243   6.824  12.796  0.8186  1.5434  0.5173
 2881TIP3   OH230133   4.517   6.758  16.232  0.2377 -0.2122  0.0293
 2881TIP3    H130134   4.609   6.760  16.258  0.2177 -1.8081  0.2587
 2881TIP3    H230135   4.475   6.823  16.289  1.0223 -0.2904  0.7105
 2882TIP3   OH230136   6.426   1.349   5.978 -0.3225  0.2383  0.0645
 2882TIP3    H130137   6.380   1.402   6.042  1.4166  0.2674  1.3351
 2882TIP3    H230138   6.497   1.308   6.027 -1.3734 -2.9827 -0.9404
 2883TIP3   OH230139   0.730   1.035  11.154  0.1307  0.6474 -0.2797
 2883TIP3    H130140   0.743   1.081  11.071 -0.5002  0.6245 -0.3916
 2883TIP3    H230141   0.635   1.032  11.166  0.1378 -0.9986 -0.4954
 2884TIP3   OH230142   6.483   4.270   2.687  0.8006  0.1471  0.3121
 2884TIP3    H130143   6.409   4.326   2.707  1.4017  0.9214  0.4139
 2884TIP3    H230144   6.449   4.181   2.694  0.0545  0.4821  1.0015
 2885TIP3   OH230145   1.434   5.980   3.930  0.4004 -0.5482 -0.1185
 2885TIP3    H130146   1.348   5.962   3.891  0.4564  0.8846 -0.9393
 2885TIP3    H230147   1.489   5.906   3.903 -0.5075 -1.3540  0.2244
 2886TIP3   OH230148   2.615   3.840  10.807 -0.7595 -0.1684 -0.5001
 2886TIP3    H130149   2.696   3.886  10.786 -1.6872  1.2694 -0.9886
 2886TIP3    H230150   2.582   3.810  10.722  0.3239 -2.6289 -0.1082
 2887TIP3   OH230151   2.251   1.008   2.890  0.2759 -0.2328  1.3251
 2887TIP3    H130152   2.331   1.052   2.865  0.2432 -0.1272  1.4053
 2887TIP3    H230153   2.266   0.916   2.869 -0.0817 -0.0174  0.1082
 2888TIP3   OH230154   5.154   2.028   3.130 -0.1549 -0.0401  0.1511
 2888TIP3    H130155   5.079   2.084   3.110 -0.7158 -0.5905  0.6949
 2888TIP3    H230156   5.130   1.985   3.212  0.9294  0.0820  0.5304
 2889TIP3   OH230157   0.926   3.278  13.807  0.1714  0.0221 -0.4415
 2889TIP3    H130158   0.937   3.308  13.717 -1.1387  3.3307  0.4304
 2889TIP3    H230159   0.832   3.285  13.824  0.6368  1.4041  1.8043
 2890TIP3   OH230160   5.499   0.531   0.897  0.0469 -0.0143 -0.4889
 2890TIP3    H130161   5.501   0.538   0.992  1.9828 -1.9374 -0.3387
 2890TIP3    H230162   5.552   0.605   0.867 -0.9753  0.8822 -0.1028
 2891TIP3   OH230163   1.737   1.818   2.284 -0.0006  0.0847  0.1381
 2891TIP3    H130164   1.736   1.822   2.380  0.0917  0.9700  0.1072
 2891TIP3    H230165   1.827   1.840   2.260  0.6638 -2.7210 -0.0669
 2892TIP3   OH230166   2.443   4.074  14.122  0.5277  0.1683  0.6156
 2892TIP3    H130167   2.491   4.040  14.047  0.7727 -1.2651  1.4035
 2892TIP3    H230168   2.427   4.166  14.101  1.6667  0.0916 -0.6335
 2893TIP3   OH230169   3.630   3.849   4.911  0.6732  0.2811  0.3353
 2893TIP3    H130170   3.721   3.822   4.921  0.9698  1.2423  0.2693
 2893TIP3    H230171   3.602   3.873   4.999  1.2507  2.3437 -0.0060
 2894TIP3   OH230172   1.507   1.088   5.511 -0.3799  0.6286  0.1862
 2894TIP3    H130173   1.449   1.016   5.537  2.3458 -2.2598 -1.4246
 2894TIP3    H230174   1.519   1.139   5.591 -0.5090 -2.0496  1.9723
 2895TIP3   OH230175   2.025   5.697   1.491 -0.1969 -0.4542 -0.0208
 2895TIP3    H130176   1.941   5.720   1.451  0.3419  0.3298 -0.7138
 2895TIP3    H230177   2.061   5.780   1.522  1.5110 -0.3884 -2.0436
 2896TIP3   OH230178   6.584   6.176   2.974  0.3140  0.1298  0.2401
 2896TIP3    H130179   6.566   6.211   3.061  0.0140 -1.0938  0.6927
 2896TIP3    H230180   6.618   6.088   2.991 -1.5589 -0.8459 -0.9397
 2897TIP3   OH230181   3.904   0.466   5.738 -0.0155  0.3765  0.1366
 2897TIP3    H130182   3.977   0.459   5.801  1.4577 -0.2386 -1.5995
 2897TIP3    H230183   3.943   0.508   5.662 -1.5136  0.1014 -0.7806
 2898TIP3   OH230184   1.682   6.127   5.560 -0.4414  0.7770  0.2944
 2898TIP3    H130185   1.720   6.092   5.479  2.1757  0.2364  1.7259
 2898TIP3    H230186   1.635   6.053   5.599 -2.1158  1.1587 -0.9110
 2899TIP3   OH230187   0.022   1.584   4.080  0.5627 -0.4290 -0.1122
 2899TIP3    H130188   0.030   1.548   4.168 -1.7256 -2.0818 -0.5337
 2899TIP3    H230189   0.004   1.677   4.094 -2.4937 -1.1866  1.2645
 2900TIP3   OH230190   4.839   1.620   3.311  0.7034  0.3384 -0.2445
 2900TIP3    H130191   4.912   1.572   3.272  2.8832  1.9880  1.7050
 2900TIP3    H230192   4.847   1.603   3.405 -1.8690 -0.0347 -0.0515
 2901TIP3   OH230193   1.003   4.947   0.549  0.6573 -0.1479 -0.2814
 2901TIP3    H130194   0.984   4.922   0.458  1.0710 -0.6196 -0.2373
 2901TIP3    H230195   0.919   4.941   0.593  0.5921 -0.6068 -0.4702
 2902TIP3   OH230196   4.209   2.160   5.462 -0.4550  0.5874  0.2138
 2902TIP3    H130197   4.135   2.142   5.521 -1.1336  0.9555 -0.5188
 2902TIP3    H230198   4.261   2.080   5.463 -0.8009  0.3695  0.8262
 2903TIP3   OH230199   3.675   0.633   4.839  0.4459 -0.4172 -0.2321
 2903TIP3    H130200   3.763   0.596   4.844  0.4657 -0.3556 -0.1210
 2903TIP3    H230201   3.647   0.640   4.931 -0.8023 -3.1273 -0.3777
 2904TIP3   OH230202   1.260   4.229   3.071  0.1087 -0.2140 -0.4857
 2904TIP3    H130203   1.170   4.261   3.060 -0.0620 -0.9310 -1.2132
 2904TIP3    H230204   1.274   4.230   3.166 -0.8732 -0.6635 -0.3270
 2905TIP3   OH230205   3.133   0.261  16.711 -0.3220 -0.3042  0.3968
 2905TIP3    H130206   3.201   0.196  16.726 -1.3976 -1.7080 -0.7115
 2905TIP3    H230207   3.140   0.320  16.786  1.9523 -0.5425  0.4135
 2906TIP3   OH230208   0.646   3.266   5.317  0.1287  0.0202  0.6364
 2906TIP3    H130209   0.661   3.207   5.244  1.9477 -0.5607  1.4439
 2906TIP3    H230210   0.713   3.242   5.381 -1.3503  0.5921  2.4420
 2907TIP3   OH230211   5.583   1.028  14.699 -0.2290  0.2257  0.0209
 2907TIP3    H130212   5.541   0.949  14.733  0.3129  0.4567  1.2310
 2907TIP3    H230213   5.554   1.098  14.756  4.2903 -0.0936  2.9781
 2908TIP3   OH230214   6.317   6.186  13.025  0.4963 -0.5272 -0.0467
 2908TIP3    H130215   6.323   6.231  13.109 -0.2224  1.3059 -0.9431
 2908TIP3    H230216   6.250   6.119  13.038 -0.3022  0.3781  0.5782
 2909TIP3   OH230217   4.706   6.758   6.344 -0.0888 -0.4326 -0.5035
 2909TIP3    H130218   4.669   6.831   6.294  2.6814  1.3877 -0.0128
 2909TIP3    H230219   4.699   6.786   6.435  4.0970  0.8865 -0.4664
 2910TIP3   OH230220   3.406   6.195  14.776  0.1734  0.2709 -0.0520
 2910TIP3    H130221   3.363   6.277  14.752 -1.9782 -0.8629 -0.1964
 2910TIP3    H230222   3.361   6.129  14.724 -0.2621 -1.4177  2.4072
 2911TIP3   OH230223   6.644   4.334  13.975 -0.2906  0.3019 -0.0925
 2911TIP3    H130224   6.578   4.371  14.033  0.2381  2.2340 -0.6783
 2911TIP3    H230225   6.727   4.371  14.005  0.4398 -1.4484  0.1182
 2912TIP3   OH230226   4.501   3.675  16.255  0.1339  0.5514 -0.0273
 2912TIP3    H130227   4.595   3.675  16.267  0.0879  0.2956  0.3206
 2912TIP3    H230228   4.472   3.588  16.282 -0.3454  1.0145  0.9937
 2913TIP3   OH230229   3.280   5.275  15.562  0.3851 -0.1566  0.4933
 2913TIP3    H130230   3.306   5.283  15.653 -1.2224 -2.7875  1.2383
 2913TIP3    H230231   3.362   5.261  15.514  1.0531 -0.8842  1.8214
 2914TIP3   OH230232   6.361   6.462  15.894  0.3272  0.0643  0.0267
 2914TIP3    H130233   6.372   6.402  15.820  1.7829  1.4474 -0.9252
 2914TIP3    H230234   6.277   6.439  15.932  0.9103 -2.6515 -0.2450
 2915TIP3   OH230235   2.365   6.669  14.766  0.2239 -0.3156 -0.3371
 2915TIP3    H130236   2.375   6.688  14.672 -0.5575 -0.0246 -0.3661
 2915TIP3    H230237   2.399   6.580  14.776 -1.8155 -1.2443 -1.3164
 2916TIP3   OH230238   6.003   1.293   2.718  0.1667  0.2025 -0.0806
 2916TIP3    H130239   5.983   1.387   2.714  0.2812  0.3226  1.7349
 2916TIP3    H230240   5.952   1.261   2.792 -1.7253 -1.6711 -2.1028
 2917TIP3   OH230241   0.962   1.158   2.602 -0.0494  0.1038 -0.1429
 2917TIP3    H130242   0.908   1.117   2.670  0.3258 -0.6585 -0.3037
 2917TIP3    H230243   1.032   1.095   2.585 -0.5916 -0.0706 -1.8104
 2918TIP3   OH230244   2.534   1.738  11.688  0.1022  0.0296  0.0982
 2918TIP3    H130245   2.466   1.794  11.723  0.9679 -0.0078  1.9160
 2918TIP3    H230246   2.563   1.686  11.763  1.6664 -0.4218 -0.7905
 2919TIP3   OH230247   3.313   6.815  12.640 -0.1937 -0.0268  0.4359
 2919TIP3    H130248   3.323   6.728  12.601 -2.1672  0.7415 -1.8981
 2919TIP3    H230249   3.313   6.875  12.565 -0.2829  1.8593  1.9107
 2920TIP3   OH230250   6.722   5.172   6.206 -0.2909  0.2559  0.4627
 2920TIP3    H130251   6.747   5.147   6.117 -2.0229 -0.0803  0.0414
 2920TIP3    H230252   6.721   5.089   6.254 -1.4603  0.1380  0.2438
 2921TIP3   OH230253   0.833   6.103  13.843  0.0822 -0.3838  0.0957
 2921TIP3    H130254   0.746   6.144  13.843 -0.0334 -0.6291  0.1049
 2921TIP3    H230255   0.860   6.107  13.751  0.2992  0.1905  0.1764
 2922TIP3   OH230256   4.132   1.181   0.373  0.4891  0.1355 -0.0461
 2922TIP3    H130257   4.106   1.246   0.439 -0.9156 -0.2249 -0.2171
 2922TIP3    H230258   4.073   1.198   0.299  0.3084 -1.1461 -0.1991
 2923TIP3   OH230259   0.203   1.002   3.445 -0.5573 -0.2294 -0.4165
 2923TIP3    H130260   0.282   1.032   3.490 -1.9545  1.3016  1.0737
 2923TIP3    H230261   0.187   1.068   3.377 -0.5233 -0.5774 -0.7669
 2924TIP3   OH230262   1.896   6.498  15.407  0.1376  0.2526 -0.4867
 2924TIP3    H130263   1.888   6.592  15.422  0.6305  0.4106 -1.2148
 2924TIP3    H230264   1.842   6.459  15.476  1.3445  1.0149  0.9336
 2925TIP3   OH230265   4.239   0.103  11.741 -0.7004  0.1342  0.2075
 2925TIP3    H130266   4.228   0.016  11.778 -0.4706  0.4778  1.1033
 2925TIP3    H230267   4.163   0.152  11.771 -0.7068  0.3037 -0.0898
 2926TIP3   OH230268   0.705   2.726   5.822  0.0260  0.3963  0.2011
 2926TIP3    H130269   0.643   2.748   5.892  1.7999  1.6112  1.4372
 2926TIP3    H230270   0.719   2.808   5.775  0.7015  0.1374 -0.0615
 2927TIP3   OH230271   0.043   6.027  15.744 -0.1249  0.1050  0.0612
 2927TIP3    H130272   0.122   6.013  15.691  1.0978 -1.2497  2.1608
 2927TIP3    H230273   0.038   5.949  15.799 -0.4963  2.1519  2.9909
 2928TIP3   OH230274   6.416   3.334   1.731  0.4548  0.1178 -0.2571
 2928TIP3    H130275   6.476   3.392   1.685  0.1521  1.2845  0.7756
 2928TIP3    H230276   6.462   3.312   1.812 -0.5862  1.2334  0.6659
 2929TIP3   OH230277   0.192   3.996   0.312 -0.3743 -0.2287 -0.1974
 2929TIP3    H130278   0.115   3.959   0.354 -0.8349  1.0162  0.0750
 2929TIP3    H230279   0.158   4.053   0.243  0.3290 -0.6823 -0.9305
 2930TIP3   OH230280   0.483   3.779   2.792 -0.2768 -0.0800  0.3016
 2930TIP3    H130281   0.488   3.874   2.801 -0.7175 -0.1461  1.3212
 2930TIP3    H230282   0.414   3.764   2.727  0.0141  0.3024 -0.0966
 2931TIP3   OH230283   6.346   0.565   2.052  0.2222  0.0074  0.2436
 2931TIP3    H130284   6.405   0.564   2.127  0.5299  1.1389  0.0254
 2931TIP3    H230285   6.401   0.536   1.978  0.6000  1.3827 -0.0219
 2932TIP3   OH230286   1.253   0.110   4.919  0.3876 -0.2503  0.2993
 2932TIP3    H130287   1.309   0.049   4.872  0.7580  0.6558 -0.4709
 2932TIP3    H230288   1.180   0.127   4.858  0.5805  0.4995  0.2654
 2933TIP3   OH230289   5.602   0.402  10.909 -0.7653 -0.0827 -0.0921
 2933TIP3    H130290   5.666   0.460  10.950 -1.2354  1.6432 -1.7372
 2933TIP3    H230291   5.527   0.458  10.892 -0.9105 -0.9623 -2.4607
 2934TIP3   OH230292   6.314   0.101   1.598 -0.5233 -0.4966 -0.1145
 2934TIP3    H130293   6.340   0.083   1.508  1.6385 -1.3589  0.6462
 2934TIP3    H230294   6.282   0.018   1.632  1.3919 -0.9057  0.7691
 2935TIP3   OH230295   2.024   0.348   5.855 -0.1045 -0.2557  0.0174
 2935TIP3    H130296   2.105   0.375   5.896  0.3182  0.6011 -1.3450
 2935TIP3    H230297   1.958   0.354   5.924  0.8105 -0.0229  0.8719
 2936TIP3   OH230298   5.707   5.487  14.901 -0.5625  0.6932  0.1808
 2936TIP3    H130299   5.735   5.396  14.901  1.6443  1.3314  0.6539
 2936TIP3    H230300   5.743   5.523  14.819  0.2888  1.6083  0.9392
 2937TIP3   OH230301   6.641   6.657  14.814  0.2141  0.0736  0.2801
 2937TIP3    H130302   6.547   6.674  14.816 -0.3295 -1.9290 -3.4430
 2937TIP3    H230303   6.678   6.732  14.769  0.3006  0.4013  0.8872
 2938TIP3   OH230304   5.282   2.506  11.981 -0.3404  0.2113  0.2949
 2938TIP3    H130305   5.378   2.499  11.977 -0.2627  1.3206  0.0807
 2938TIP3    H230306   5.261   2.489  12.073  0.1417  0.7509  0.5126
 2939TIP3   OH230307   1.531   2.607   1.486 -0.0422 -0.1481 -0.2548
 2939TIP3    H130308   1.508   2.515   1.501 -1.4357  0.2327  0.0852
 2939TIP3    H230309   1.521   2.619   1.391  0.8731 -0.5273 -0.4048
 2940TIP3   OH230310   0.377   5.627   3.100 -0.6502  0.3994  0.1000
 2940TIP3    H130311   0.399   5.545   3.145 -2.0414  0.3004  0.6132
 2940TIP3    H230312   0.457   5.649   3.051  0.1122 -0.6768  0.8248
 2941TIP3   OH230313   5.615   4.896  14.084  0.3771 -0.0799  0.0634
 2941TIP3    H130314   5.566   4.972  14.054 -0.8100 -0.5657  0.7048
 2941TIP3    H230315   5.685   4.931  14.137 -0.0003  0.5772  0.1272
 2942TIP3   OH230316   2.616   5.231  10.711  0.1428  0.1137 -0.1357
 2942TIP3    H130317   2.531   5.214  10.671  0.8762  0.0593 -1.7166
 2942TIP3    H230318   2.660   5.146  10.712  1.0546  0.5485 -1.4707
 2943TIP3   OH230319   5.954   0.641   6.585 -0.3829 -0.1356  0.1426
 2943TIP3    H130320   5.958   0.736   6.574  1.0533 -0.5671 -4.2133
 2943TIP3    H230321   5.863   0.624   6.610 -0.6170  2.3893  1.1441
 2944TIP3   OH230322   3.119   0.123   4.017 -0.5049  0.0153 -0.2781
 2944TIP3    H130323   3.065   0.120   3.938 -0.4631 -1.8416 -0.2702
 2944TIP3    H230324   3.172   0.043   4.013  0.3956  0.5291  1.0022
 2945TIP3   OH230325   5.770   2.529   5.563  0.2513  0.2452  0.5465
 2945TIP3    H130326   5.756   2.622   5.581 -0.9925  0.1607  0.0437
 2945TIP3    H230327   5.758   2.521   5.468  2.1487 -0.1209  0.3076
 2946TIP3   OH230328   0.673   3.202  12.280 -0.0296  0.0078  0.2951
 2946TIP3    H130329   0.590   3.173  12.243 -0.2473  1.4309 -0.3753
 2946TIP3    H230330   0.726   3.122  12.287 -1.8979 -1.1152  1.9513
 2947TIP3   OH230331   4.386   2.507   2.944  0.1494  0.1085  1.0542
 2947TIP3    H130332   4.436   2.518   2.863 -0.0603  0.3901  0.9641
 2947TIP3    H230333   4.321   2.577   2.942 -0.9227 -0.8843  0.6828
 2948TIP3   OH230334   0.154   0.800  10.712 -0.0126  0.3001 -0.7384
 2948TIP3    H130335   0.100   0.722  10.703 -0.3140  0.4068  0.1226
 2948TIP3    H230336   0.145   0.845  10.628 -1.8525  0.6905 -0.3549
 2949TIP3   OH230337   4.629   6.384  13.001  0.4732 -0.3077  0.0995
 2949TIP3    H130338   4.647   6.302  13.049  0.8723 -0.2570  0.0398
 2949TIP3    H230339   4.671   6.371  12.916 -0.6032 -0.5670 -0.3998
 2950TIP3   OH230340   3.217   5.664  14.199  0.6474  0.2430  0.3438
 2950TIP3    H130341   3.262   5.588  14.162 -1.3209 -0.1188 -1.4297
 2950TIP3    H230342   3.126   5.636  14.209 -0.0500  2.2578 -0.0691
 2951TIP3   OH230343   1.936   3.815   6.485 -0.3063  0.1044 -0.2592
 2951TIP3    H130344   1.940   3.733   6.437 -0.3885 -1.4235  2.2732
 2951TIP3    H230345   1.842   3.829   6.501 -0.2987  0.7571 -0.7195
 2952TIP3   OH230346   3.988   6.772   0.194 -0.6049 -0.0285 -0.2582
 2952TIP3    H130347   3.994   6.866   0.211  0.6004 -0.0401 -0.5903
 2952TIP3    H230348   3.992   6.764   0.098  0.9525 -0.5205 -0.1684
 2953TIP3   OH230349   6.179   0.670  15.014 -0.6109 -0.1086 -0.0386
 2953TIP3    H130350   6.224   0.740  15.063 -0.3044 -0.3364  0.0099
 2953TIP3    H230351   6.250   0.614  14.984 -0.8289 -0.1700 -0.4381
 2954TIP3   OH230352   6.273   0.041  15.456  0.0879 -0.1768  0.2951
 2954TIP3    H130353   6.329   0.079  15.387  2.1737 -0.3328  1.8546
 2954TIP3    H230354   6.330  -0.020  15.502 -1.4402 -0.4887  1.8101
 2955TIP3   OH230355   6.030   6.351   5.317 -0.1551  0.0975  0.4018
 2955TIP3    H130356   5.952   6.370   5.369  0.8097  0.7329  1.6450
 2955TIP3    H230357   6.013   6.266   5.277 -2.0530  0.8586 -0.4453
 2956TIP3   OH230358   2.591   4.351  17.188 -0.0866 -0.4039 -0.3063
 2956TIP3    H130359   2.509   4.356  17.237  0.8982 -2.4763  1.6554
 2956TIP3    H230360   2.642   4.426  17.220 -0.1094 -0.7717  0.6099
 2957TIP3   OH230361   5.804   4.529  11.059 -0.3339 -0.4764 -0.1473
 2957TIP3    H130362   5.840   4.587  10.991 -1.0397  0.1817  0.0377
 2957TIP3    H230363   5.823   4.575  11.141 -0.7338 -0.5998  0.0123
 2958TIP3   OH230364   3.554   0.292  14.652 -0.7501  0.3329 -0.2768
 2958TIP3    H130365   3.458   0.295  14.645 -0.8335 -1.3390 -0.1419
 2958TIP3    H230366   3.582   0.247  14.572 -0.1569 -0.0997  0.1698
 2959TIP3   OH230367   1.384   4.078  11.687 -0.3089  0.5325 -0.1696
 2959TIP3    H130368   1.336   3.996  11.670  0.2757  0.2981 -0.7096
 2959TIP3    H230369   1.393   4.080  11.782 -3.5117  1.8021  0.1847
 2960TIP3   OH230370   6.144   4.993  11.030  0.3547  1.0584  0.0357
 2960TIP3    H130371   6.055   5.019  11.054  1.0577  1.3346  2.4843
 2960TIP3    H230372   6.189   5.076  11.013 -0.4570  0.8109 -3.5676
 2961TIP3   OH230373   5.482   2.197  11.966 -0.0897  0.2944  0.0177
 2961TIP3    H130374   5.412   2.133  11.954 -1.0086  1.2819 -0.0206
 2961TIP3    H230375   5.490   2.205  12.061  0.1586 -0.0168  0.0234
 2962TIP3   OH230376   5.166   2.576  15.186  0.2785 -0.2501  0.2591
 2962TIP3    H130377   5.178   2.485  15.157  1.4946 -0.3610  1.0706
 2962TIP3    H230378   5.175   2.571  15.281  1.6151  0.9041  0.2082
 2963TIP3   OH230379   4.812   5.013   2.442 -0.6790 -0.2518  0.1309
 2963TIP3    H130380   4.757   4.935   2.447  0.4277 -1.2182 -2.0697
 2963TIP3    H230381   4.768   5.069   2.377  0.5178 -0.7355 -1.1304
 2964TIP3   OH230382   5.079   2.980   5.643 -0.3309  0.0792  0.2406
 2964TIP3    H130383   4.986   2.970   5.621 -0.4852  0.4850  0.6870
 2964TIP3    H230384   5.104   2.895   5.680 -0.8305  0.3341  1.1807
 2965TIP3   OH230385   0.640   2.982  11.410  0.3753 -0.5435  0.6680
 2965TIP3    H130386   0.647   2.893  11.375  1.4510 -0.5074  0.7932
 2965TIP3    H230387   0.730   3.014  11.414 -0.0647  0.8258 -0.0710
 2966TIP3   OH230388   3.970   6.089   6.050 -0.2061  0.2417  0.0296
 2966TIP3    H130389   4.046   6.114   6.103  0.4252  1.5310 -1.4683
 2966TIP3    H230390   3.896   6.102   6.109  0.6546 -0.3451  1.2805
 2967TIP3   OH230391   2.397   5.198   2.963 -0.2206  0.3512 -0.1379
 2967TIP3    H130392   2.393   5.136   2.890 -0.4141  0.0023  0.1627
 2967TIP3    H230393   2.306   5.215   2.985 -0.1805 -1.1519  1.3452
 2968TIP3   OH230394   5.970   0.032   4.923 -0.2567  0.2463  0.3121
 2968TIP3    H130395   6.047   0.077   4.889 -0.5268  0.9585  0.6413
 2968TIP3    H230396   5.896   0.081   4.887 -0.5495  1.2332  2.2048
 2969TIP3   OH230397   3.172   2.986  16.522  0.1293  0.3598 -0.2373
 2969TIP3    H130398   3.227   3.064  16.531  1.1729 -0.6064  2.0961
 2969TIP3    H230399   3.083   3.020  16.520  0.5896  1.6567  0.2124
 2970TIP3   OH230400   1.127   1.256   3.446  0.6965  0.1881 -0.3180
 2970TIP3    H130401   1.092   1.253   3.535 -0.0846 -1.2754 -0.6604
 2970TIP3    H230402   1.208   1.307   3.454  0.2579  0.6902  1.0921
 2971TIP3   OH230403   0.330   5.005  14.666  0.2030 -0.4173 -0.1896
 2971TIP3    H130404   0.328   5.041  14.755  2.0076  0.7019 -0.5775
 2971TIP3    H230405   0.249   4.956  14.659 -0.6001  0.5765  1.6276
 2972TIP3   OH230406   3.075   4.600   0.726 -0.2366 -0.1921  0.2030
 2972TIP3    H130407   2.979   4.598   0.730 -0.2076 -0.5220  0.8671
 2972TIP3    H230408   3.101   4.512   0.753  0.2352 -0.3534 -0.7553
 2973TIP3   OH230409   0.947   4.351  11.787  0.3840  0.2590  0.0047
 2973TIP3    H130410   0.975   4.276  11.734  1.4076  0.1224  0.7124
 2973TIP3    H230411   1.029   4.388  11.819 -0.2232  0.4664  1.3257
 2974TIP3   OH230412   0.575   5.881  15.003  0.1592 -0.2738  0.0653
 2974TIP3    H130413   0.581   5.976  14.999  1.6650 -0.3657 -0.1658
 2974TIP3    H230414   0.568   5.861  15.096 -0.5155  0.0759  0.0921
 2975TIP3   OH230415   1.051   4.296  12.980 -0.1573 -0.2814 -0.3358
 2975TIP3    H130416   1.031   4.224  13.041  1.4373 -0.5101 -0.0692
 2975TIP3    H230417   1.038   4.375  13.033 -0.4041 -0.4207 -0.1842
 2976TIP3   OH230418   2.922   2.286   0.577  0.3529 -0.5544  0.5822
 2976TIP3    H130419   2.957   2.197   0.581  0.3695 -0.4728  2.9924
 2976TIP3    H230420   2.897   2.306   0.667  1.7401  2.4326  0.3789
 2977TIP3   OH230421   1.344   3.139  11.691 -0.1659 -0.3710 -0.3574
 2977TIP3    H130422   1.256   3.106  11.671 -1.0643  0.3848  2.1835
 2977TIP3    H230423   1.333   3.234  11.693  0.4701 -0.3292  1.0476
 2978TIP3   OH230424   0.247   0.923   1.196  0.1979 -0.2049 -0.7324
 2978TIP3    H130425   0.176   0.925   1.261 -1.1369 -0.7662 -2.1596
 2978TIP3    H230426   0.314   0.983   1.232  0.2979 -1.9138  2.0715
 2979TIP3   OH230427   5.886   3.407   0.884  0.3751 -0.1346  1.0233
 2979TIP3    H130428   5.911   3.316   0.864  0.3819 -0.1665  1.1752
 2979TIP3    H230429   5.969   3.453   0.894  0.3872 -0.5257  2.8180
 2980TIP3   OH230430   4.202   3.238  16.884 -0.0168 -0.7641  0.5575
 2980TIP3    H130431   4.133   3.296  16.917 -1.3730 -1.2547 -1.3262
 2980TIP3    H230432   4.196   3.245  16.789  1.7306 -1.7665  0.3481
 2981TIP3   OH230433   5.872   0.108  11.732 -0.2024 -0.2439  0.9168
 2981TIP3    H130434   5.889   0.014  11.725  0.9700  0.0296  0.0570
 2981TIP3    H230435   5.796   0.123  11.677  1.2281 -0.2602 -1.1291
 2982TIP3   OH230436   4.960   4.398   3.461 -0.0203  0.1438 -0.1006
 2982TIP3    H130437   4.915   4.327   3.506 -1.0724  0.9100  0.0917
 2982TIP3    H230438   4.965   4.369   3.370  0.8614 -0.8009  0.2462
 2983TIP3   OH230439   1.873   0.849   5.416  0.1845  0.8835 -0.2681
 2983TIP3    H130440   1.796   0.802   5.383  0.1860  0.0119  0.8915
 2983TIP3    H230441   1.846   0.940   5.422 -0.7996  0.5669  0.1966
 2984TIP3   OH230442   6.179   6.126   2.971 -0.1658 -0.2732 -0.2954
 2984TIP3    H130443   6.101   6.086   3.009  1.3939 -2.3066  0.8788
 2984TIP3    H230444   6.245   6.119   3.040  1.6967 -0.6938 -2.0719
 2985TIP3   OH230445   6.696   5.599  11.981  0.5093 -0.0956 -0.2931
 2985TIP3    H130446   6.684   5.620  11.889 -0.2470  2.8501  0.4298
 2985TIP3    H230447   6.791   5.589  11.991  0.6870  0.7027 -1.1453
 2986TIP3   OH230448   4.641   4.707  11.595 -0.6660 -0.5591 -0.0850
 2986TIP3    H130449   4.651   4.737  11.685 -0.5885 -1.2168  0.1251
 2986TIP3    H230450   4.606   4.619  11.602 -2.0419 -0.0803 -0.7388
 2987TIP3   OH230451   5.909   1.299   4.346 -0.4425  0.2745 -0.5436
 2987TIP3    H130452   5.873   1.339   4.426 -1.2871 -1.4622 -0.0273
 2987TIP3    H230453   5.835   1.296   4.286 -0.5478 -1.0004 -0.3723
 2988TIP3   OH230454   5.178   4.423   4.825  0.3857  0.5298 -0.2823
 2988TIP3    H130455   5.273   4.416   4.815  0.0264 -2.3043 -2.1187
 2988TIP3    H230456   5.161   4.387   4.912  0.8278 -0.5207 -0.6280
 2989TIP3   OH230457   1.886   2.580   5.116 -0.2366 -0.3511  0.2784
 2989TIP3    H130458   1.961   2.623   5.074 -0.8294 -1.9656 -2.5967
 2989TIP3    H230459   1.839   2.651   5.158  0.3584  1.4400 -1.9341
 2990TIP3   OH230460   2.613   6.237  15.137  0.1349 -0.2416 -0.8252
 2990TIP3    H130461   2.570   6.293  15.201  0.7678  0.8671 -1.3634
 2990TIP3    H230462   2.649   6.297  15.072 -1.0371 -1.3528 -2.5805
 2991TIP3   OH230463   0.151   1.979  13.864  0.4166  0.3434 -0.5773
 2991TIP3    H130464   0.149   2.036  13.941  1.9418 -0.5413  0.1471
 2991TIP3    H230465   0.200   2.029  13.798 -0.9593  1.1342 -1.0081
 2992TIP3   OH230466   0.076   2.809  16.823  0.2784 -0.1684 -0.0126
 2992TIP3    H130467  -0.003   2.784  16.871  0.2129 -0.9535 -0.5082
 2992TIP3    H230468   0.103   2.728  16.779  1.8201 -0.1032  0.7930
 2993TIP3   OH230469   6.493   2.464   3.282 -0.3377 -0.9130 -0.4237
 2993TIP3    H130470   6.485   2.383   3.334 -1.9206  0.7835  2.1118
 2993TIP3    H230471   6.584   2.491   3.295 -0.4934 -0.9457  0.8430
 2994TIP3   OH230472   4.774   5.758   4.473 -0.0782 -0.7202  0.0377
 2994TIP3    H130473   4.865   5.773   4.446  0.4631 -1.5430  1.3675
 2994TIP3    H230474   4.753   5.834   4.528 -0.3696 -0.2693 -0.6935
 2995TIP3   OH230475   6.730   6.692  12.199 -0.4878  0.1016  0.6695
 2995TIP3    H130476   6.678   6.614  12.219 -1.3424  0.9133  1.6796
 2995TIP3    H230477   6.817   6.672  12.235 -0.0464 -1.3009 -1.1136
 2996TIP3   OH230478   1.665   5.630  12.813 -0.0701  0.0803  0.1592
 2996TIP3    H130479   1.710   5.568  12.756 -3.0011 -2.2328  0.2115
 2996TIP3    H230480   1.719   5.636  12.891  1.6975 -0.1707 -1.0109
 2997TIP3   OH230481   6.613   5.425   4.334  0.0564  0.3830  0.2980
 2997TIP3    H130482   6.607   5.443   4.240  1.1067 -2.9241 -0.4779
 2997TIP3    H230483   6.576   5.337   4.345  0.1513  0.6170  2.9459
 2998TIP3   OH230484   4.785   3.563   4.706 -0.1125 -0.0842 -0.0346
 2998TIP3    H130485   4.763   3.652   4.681  0.8884  0.2573  0.2720
 2998TIP3    H230486   4.734   3.547   4.786 -1.0504 -0.1448 -0.6406
 2999TIP3   OH230487   4.731   5.442   1.282  0.1581 -0.4269 -0.0591
 2999TIP3    H130488   4.647   5.489   1.277  0.7090  0.3948 -2.9963
 2999TIP3    H230489   4.723   5.386   1.359 -3.3463 -0.8528 -0.6451
 3000TIP3   OH230490   3.742   6.752  11.628  0.1013 -0.3734 -0.1844
 3000TIP3    H130491   3.787   6.832  11.655  0.6315 -0.8592  0.4048
 3000TIP3    H230492   3.705   6.773  11.543 -1.0628  0.9908  0.6319
 3001TIP3   OH230493   3.107   4.335   0.811 -0.1079  0.0337 -0.1804
 3001TIP3    H130494   3.186   4.309   0.858 -0.5050 -0.9085 -0.0308
 3001TIP3    H230495   3.057   4.386   0.875  0.7990  1.4325 -0.5640
 3002TIP3   OH230496   5.001   3.990  12.003 -0.0172 -0.5451 -0.0356
 3002TIP3    H130497   4.947   3.922  11.963 -1.6289  0.1268  0.9585
 3002TIP3    H230498   4.971   4.071  11.962 -0.9823  0.0334  1.7554
 3003TIP3   OH230499   3.786   6.011  12.698  0.1570  0.3021  0.0727
 3003TIP3    H130500   3.740   5.966  12.770 -0.5908 -0.6157 -0.9620
 3003TIP3    H230501   3.739   5.984  12.619  1.2238  0.9793 -0.8057
 3004TIP3   OH230502   3.313   2.376  11.999 -0.8323 -0.1951 -0.0482
 3004TIP3    H130503   3.253   2.413  11.934 -0.6463 -2.0855 -1.3261
 3004TIP3    H230504   3.398   2.374  11.955  0.0778  1.8206  1.5170
 3005TIP3   OH230505   3.022   5.812   4.715  0.0103 -0.0228  0.0988
 3005TIP3    H130506   2.994   5.853   4.796  0.2818 -0.8907  0.6484
 3005TIP3    H230507   2.948   5.821   4.656 -0.8588 -0.9311  1.0293
 3006TIP3   OH230508   5.565   5.560  16.711  0.4140  0.2175  0.3849
 3006TIP3    H130509   5.644   5.529  16.754  1.2201 -0.4171 -1.4756
 3006TIP3    H230510   5.510   5.482  16.702  1.7590 -0.4493 -2.8425
 3007TIP3   OH230511   5.884   6.257  14.251 -0.3280  0.4318  0.1749
 3007TIP3    H130512   5.843   6.189  14.305  2.0497  0.0984  1.6093
 3007TIP3    H230513   5.955   6.212  14.206 -0.2735  1.4476 -0.7720
 3008TIP3   OH230514   0.689   3.822   4.166  0.6414 -0.1982 -0.3711
 3008TIP3    H130515   0.620   3.856   4.222  0.4623 -1.7943  0.4221
 3008TIP3    H230516   0.758   3.889   4.169 -0.7821  1.3173 -1.0296
 3009TIP3   OH230517   4.256   4.225  12.295 -0.0546  0.0926  0.5015
 3009TIP3    H130518   4.322   4.237  12.363 -1.4702  1.0718  1.7256
 3009TIP3    H230519   4.272   4.136  12.263  1.0724 -0.1340  1.6196
 3010TIP3   OH230520   0.335   5.840   3.894 -0.4262 -0.6854  0.8960
 3010TIP3    H130521   0.298   5.900   3.958 -0.0946  1.6885 -1.0816
 3010TIP3    H230522   0.419   5.814   3.931 -0.3723  0.4198  1.5553
 3011TIP3   OH230523   1.859   6.148   4.777  0.1059 -0.3730 -0.7374
 3011TIP3    H130524   1.798   6.109   4.839  0.3618  0.0191 -0.2250
 3011TIP3    H230525   1.874   6.081   4.711  2.6025 -2.1691  1.5486
 3012TIP3   OH230526   2.441   3.488  16.604 -0.0863 -0.5450 -0.3744
 3012TIP3    H130527   2.379   3.519  16.671  1.1646 -1.0012  1.0348
 3012TIP3    H230528   2.479   3.568  16.568 -0.1637 -0.3112  0.0542
 3013TIP3   OH230529   1.892   4.715   2.268 -0.0250  0.8799  0.0765
 3013TIP3    H130530   1.861   4.624   2.263  1.4730  0.4135 -1.2291
 3013TIP3    H230531   1.966   4.718   2.208  0.4690  2.7749  0.7510
 3014TIP3   OH230532   1.331   1.776   0.851 -0.4470  0.1871  0.2530
 3014TIP3    H130533   1.300   1.791   0.762 -1.6334  0.0428  0.6224
 3014TIP3    H230534   1.403   1.714   0.842 -0.9248 -0.2601 -0.5656
 3015TIP3   OH230535   4.355   6.265   2.620  0.4275 -0.5667 -0.1212
 3015TIP3    H130536   4.323   6.175   2.627  1.4531 -1.0866 -1.8967
 3015TIP3    H230537   4.442   6.257   2.582  0.3115  1.2195 -0.7913
 3016TIP3   OH230538   5.154   5.366  16.380 -0.0704 -0.0514  0.3127
 3016TIP3    H130539   5.124   5.278  16.360  0.8983 -0.3608  0.1882
 3016TIP3    H230540   5.184   5.401  16.296  1.4016 -0.3404  0.6949
 3017TIP3   OH230541   2.010   1.782   6.273 -0.3645 -0.2656  0.1965
 3017TIP3    H130542   1.929   1.833   6.277  0.6800  1.5641 -0.8000
 3017TIP3    H230543   2.064   1.817   6.344 -0.0934 -0.8174  0.2635
 3018TIP3   OH230544   3.787   3.590  16.677 -0.5970 -0.1308  0.6971
 3018TIP3    H130545   3.738   3.632  16.606  0.3045  1.6942  1.1051
 3018TIP3    H230546   3.727   3.594  16.752 -0.8574 -0.3824  0.5010
 3019TIP3   OH230547   4.950   0.274   2.568  0.1150  0.0249 -0.0132
 3019TIP3    H130548   4.969   0.344   2.507  0.0622  1.2838  1.3904
 3019TIP3    H230549   5.029   0.220   2.569 -0.2098 -0.4878 -1.8234
 3020TIP3   OH230550   3.787   1.828  11.586  0.1658 -0.0111  0.0393
 3020TIP3    H130551   3.841   1.877  11.647  0.1212 -1.4681  1.2760
 3020TIP3    H230552   3.742   1.895  11.534  1.4963  1.2180  0.4447
 3021TIP3   OH230553   2.776   5.867   4.037 -0.0343  0.0117  0.0563
 3021TIP3    H130554   2.708   5.934   4.029 -0.3992 -0.3477  0.1572
 3021TIP3    H230555   2.857   5.917   4.044 -0.0969  0.4316 -1.7707
 3022TIP3   OH230556   1.175   2.541  13.655 -0.4602 -0.3258  0.5496
 3022TIP3    H130557   1.248   2.491  13.692  0.9099  0.6268 -0.8313
 3022TIP3    H230558   1.161   2.504  13.568  0.5820  1.6613 -0.4989
 3023TIP3   OH230559   0.760   0.058  12.371  0.1794  0.2481 -0.1637
 3023TIP3    H130560   0.818  -0.008  12.332 -0.3259 -0.5153  0.3794
 3023TIP3    H230561   0.735   0.114  12.297  0.8616  0.0192 -0.5707
 3024TIP3   OH230562   3.140   0.773  14.551 -0.3844 -0.2350 -0.6536
 3024TIP3    H130563   3.104   0.701  14.603 -1.2549 -0.6317 -1.7688
 3024TIP3    H230564   3.070   0.794  14.489  0.0460  1.2661 -0.6404
 3025TIP3   OH230565   1.292   2.404   0.823  0.2942  0.2135 -0.0439
 3025TIP3    H130566   1.280   2.420   0.916 -0.1418  1.1947 -0.2663
 3025TIP3    H230567   1.251   2.319   0.808  0.4400  0.0158  0.6732
 3026TIP3   OH230568   2.325   3.523  12.298  0.7222 -0.2502 -0.2133
 3026TIP3    H130569   2.270   3.452  12.332 -0.2940  0.9860  0.7377
 3026TIP3    H230570   2.302   3.599  12.350  1.9941  0.7427 -1.0660
 3027TIP3   OH230571   5.468   5.521  12.907  0.2800 -0.1364  0.4327
 3027TIP3    H130572   5.465   5.616  12.894  1.0662 -0.0557  0.8028
 3027TIP3    H230573   5.538   5.508  12.971  0.4847 -1.0037  0.0370
 3028TIP3   OH230574   3.823   0.072   5.034  0.0160  0.3008 -0.1464
 3028TIP3    H130575   3.847  -0.011   4.992  1.5282  0.7627 -0.2393
 3028TIP3    H230576   3.728   0.076   5.026 -0.0758 -1.3929 -0.2018
 3029TIP3   OH230577   4.875   5.994  14.725 -0.2948  0.2724 -0.4122
 3029TIP3    H130578   4.795   5.951  14.696  0.8051 -1.4691 -0.8907
 3029TIP3    H230579   4.872   5.989  14.821  0.4654 -2.0565 -0.4992
 3030TIP3   OH230580   1.401   0.855  11.200 -0.0974  0.3002 -0.1503
 3030TIP3    H130581   1.428   0.910  11.273  0.8269  1.4501 -1.3546
 3030TIP3    H230582   1.424   0.766  11.228 -0.3340  0.6509  1.2082
 3031TIP3   OH230583   0.042   3.878  12.571  0.2605 -0.0963 -0.6370
 3031TIP3    H130584   0.047   3.961  12.617 -0.7297  0.5953 -1.7534
 3031TIP3    H230585  -0.009   3.821  12.630  0.4558  0.2597 -0.1249
 3032TIP3   OH230586   3.775   5.365  17.138 -0.1950  0.1327  0.5816
 3032TIP3    H130587   3.752   5.457  17.139 -0.3357  0.0990  0.4429
 3032TIP3    H230588   3.735   5.331  17.058 -2.7616 -0.7136  2.1482
 3033TIP3   OH230589   2.549   0.815   4.289  0.3290 -0.3790  0.4465
 3033TIP3    H130590   2.465   0.856   4.308  0.2712  0.3704 -1.3354
 3033TIP3    H230591   2.530   0.752   4.219  0.7613 -2.1392  1.8658
 3034TIP3   OH230592   6.724   5.175   5.183  0.3868  0.7076 -0.2864
 3034TIP3    H130593   6.710   5.234   5.109  3.0423  0.9396 -0.6863
 3034TIP3    H230594   6.820   5.166   5.187  0.0953 -2.5317  0.5617
 3035TIP3   OH230595   2.696   4.684  13.018 -0.0992 -0.2048  0.2238
 3035TIP3    H130596   2.686   4.676  12.923  0.8288 -2.1847  0.2566
 3035TIP3    H230597   2.628   4.746  13.045 -0.1971  0.5908 -1.7577
 3036TIP3   OH230598   4.884   4.790  11.478 -0.0152  0.1612  0.3473
 3036TIP3    H130599   4.798   4.760  11.508  1.2318 -3.1596  0.8088
 3036TIP3    H230600   4.865   4.841  11.399 -2.5047  0.6868  1.2361
 3037TIP3   OH230601   0.867   0.916   1.799 -0.1000  0.0422  0.0096
 3037TIP3    H130602   0.933   0.940   1.865  1.5999 -1.1777 -1.1926
 3037TIP3    H230603   0.889   0.826   1.775 -2.5297 -0.5398 -0.0736
 3038TIP3   OH230604   2.744   2.575  14.641  0.1524 -0.2946 -0.4325
 3038TIP3    H130605   2.827   2.587  14.686 -0.6041 -0.7701  1.1138
 3038TIP3    H230606   2.715   2.664  14.619 -0.0061  0.0150  1.0085
 3039TIP3   OH230607   5.297   3.905   5.405 -0.1510  0.4036  0.3428
 3039TIP3    H130608   5.360   3.852   5.453 -0.1639  1.0238  1.0573
 3039TIP3    H230609   5.317   3.889   5.313  0.6761  0.1575  0.5601
 3040TIP3   OH230610   6.201   1.182   0.013  0.7979  0.0353 -0.0862
 3040TIP3    H130611   6.276   1.236  -0.010 -0.2597  0.9649 -1.3976
 3040TIP3    H230612   6.230   1.132   0.089  2.1009  1.7688  0.5744
 3041TIP3   OH230613   5.133   1.097  12.271  0.6178 -0.1605  0.3422
 3041TIP3    H130614   5.051   1.067  12.233  0.7087 -0.1593  0.1480
 3041TIP3    H230615   5.189   1.118  12.197  0.5997  0.3762  0.4730
 3042TIP3   OH230616   4.124   3.266   5.559  0.3913 -0.1372 -0.3721
 3042TIP3    H130617   4.074   3.299   5.484  0.9402 -0.0456 -0.7006
 3042TIP3    H230618   4.085   3.309   5.635 -0.9963 -1.1753 -0.4586
 3043TIP3   OH230619   0.900   2.979  16.716  0.4509 -0.3033 -0.2458
 3043TIP3    H130620   0.909   2.891  16.680  0.4425  0.3643 -1.9277
 3043TIP3    H230621   0.987   3.001  16.748  0.1467 -1.4317  1.4249
 3044TIP3   OH230622   0.500   1.946  16.163  0.6535 -0.4418 -0.5775
 3044TIP3    H130623   0.558   2.021  16.180 -0.3237  0.3895 -0.8459
 3044TIP3    H230624   0.537   1.875  16.217  0.5231  0.7492  1.1421
 3045TIP3   OH230625   5.796   0.425  16.217  0.1972  0.6452  0.6193
 3045TIP3    H130626   5.829   0.514  16.227  0.2675  0.8513 -1.2582
 3045TIP3    H230627   5.702   0.432  16.234  0.2697  0.9855  0.8953
 3046TIP3   OH230628   2.983   2.485   1.687 -0.1886 -0.0544 -0.2656
 3046TIP3    H130629   2.980   2.443   1.601 -0.1173 -2.4194  0.8228
 3046TIP3    H230630   3.049   2.553   1.679 -0.6766  0.1999 -2.2722
 3047TIP3   OH230631   3.294   3.436   2.758  0.1806  0.0279 -0.0757
 3047TIP3    H130632   3.291   3.356   2.810 -2.3053  1.2852  1.8787
 3047TIP3    H230633   3.300   3.506   2.824 -0.4202  1.5470 -1.6140
 3048TIP3   OH230634   0.769   6.592   1.593 -0.1314  0.1024 -0.7508
 3048TIP3    H130635   0.723   6.657   1.540 -0.4061  0.6282  0.1150
 3048TIP3    H230636   0.821   6.643   1.654 -0.7102 -0.4780  0.2506
 3049TIP3   OH230637   6.643   1.116  14.892  0.0719 -0.1404 -0.7284
 3049TIP3    H130638   6.716   1.064  14.858  0.2636 -0.3805  0.0413
 3049TIP3    H230639   6.644   1.100  14.986 -0.4421  0.5341 -0.6035
 3050TIP3   OH230640   5.777   2.547   4.090  0.5012  0.4068 -0.3672
 3050TIP3    H130641   5.857   2.587   4.055  1.5702 -0.1541  1.3769
 3050TIP3    H230642   5.801   2.456   4.108 -0.5877  0.1748 -0.0486
 3051TIP3   OH230643   0.338   2.320  15.401  0.4254  0.1637  0.8727
 3051TIP3    H130644   0.279   2.261  15.354  1.3132 -0.7379  0.8622
 3051TIP3    H230645   0.387   2.366  15.333 -0.3475  1.0043  0.8792
 3052TIP3   OH230646   0.980   4.324  10.677  0.0125  0.0270  0.1166
 3052TIP3    H130647   1.055   4.267  10.658 -1.3986 -1.7790 -0.1689
 3052TIP3    H230648   0.974   4.380  10.600 -0.3644 -1.4313 -0.9413
 3053TIP3   OH230649   1.417   3.636   2.135  0.1993  0.5992  0.0319
 3053TIP3    H130650   1.508   3.663   2.121 -0.0219  1.8756  0.9724
 3053TIP3    H230651   1.378   3.708   2.185 -1.6720  0.6286 -1.4226
 3054TIP3   OH230652   4.539   1.826  14.663 -0.2059  0.8586 -0.3237
 3054TIP3    H130653   4.610   1.887  14.643  1.5576 -1.3645 -1.1301
 3054TIP3    H230654   4.573   1.774  14.736  0.1961 -2.0467 -2.4762
 3055TIP3   OH230655   6.316   3.000   4.675  0.3022 -0.2295 -0.4034
 3055TIP3    H130656   6.284   3.007   4.585  1.1629 -1.8383 -0.8437
 3055TIP3    H230657   6.295   3.085   4.714 -1.9367 -0.2443 -1.5037
 3056TIP3   OH230658   1.594   1.401   2.712 -0.1872  0.1928  0.0964
 3056TIP3    H130659   1.683   1.433   2.724 -0.1854  1.3331 -2.5702
 3056TIP3    H230660   1.551   1.415   2.796  1.5148  1.7127  0.7404
 3057TIP3   OH230661   6.086   0.340  16.329 -0.2654  0.8722  0.1878
 3057TIP3    H130662   6.004   0.371  16.368 -0.3328  0.7107  0.1766
 3057TIP3    H230663   6.086   0.245  16.346 -1.5381  0.3467 -2.4435
 3058TIP3   OH230664   4.077   6.079  14.537  0.5020  0.4450  0.9203
 3058TIP3    H130665   4.007   6.038  14.485  0.6814  1.6088 -0.2565
 3058TIP3    H230666   4.041   6.084  14.625 -0.5150  0.1282  0.5381
 3059TIP3   OH230667   2.672   3.466  12.397  0.3642  0.3378 -0.3995
 3059TIP3    H130668   2.760   3.431  12.383 -0.4918 -1.4250 -1.4831
 3059TIP3    H230669   2.655   3.450  12.490  0.3932 -1.2473 -0.6457
 3060TIP3   OH230670   1.838   4.091   4.797  0.1508  0.5271  0.6426
 3060TIP3    H130671   1.789   4.009   4.802  0.5651  0.2526  0.2233
 3060TIP3    H230672   1.772   4.160   4.803 -0.3536  0.1597 -0.7014
 3061TIP3   OH230673   2.958   1.316   4.027 -0.1785  0.1204 -0.0857
 3061TIP3    H130674   3.019   1.329   4.099  1.1049  0.1121 -1.1435
 3061TIP3    H230675   2.987   1.235   3.985 -1.0017  0.0451 -0.5244
 3062TIP3   OH230676   0.914   1.145   4.864 -0.3644 -0.4369 -0.0966
 3062TIP3    H130677   0.840   1.188   4.820 -0.1164  1.1017  0.9489
 3062TIP3    H230678   0.936   1.072   4.806 -1.4700  0.2219 -1.4001
 3063TIP3   OH230679   3.575   2.917   1.911  0.1780  0.2560  0.0355
 3063TIP3    H130680   3.634   2.991   1.900  1.5551 -0.5663  1.7574
 3063TIP3    H230681   3.615   2.863   1.980 -2.1006 -0.7768  0.6083
 3064TIP3   OH230682   4.605   2.915  12.731  0.0896  0.4372  0.7915
 3064TIP3    H130683   4.687   2.965  12.736  1.4057 -1.4678 -0.8302
 3064TIP3    H230684   4.558   2.954  12.658  0.5444  0.1157  0.3260
 3065TIP3   OH230685   0.436   4.274  12.937 -0.4488  0.2464  0.3892
 3065TIP3    H130686   0.474   4.296  13.022 -1.2550  0.1148  0.7834
 3065TIP3    H230687   0.346   4.249  12.956 -0.0897 -1.6132 -0.2727
 3066TIP3   OH230688   3.611   2.976   1.219 -0.1851 -0.8379 -0.1641
 3066TIP3    H130689   3.546   3.029   1.173 -0.6234 -0.0561  1.3178
 3066TIP3    H230690   3.618   2.896   1.167 -0.6110  0.0445 -1.6135
 3067TIP3   OH230691   1.968   1.106  12.067 -0.2694 -0.4988 -0.4246
 3067TIP3    H130692   1.955   1.166  11.993 -0.4981  2.1431  1.6979
 3067TIP3    H230693   1.880   1.092  12.102  0.2658  1.6101  1.8691
 3068TIP3   OH230694   2.226   4.846  12.061  0.5145 -0.2396 -0.4299
 3068TIP3    H130695   2.167   4.910  12.020 -0.9313 -0.3478  1.4433
 3068TIP3    H230696   2.256   4.792  11.988 -0.2144  0.9991 -1.6879
 3069TIP3   OH230697   4.062   1.430  12.619  0.2584  0.0277 -0.3691
 3069TIP3    H130698   3.973   1.466  12.612  0.0738 -0.4903 -0.6866
 3069TIP3    H230699   4.049   1.335  12.622  0.7234  0.0065  0.8689
 3070TIP3   OH230700   4.919   3.955   6.468 -0.2416  0.0780  0.5095
 3070TIP3    H130701   4.978   3.924   6.536  0.3404 -0.5368 -0.2558
 3070TIP3    H230702   4.868   3.877   6.444  0.4610 -0.0350 -0.6596
 3071TIP3   OH230703   5.312   0.955   0.041 -0.3819 -0.0291 -0.4596
 3071TIP3    H130704   5.335   1.033   0.091 -2.0967  0.0069  0.3040
 3071TIP3    H230705   5.285   0.891   0.106 -0.8545 -0.6068 -1.2112
 3072TIP3   OH230706   5.442   3.068  11.313  0.4268 -0.1911  0.4124
 3072TIP3    H130707   5.533   3.058  11.288  0.8002 -0.9465  1.9961
 3072TIP3    H230708   5.445   3.113  11.398 -0.7053  0.6033  0.0435
 3073TIP3   OH230709   1.681   0.399   2.796  0.0413 -0.4991  0.3757
 3073TIP3    H130710   1.631   0.415   2.716  1.8941  3.4712 -0.1267
 3073TIP3    H230711   1.766   0.367   2.765  0.2495 -0.3891  0.8272
 3074TIP3   OH230712   3.726   4.917   1.646  0.2242  0.5295 -0.1677
 3074TIP3    H130713   3.733   4.982   1.576  0.8905  0.5435 -0.0881
 3074TIP3    H230714   3.712   4.834   1.600 -0.6931  0.7351 -0.2679
 3075TIP3   OH230715   1.012   4.143  11.576 -0.4869 -1.0083 -0.5927
 3075TIP3    H130716   1.078   4.204  11.543 -0.9893  0.1993  0.5697
 3075TIP3    H230717   0.961   4.118  11.499 -0.4862  0.3143 -1.0372
 3076TIP3   OH230718   0.287   2.021   6.015  0.2570  0.4194 -0.1977
 3076TIP3    H130719   0.279   2.036   6.110  0.8166  0.2544 -0.1256
 3076TIP3    H230720   0.224   1.951   5.997 -0.2836  0.8654 -0.0496
 3077TIP3   OH230721   5.666   6.488  11.916  0.3676  0.0713 -0.0760
 3077TIP3    H130722   5.627   6.432  11.849  0.3667 -0.4051  0.3246
 3077TIP3    H230723   5.666   6.435  11.995  0.5297  0.5721  0.2658
 3078TIP3   OH230724   5.059   4.240  17.058  0.0095  1.0350 -0.6889
 3078TIP3    H130725   5.145   4.199  17.068 -0.4373  0.4353  0.7243
 3078TIP3    H230726   5.079   4.333  17.048  0.7368  1.0931  1.2400
 3079TIP3   OH230727   5.042   2.088  15.407  0.2270  0.0412  0.7248
 3079TIP3    H130728   5.034   2.047  15.320 -0.7681  2.4539 -0.3649
 3079TIP3    H230729   5.032   2.016  15.468 -0.1038 -1.5661 -1.1591
 3080TIP3   OH230730   0.917   1.431  14.218 -0.5470 -0.5420  0.2953
 3080TIP3    H130731   0.971   1.365  14.263  0.1557 -0.1029  0.1081
 3080TIP3    H230732   0.874   1.479  14.288 -0.1583 -0.4494  0.4726
 3081TIP3   OH230733   1.785   0.799   5.794  0.1219  0.0800  0.0973
 3081TIP3    H130734   1.705   0.804   5.742  0.2958 -1.8448 -0.3893
 3081TIP3    H230735   1.840   0.736   5.747  1.0078 -0.3294  1.6493
 3082TIP3   OH230736   0.183   0.827   5.003  0.4319  0.0124  0.3842
 3082TIP3    H130737   0.100   0.805   4.962 -0.5705  1.0976  1.7580
 3082TIP3    H230738   0.187   0.771   5.081  2.8036 -2.7957 -1.6459
 3083TIP3   OH230739   3.305   4.000   2.677 -0.1638  0.6821  0.3678
 3083TIP3    H130740   3.394   4.015   2.710  0.2411 -0.7172 -0.0603
 3083TIP3    H230741   3.270   3.931   2.733 -0.8473  0.9842  0.3053
 3084TIP3   OH230742   3.502   6.173   0.893  0.0173  0.3338  0.1740
 3084TIP3    H130743   3.563   6.222   0.948 -0.8710  2.5583 -0.7559
 3084TIP3    H230744   3.558   6.118   0.838  1.0107 -0.0903  1.5903
 3085TIP3   OH230745   6.582   1.280  14.197  0.5576 -0.2107 -0.3987
 3085TIP3    H130746   6.644   1.268  14.269 -2.0505 -1.2742  1.7816
 3085TIP3    H230747   6.553   1.191  14.177 -2.1071  0.4445  0.3680
 3086TIP3   OH230748   0.245   4.191  10.789  0.1531 -0.2124 -0.5342
 3086TIP3    H130749   0.303   4.162  10.718 -0.4449  1.9018 -1.9391
 3086TIP3    H230750   0.187   4.255  10.747  1.1779  2.6999  2.3576
 3087TIP3   OH230751   1.412   2.452  11.875  0.3690 -0.2542  0.0423
 3087TIP3    H130752   1.435   2.483  11.787 -2.2957  0.8837 -0.3189
 3087TIP3    H230753   1.454   2.513  11.934 -1.0759  1.3636 -0.5664
 3088TIP3   OH230754   3.595   0.979  13.774 -0.4668 -0.1105  0.3699
 3088TIP3    H130755   3.501   0.984  13.794 -0.3509 -0.7222  1.0610
 3088TIP3    H230756   3.609   1.048  13.709 -1.1308  0.9015  1.2853
 3089TIP3   OH230757   4.226   5.277  12.711  0.3880  0.3572  0.1248
 3089TIP3    H130758   4.155   5.300  12.651  0.1711  0.1643  0.3059
 3089TIP3    H230759   4.293   5.238  12.654 -0.1144 -0.4887  0.0980
 3090TIP3   OH230760   2.287   6.164   2.864  0.4201 -0.1133 -0.2978
 3090TIP3    H130761   2.263   6.080   2.824 -0.5268 -0.3490  0.7370
 3090TIP3    H230762   2.231   6.170   2.942  1.2540  0.9791  0.2244
 3091TIP3   OH230763   1.505   1.635  12.280 -0.0300  0.1978  0.1718
 3091TIP3    H130764   1.519   1.681  12.197  2.0979 -2.2455 -0.9158
 3091TIP3    H230765   1.592   1.634  12.321 -0.2847 -1.6516  0.7301
 3092TIP3   OH230766   0.640   0.548   1.619 -0.1132 -0.3445 -0.0560
 3092TIP3    H130767   0.643   0.623   1.678  1.6000 -0.3366 -0.1279
 3092TIP3    H230768   0.560   0.560   1.568 -0.1846  1.0884  0.3887
 3093TIP3   OH230769   6.347   5.988  12.636 -0.5258  0.1355  0.1018
 3093TIP3    H130770   6.399   6.065  12.615 -2.0688  1.4178  0.8853
 3093TIP3    H230771   6.289   6.016  12.707 -0.0957 -2.1698  1.4278
 3094TIP3   OH230772   4.770   1.865   3.202  0.5525  0.2834 -0.2059
 3094TIP3    H130773   4.675   1.879   3.199  0.2042 -1.6153  1.1773
 3094TIP3    H230774   4.780   1.772   3.224  2.7389  0.7363  0.8387
 3095TIP3   OH230775   4.489   4.456  13.360  0.0501  0.4934 -0.1395
 3095TIP3    H130776   4.577   4.469  13.325  0.5298 -0.1334  0.7880
 3095TIP3    H230777   4.491   4.501  13.445 -0.6766  0.8913 -0.3339
 3096TIP3   OH230778   6.359   1.879   3.747 -0.4307 -0.3040 -0.2312
 3096TIP3    H130779   6.331   1.805   3.802  1.9507 -0.8118  0.3418
 3096TIP3    H230780   6.300   1.876   3.672 -1.4092 -1.8009  0.5626
 3097TIP3   OH230781   3.000   0.813   3.642  0.2794  0.1716  0.5566
 3097TIP3    H130782   3.070   0.802   3.577  0.9405  0.6713  1.1775
 3097TIP3    H230783   2.925   0.766   3.604  1.1414 -0.9430  0.1874
 3098TIP3   OH230784   5.955   2.895  17.243  0.1254  0.4096  0.0806
 3098TIP3    H130785   5.946   2.976  17.293  0.2256  2.0691 -2.4480
 3098TIP3    H230786   5.881   2.841  17.269 -1.4283  2.4048 -0.0753
 3099TIP3   OH230787   0.525   0.694  17.017  0.4863 -0.3919  0.0303
 3099TIP3    H130788   0.567   0.724  16.936 -2.2669 -1.1401 -1.7254
 3099TIP3    H230789   0.435   0.672  16.992 -1.2066  1.7503  3.8082
 3100TIP3   OH230790   0.565   4.568   3.410  0.1852  0.2969 -0.0190
 3100TIP3    H130791   0.541   4.583   3.318 -1.3181  1.6532  0.5692
 3100TIP3    H230792   0.536   4.479   3.428  0.1730  0.1460 -0.7758
 3101TIP3   OH230793   6.731   6.275   5.457 -0.2329 -0.4186 -0.0958
 3101TIP3    H130794   6.689   6.356   5.428 -0.3359 -0.2622  0.4840
 3101TIP3    H230795   6.667   6.234   5.515  0.0632 -0.6156  0.0936
 3102TIP3   OH230796   4.958   5.576  13.596 -0.4281  0.1379 -0.0200
 3102TIP3    H130797   4.881   5.520  13.595 -0.8926  0.6910  1.8610
 3102TIP3    H230798   5.004   5.556  13.515 -2.2530 -0.6093 -0.8891
 3103TIP3   OH230799   5.119   1.606   5.599 -0.0123  0.3267 -0.2990
 3103TIP3    H130800   5.199   1.598   5.652 -1.2445 -0.9814  1.3962
 3103TIP3    H230801   5.053   1.558   5.648 -1.0742 -1.3934 -3.3229
 3104TIP3   OH230802   5.996   5.110  14.866  0.4868 -0.6909 -0.0305
 3104TIP3    H130803   5.998   5.017  14.845  1.9319 -0.4424 -1.0366
 3104TIP3    H230804   6.065   5.122  14.931 -0.8022 -0.5931  1.3674
 3105TIP3   OH230805   1.117   5.284   5.683  0.0742 -0.1061  0.5653
 3105TIP3    H130806   1.153   5.251   5.766  1.0296 -1.0320 -0.2022
 3105TIP3    H230807   1.038   5.232   5.669  0.0086 -0.0726  0.8049
 3106TIP3   OH230808   5.313   0.143   5.476 -0.1113  0.0516  0.4194
 3106TIP3    H130809   5.323   0.091   5.556  0.5157  0.0001  0.3147
 3106TIP3    H230810   5.239   0.200   5.493  0.1554  0.1885  1.1259
 3107TIP3   OH230811   0.500   4.883  11.983 -0.0867 -0.5365 -0.1665
 3107TIP3    H130812   0.446   4.843  12.052 -0.0208 -1.4379 -0.6263
 3107TIP3    H230813   0.581   4.832  11.984  0.4370  0.3006 -0.0215
 3108TIP3   OH230814   1.782   6.173   5.970  0.7008  0.3564 -0.1792
 3108TIP3    H130815   1.708   6.132   6.013  0.7080  0.7409  0.2102
 3108TIP3    H230816   1.819   6.105   5.914  0.2481  0.0711 -0.1292
 3109TIP3   OH230817   4.050   1.870   3.413 -0.6892 -0.2914  0.2073
 3109TIP3    H130818   4.061   1.775   3.423  1.9806 -0.2638 -1.8478
 3109TIP3    H230819   4.086   1.907   3.494  1.3443 -0.9376 -0.3604
 3110TIP3   OH230820   0.118   3.588   1.315 -0.2788 -0.8580  0.2848
 3110TIP3    H130821   0.115   3.556   1.224  0.6032  2.0771 -0.8324
 3110TIP3    H230822   0.211   3.589   1.336 -0.2721  1.1669  0.2014
 3111TIP3   OH230823   1.717   4.410  14.609 -0.1909 -0.4081 -0.1571
 3111TIP3    H130824   1.795   4.410  14.553  1.2284 -0.6828  1.7720
 3111TIP3    H230825   1.664   4.484  14.577  1.5948  0.7513 -0.5086
 3112TIP3   OH230826   6.660   1.683   4.949  0.2106  0.1500 -0.3989
 3112TIP3    H130827   6.590   1.619   4.962 -0.5908  1.0500 -0.2500
 3112TIP3    H230828   6.680   1.679   4.855  2.0922 -2.2973  0.0555
 3113TIP3   OH230829   4.984   1.218  12.787  0.4598  0.7500  0.2436
 3113TIP3    H130830   4.900   1.242  12.748  0.3240 -0.5209 -0.2439
 3113TIP3    H230831   4.965   1.210  12.881 -0.5826 -2.1345 -0.1710
 3114TIP3   OH230832   5.628   4.401   0.923 -0.6002 -0.4103  0.3337
 3114TIP3    H130833   5.651   4.412   0.831  1.2570 -2.0967  0.5516
 3114TIP3    H230834   5.711   4.413   0.970 -0.9627 -2.4232  1.5404
 3115TIP3   OH230835   6.439   1.335  13.349  0.0187 -0.8127  0.0334
 3115TIP3    H130836   6.373   1.270  13.371  1.2631 -1.6267  1.4986
 3115TIP3    H230837   6.472   1.308  13.263 -1.1132 -0.7413 -0.4273
 3116TIP3   OH230838   4.629   4.477   0.854  0.2343  0.4276 -0.5855
 3116TIP3    H130839   4.615   4.458   0.761 -1.6409  0.0599 -0.2574
 3116TIP3    H230840   4.654   4.570   0.855  1.2823  0.1732 -1.5226
 3117TIP3   OH230841   4.232   0.758  14.714  0.4947 -0.2956  0.5567
 3117TIP3    H130842   4.211   0.666  14.696  0.6538 -0.1163 -0.5677
 3117TIP3    H230843   4.150   0.795  14.746 -0.4312 -0.0513 -2.0535
 3118TIP3   OH230844   2.030   3.532   4.818  0.0667 -0.4290 -0.1470
 3118TIP3    H130845   2.031   3.545   4.723 -0.8176  1.3023  0.0730
 3118TIP3    H230846   2.079   3.606   4.853  1.1775 -1.5464  0.7131
 3119TIP3   OH230847   3.503   5.934   2.243  0.4257  0.1011 -0.0386
 3119TIP3    H130848   3.538   5.999   2.181 -0.7754  0.9954  0.1878
 3119TIP3    H230849   3.488   5.856   2.190  1.5387  0.1297 -0.3979
 3120TIP3   OH230850   3.286   4.235  14.105  0.3742 -0.2647  0.1761
 3120TIP3    H130851   3.377   4.228  14.136  0.2418 -1.5571  0.2897
 3120TIP3    H230852   3.233   4.212  14.181 -0.0818  1.2102  0.3193
 3121TIP3   OH230853   6.613   4.620  16.244 -0.3324  0.1145 -0.1690
 3121TIP3    H130854   6.528   4.578  16.256  0.1545 -1.0299 -0.5967
 3121TIP3    H230855   6.668   4.585  16.314 -0.2708  1.0342  0.2538
 3122TIP3   OH230856   3.994   2.159  14.702 -0.1823 -0.2768  0.0667
 3122TIP3    H130857   4.032   2.241  14.734 -0.2132 -0.1734 -0.1575
 3122TIP3    H230858   4.044   2.091  14.746 -0.0240 -0.1373  0.1047
 3123TIP3   OH230859   4.633   4.666  14.848  0.4820 -1.3951  0.1179
 3123TIP3    H130860   4.638   4.578  14.812 -0.1624 -1.8539  1.1145
 3123TIP3    H230861   4.598   4.654  14.937  2.2445 -0.3448  1.0011
 3124TIP3   OH230862   6.133   1.333   3.847 -0.2088  0.8461 -0.5867
 3124TIP3    H130863   6.113   1.255   3.795 -0.8364 -0.5179  1.5970
 3124TIP3    H230864   6.206   1.306   3.903 -1.3459  1.3425  1.1854
 3125TIP3   OH230865   5.247   1.504   0.794  0.4292  0.1653  0.5984
 3125TIP3    H130866   5.340   1.482   0.805  0.2323 -0.6060  0.7318
 3125TIP3    H230867   5.248   1.595   0.764  1.3125 -0.5576 -1.6825
 3126TIP3   OH230868   3.971   3.474   4.700  0.0760 -0.2345  0.0963
 3126TIP3    H130869   3.893   3.507   4.655  0.4937  0.3545 -0.2015
 3126TIP3    H230870   4.027   3.443   4.630  1.5982  2.5391  0.0426
 3127TIP3   OH230871   4.542   6.683   4.158 -0.6262  0.4494 -0.1894
 3127TIP3    H130872   4.572   6.771   4.179 -2.1479  1.0361 -0.3946
 3127TIP3    H230873   4.572   6.629   4.231  2.3078  0.6783 -1.1705
 3128TIP3   OH230874   0.884   6.067   2.778 -0.0783 -0.6175 -0.0908
 3128TIP3    H130875   0.894   5.973   2.791  2.8143 -0.6306 -2.0469
 3128TIP3    H230876   0.846   6.075   2.691 -1.1290  0.0139  0.4198
 3129TIP3   OH230877   0.441   3.994  13.367  0.2723 -0.1897 -0.2963
 3129TIP3    H130878   0.518   4.024  13.320 -0.0005  0.6319 -0.2315
 3129TIP3    H230879   0.369   4.004  13.305  0.0994 -0.2298 -0.1044
 3130TIP3   OH230880   3.466   1.206   4.342  0.1421 -0.6812  0.0454
 3130TIP3    H130881   3.473   1.202   4.247 -0.3858 -0.6904  0.0055
 3130TIP3    H230882   3.485   1.298   4.364 -2.5178  0.0040 -0.3182
 3131TIP3   OH230883   5.660   3.134   3.853 -0.1271  0.1528 -0.0543
 3131TIP3    H130884   5.601   3.060   3.866  1.2981 -1.2000 -1.2290
 3131TIP3    H230885   5.602   3.209   3.844 -1.5856 -0.7737  1.2689
 3132TIP3   OH230886   5.158   5.013   1.311 -0.0522  0.5215 -0.2287
 3132TIP3    H130887   5.161   4.986   1.220  1.4677 -2.0397  0.5566
 3132TIP3    H230888   5.249   5.013   1.340 -0.6469 -0.4087  1.7500
 3133TIP3   OH230889   1.239   6.813   0.146  0.2213 -0.0903 -0.2129
 3133TIP3    H130890   1.331   6.837   0.146 -0.2864  1.9546  0.1977
 3133TIP3    H230891   1.219   6.791   0.237  0.1164  0.2761 -0.1448
 3134TIP3   OH230892   5.905   1.693   5.019 -0.1113  0.4324 -0.5350
 3134TIP3    H130893   5.830   1.751   5.030 -0.1170  0.6693 -1.8123
 3134TIP3    H230894   5.978   1.752   4.997  0.0748  0.0417 -0.9679
 3135TIP3   OH230895   1.632   0.436   3.062  0.0236 -0.1232  0.3051
 3135TIP3    H130896   1.612   0.453   2.970  0.1787 -1.2747  0.0578
 3135TIP3    H230897   1.728   0.431   3.065  0.0090 -0.3089  0.4870
 3136TIP3   OH230898   0.339   6.291  11.346  0.2742 -0.1591 -0.2146
 3136TIP3    H130899   0.296   6.349  11.409  0.7540 -0.9880  0.8834
 3136TIP3    H230900   0.388   6.351  11.289 -0.5033  0.6241 -0.0718
 3137TIP3   OH230901   4.418   3.124   5.919 -0.2544 -0.2483  0.1121
 3137TIP3    H130902   4.447   3.097   6.006 -0.6681 -0.7410  0.1014
 3137TIP3    H230903   4.470   3.201   5.899  0.0371 -0.2957  0.6834
 3138TIP3   OH230904   5.106   0.789  11.534  0.0422 -0.0727 -0.8507
 3138TIP3    H130905   5.087   0.821  11.622 -1.2557 -2.0314 -0.3752
 3138TIP3    H230906   5.200   0.775  11.533  0.1310  0.4285  0.0684
 3139TIP3   OH230907   6.198   1.718  16.431 -0.3518 -0.0311 -0.0305
 3139TIP3    H130908   6.200   1.633  16.386  1.3231 -0.2435  0.4100
 3139TIP3    H230909   6.269   1.769  16.390 -1.3666  1.1665 -0.3180
 3140TIP3   OH230910   5.436   2.698  13.503  0.4636 -0.6043  0.2698
 3140TIP3    H130911   5.464   2.747  13.425 -0.0576  0.0436  0.4819
 3140TIP3    H230912   5.462   2.754  13.577 -2.8087  0.8258  0.4389
 3141TIP3   OH230913   4.982   4.329   4.145  0.0371 -0.5434 -0.1723
 3141TIP3    H130914   4.974   4.395   4.214  2.1425  0.2141 -0.6235
 3141TIP3    H230915   4.980   4.246   4.192 -0.2498 -0.1014  0.6244
 3142TIP3   OH230916   4.810   6.509   3.749 -0.1566  0.4392  0.7412
 3142TIP3    H130917   4.735   6.538   3.802 -0.1411 -0.6522  1.3775
 3142TIP3    H230918   4.877   6.487   3.813 -0.0237 -0.5915  0.2521
 3143TIP3   OH230919   5.928   2.969  14.595  0.4909 -0.4245 -0.0420
 3143TIP3    H130920   5.876   2.932  14.524  1.3888  0.1552 -1.0031
 3143TIP3    H230921   6.003   2.910  14.604  0.4812 -0.3873  0.2890
 3144TIP3   OH230922   6.568   2.604  11.715  0.3264 -0.1052  0.3026
 3144TIP3    H130923   6.478   2.574  11.724  0.0986  0.1682 -0.9089
 3144TIP3    H230924   6.622   2.530  11.742 -0.2539 -0.8529 -0.5744
 3145TIP3   OH230925   4.723   1.950   6.030 -0.0835  0.4103 -0.0382
 3145TIP3    H130926   4.748   2.041   6.048 -1.3311  0.7764 -0.1132
 3145TIP3    H230927   4.720   1.909   6.117 -0.8233  0.7816  0.1098
 3146TIP3   OH230928   4.063   5.628   6.482 -0.2229  0.1404 -0.0237
 3146TIP3    H130929   4.025   5.642   6.395  0.0401 -0.8736 -0.3123
 3146TIP3    H230930   4.052   5.712   6.527  0.2510  0.8829 -1.2706
 3147TIP3   OH230931   3.011   1.417   4.431 -0.3823  0.6878  0.2498
 3147TIP3    H130932   3.078   1.353   4.405 -1.0188  0.4569 -0.8732
 3147TIP3    H230933   2.962   1.373   4.500 -1.2103 -0.3043 -0.9481
 3148TIP3   OH230934   3.493   5.935  15.043 -0.5583  0.2637 -0.2838
 3148TIP3    H130935   3.411   5.970  15.078 -0.1811  0.2726  0.6251
 3148TIP3    H230936   3.561   5.979  15.095  0.0419  0.5571 -1.2938
 3149TIP3   OH230937   6.353   6.716  13.856 -0.0460 -0.6078  0.1399
 3149TIP3    H130938   6.385   6.626  13.854  0.8595 -0.2800 -0.9904
 3149TIP3    H230939   6.258   6.709  13.850  0.0290 -1.4938 -0.0317
 3150TIP3   OH230940   4.067   5.693   0.351  0.6074  0.4807 -0.2185
 3150TIP3    H130941   4.137   5.635   0.323  0.3894  0.1984 -0.1714
 3150TIP3    H230942   3.991   5.665   0.300  0.0828 -0.3649  1.0194
 3151TIP3   OH230943   5.568   3.089  12.542 -0.5951  0.5153 -0.7376
 3151TIP3    H130944   5.498   3.153  12.555  0.6484  2.1968 -1.9746
 3151TIP3    H230945   5.645   3.131  12.580  0.0745 -0.6063 -0.8522
 3152TIP3   OH230946   3.880   2.018   4.983  0.2543 -0.4907 -0.2868
 3152TIP3    H130947   3.972   2.011   4.961 -0.2333 -0.7856 -2.3910
 3152TIP3    H230948   3.849   2.093   4.931 -0.6408 -0.2713  0.5488
 3153TIP3   OH230949   5.956   4.392  10.154 -0.5729  0.7997 -0.1598
 3153TIP3    H130950   5.880   4.373  10.208 -1.5733  2.0481 -1.1005
 3153TIP3    H230951   6.009   4.313  10.158 -2.4428 -0.4960 -0.3590
 3154TIP3   OH230952   4.477   2.383  13.815 -0.1564  0.0276 -0.1229
 3154TIP3    H130953   4.513   2.308  13.767 -1.2319 -0.1909 -0.6000
 3154TIP3    H230954   4.422   2.344  13.883  0.3852  0.3652  0.5231
 3155TIP3   OH230955   0.432   1.860  14.784 -0.0838 -0.6928  0.2986
 3155TIP3    H130956   0.387   1.814  14.855 -1.1388 -0.0908  0.0317
 3155TIP3    H230957   0.457   1.945  14.822  0.0650 -0.6826  0.1815
 3156TIP3   OH230958   6.662   4.428   3.158  0.4799 -0.2739 -0.2413
 3156TIP3    H130959   6.665   4.467   3.071 -0.6385 -1.4008 -0.8043
 3156TIP3    H230960   6.604   4.352   3.148 -1.3786  0.7935  1.9721
 3157TIP3   OH230961   5.229   3.443   3.913 -0.0029  0.4291 -0.6200
 3157TIP3    H130962   5.191   3.520   3.955  1.2248  1.5789 -1.5488
 3157TIP3    H230963   5.255   3.387   3.986 -2.1104  0.2652  0.0485
 3158TIP3   OH230964   3.283   0.181   4.562  0.4163 -0.4094 -0.3797
 3158TIP3    H130965   3.282   0.220   4.475  0.2290  0.1804 -0.1126
 3158TIP3    H230966   3.191   0.177   4.588  0.4674 -0.6278 -0.2297
 3159TIP3   OH230967   0.453   2.733  16.296 -0.4366 -0.1479  0.5318
 3159TIP3    H130968   0.476   2.664  16.358  0.2483  1.4028  2.0105
 3159TIP3    H230969   0.521   2.729  16.229 -0.3199 -0.7952  0.6844
 3160TIP3   OH230970   1.812   5.354  12.063 -0.4121 -0.7189  0.0737
 3160TIP3    H130971   1.800   5.393  11.976 -0.9324 -1.1993 -0.0691
 3160TIP3    H230972   1.882   5.407  12.103 -0.5807 -0.1237 -0.4095
 3161TIP3   OH230973   6.815   1.467  15.694  0.6804  0.3972  0.1063
 3161TIP3    H130974   6.790   1.399  15.757 -0.4060 -1.0442 -1.8027
 3161TIP3    H230975   6.736   1.521  15.686  0.0667 -0.7420 -1.6513
 3162TIP3   OH230976   5.780   5.902  13.078  0.7972 -0.3923  0.3683
 3162TIP3    H130977   5.789   5.958  13.156  1.0484  1.1490 -0.7314
 3162TIP3    H230978   5.797   5.961  13.005 -1.6300 -1.2855 -0.9809
 3163TIP3   OH230979   6.659   0.731   0.811 -0.6248  0.0235  0.3745
 3163TIP3    H130980   6.565   0.721   0.823 -0.8258 -2.3927 -2.4773
 3163TIP3    H230981   6.685   0.654   0.759  3.2518 -0.3703  2.6727
 3164TIP3   OH230982   0.460   4.185   5.426  0.5782 -0.1778  0.5069
 3164TIP3    H130983   0.383   4.234   5.454  0.5954  0.2293 -0.1445
 3164TIP3    H230984   0.527   4.251   5.411  1.2831 -0.5883  1.7482
 3165TIP3   OH230985   2.793   3.601  14.037 -0.4780 -0.1689  0.1169
 3165TIP3    H130986   2.795   3.525  13.979 -0.2410 -0.9533  1.1423
 3165TIP3    H230987   2.720   3.584  14.096  0.4193 -0.2448  1.2154
 3166TIP3   OH230988   3.961   2.920  16.846 -0.6141  0.2903  0.0301
 3166TIP3    H130989   3.985   2.980  16.776 -0.3525 -1.1955 -1.1614
 3166TIP3    H230990   3.888   2.869  16.811 -1.3089  0.3913  1.2945
 3167TIP3   OH230991   0.947   0.420   2.977  0.4462  0.4802 -0.3718
 3167TIP3    H130992   0.994   0.397   3.057  0.0453  1.5748  0.1890
 3167TIP3    H230993   1.013   0.461   2.921  1.0325 -1.4498 -1.1508
 3168TIP3   OH230994   4.535   5.233  16.312 -0.5900  0.3506 -0.0684
 3168TIP3    H130995   4.465   5.227  16.377 -2.1291  2.5735 -1.4352
 3168TIP3    H230996   4.495   5.204  16.230  1.3665 -2.5715 -0.0494
 3169TIP3   OH230997   3.972   3.945   4.796 -0.1219 -0.2943 -0.0958
 3169TIP3    H130998   3.938   4.034   4.793 -0.4240 -0.4283 -0.6982
 3169TIP3    H230999   3.961   3.918   4.887  0.2620  0.3950  0.1635
 3170TIP3   OH231000   3.661   6.193   0.545  0.1459  0.0889 -0.1863
 3170TIP3    H131001   3.640   6.253   0.617 -0.7716  0.7787 -1.0181
 3170TIP3    H231002   3.655   6.247   0.467 -0.8426 -1.1181 -0.9651
 3171TIP3   OH231003   4.520   5.947   4.398  0.4892  0.2813  0.3993
 3171TIP3    H131004   4.576   5.991   4.462  0.0398  2.1918 -0.4830
 3171TIP3    H231005   4.566   5.958   4.314 -0.7185  1.0321 -0.1791
 3172TIP3   OH231006   2.010   5.166   0.498  0.0657  0.3414 -0.0306
 3172TIP3    H131007   1.915   5.173   0.506  0.0395 -0.2968  0.2345
 3172TIP3    H231008   2.043   5.221   0.570 -0.1129 -0.0890  0.3845
 3173TIP3   OH231009   4.616   5.592   0.070 -0.1882 -0.1822  0.0397
 3173TIP3    H131010   4.592   5.662   0.131  0.0908  1.6373 -1.8684
 3173TIP3    H231011   4.603   5.631  -0.016 -1.3390 -2.9624 -1.0937
 3174TIP3   OH231012   6.493   0.809   2.539  0.1879  0.0644 -0.0783
 3174TIP3    H131013   6.447   0.880   2.494 -0.9907 -0.7448 -0.1816
 3174TIP3    H231014   6.553   0.773   2.473 -1.1281 -0.7520 -0.8694
 3175TIP3   OH231015   1.026   0.789   1.574  0.3867  0.7140  0.2829
 3175TIP3    H131016   1.006   0.827   1.488 -0.4505 -0.9601 -0.2831
 3175TIP3    H231017   1.116   0.816   1.592  0.6995  0.7594 -1.3061
 3176TIP3   OH231018   1.742   6.033   2.571  0.3551  0.1212 -0.2019
 3176TIP3    H131019   1.767   5.952   2.529  2.0230  0.2195  0.5622
 3176TIP3    H231020   1.768   6.022   2.662  2.8187  2.4095 -0.5767
 3177TIP3   OH231021   4.675   6.140   6.294 -0.1129  0.2348  0.2438
 3177TIP3    H131022   4.674   6.070   6.360 -1.7302  0.7348  0.7703
 3177TIP3    H231023   4.699   6.096   6.213  0.2455 -0.6884  0.8410
 3178TIP3   OH231024   5.768   6.741  14.439  0.2537  0.0174  0.8355
 3178TIP3    H131025   5.765   6.649  14.416  0.0245  0.2139  0.0857
 3178TIP3    H231026   5.832   6.779  14.379  0.6966  0.2577  1.4529
 3179TIP3   OH231027   0.288   0.498  12.931  0.0606 -0.6447 -0.2475
 3179TIP3    H131028   0.224   0.458  12.874 -1.2503  1.3549 -0.2355
 3179TIP3    H231029   0.244   0.506  13.016  0.5638  0.0506 -0.0366
 3180TIP3   OH231030   6.325   6.562   1.952  0.2534  0.1027  0.3099
 3180TIP3    H131031   6.278   6.529   1.874  0.6928 -2.0320  0.9181
 3180TIP3    H231032   6.388   6.625   1.917 -0.9269  0.6598 -0.8506
 3181TIP3   OH231033   2.809   0.094   0.437 -0.5903  0.3212 -0.3085
 3181TIP3    H131034   2.791   0.142   0.356 -1.0993  1.4475  0.4690
 3181TIP3    H231035   2.901   0.069   0.430 -0.6184  0.4622 -1.2040
 3182TIP3   OH231036   1.472   5.828   2.389 -0.2387 -0.5007 -0.6750
 3182TIP3    H131037   1.565   5.848   2.385 -1.0536  3.3849 -1.6281
 3182TIP3    H231038   1.467   5.749   2.444  3.4930 -0.2652  0.1238
 3183TIP3   OH231039   4.812   4.223   1.449 -0.3242 -0.1924 -0.2879
 3183TIP3    H131040   4.717   4.217   1.437 -0.3782 -0.1850  0.1104
 3183TIP3    H231041   4.840   4.132   1.461 -0.1717 -0.2653 -1.1871
 3184TIP3   OH231042   1.368   3.854  16.283  0.1649 -0.3832  0.3491
 3184TIP3    H131043   1.402   3.934  16.242 -0.3336 -0.7261 -0.7394
 3184TIP3    H231044   1.376   3.871  16.377  2.3179 -0.0187  0.1181
 3185TIP3   OH231045   4.646   3.031   4.159 -0.0275 -0.0620  0.0832
 3185TIP3    H131046   4.709   3.071   4.098 -2.0844  2.8319 -0.2323
 3185TIP3    H231047   4.564   3.027   4.109 -1.6682  2.0620  2.4883
 3186TIP3   OH231048   2.251   1.254   1.807  0.4681  0.7938  0.1635
 3186TIP3    H131049   2.297   1.289   1.731  0.2241 -0.1932 -0.4461
 3186TIP3    H231050   2.271   1.160   1.806 -0.2278  0.6352  0.8310
 3187TIP3   OH231051   4.245   3.952   0.242  0.0672 -0.4382  0.3596
 3187TIP3    H131052   4.238   4.047   0.251 -1.4891 -0.8044  3.5704
 3187TIP3    H231053   4.172   3.929   0.184 -0.6273  0.1626  0.9728
 3188TIP3   OH231054   0.522   6.809  15.844 -0.2945  0.1715  0.1783
 3188TIP3    H131055   0.568   6.744  15.790 -1.2743 -0.1047 -0.3376
 3188TIP3    H231056   0.587   6.839  15.907  0.5030 -0.4389 -0.3553
 3189TIP3   OH231057   5.929   1.658   1.769 -0.3933  0.1002  0.2917
 3189TIP3    H131058   5.884   1.595   1.712 -0.5893 -0.3586  0.9404
 3189TIP3    H231059   5.988   1.604   1.822  0.2131  0.5928  0.1129
 3190TIP3   OH231060   5.785   2.821   5.559  0.5089  0.0753  0.0303
 3190TIP3    H131061   5.705   2.844   5.511  0.4884 -1.0370 -0.4797
 3190TIP3    H231062   5.842   2.783   5.493  0.9656 -0.3165  0.6522
 3191TIP3   OH231063   0.928   1.360   4.200  0.5759 -0.0710 -0.2642
 3191TIP3    H131064   0.902   1.438   4.151  1.5507  0.0977 -0.5138
 3191TIP3    H231065   0.985   1.393   4.270 -1.3220 -0.2209  1.4203
 3192TIP3   OH231066   1.283   4.471  14.818  0.1057 -0.4984 -0.0196
 3192TIP3    H131067   1.226   4.534  14.774  0.1946 -1.3419 -1.3802
 3192TIP3    H231068   1.273   4.491  14.911 -0.3520  1.0988 -0.3927
 3193TIP3   OH231069   4.299   0.112  12.474  0.2941 -0.7640 -0.5534
 3193TIP3    H131070   4.304   0.166  12.395  1.6016 -0.2778 -0.1533
 3193TIP3    H231071   4.370   0.048  12.463  0.7029 -0.4803  0.3725
 3194TIP3   OH231072   5.113   1.010   2.283 -0.0747  0.3253 -0.4665
 3194TIP3    H131073   5.135   0.992   2.375 -0.1277  0.9573 -0.3270
 3194TIP3    H231074   5.060   0.934   2.257 -0.8655  0.5891  0.3207
 3195TIP3   OH231075   5.864   0.732   4.804  0.0639  0.0002  0.1552
 3195TIP3    H131076   5.894   0.802   4.862 -1.3416  0.4226  0.4112
 3195TIP3    H231077   5.912   0.654   4.833  0.7629  0.6081  0.6476
 3196TIP3   OH231078   2.870   0.106   3.773  0.0361 -0.1102 -0.1795
 3196TIP3    H131079   2.860   0.016   3.743  0.8884 -0.1120 -0.4784
 3196TIP3    H231080   2.913   0.151   3.700 -0.0565  0.4494  0.1047
 3197TIP3   OH231081   1.849   5.486  13.358  0.0084  0.1279 -0.3442
 3197TIP3    H131082   1.863   5.579  13.342 -0.2102  0.3456  0.7296
 3197TIP3    H231083   1.755   5.478  13.374  0.2470 -0.0550  1.0166
 3198TIP3   OH231084   2.645   4.154   4.777  0.2701 -0.0146  0.1893
 3198TIP3    H131085   2.605   4.178   4.860  1.2394  0.2859  0.5832
 3198TIP3    H231086   2.650   4.059   4.779 -0.3185 -0.0453  0.1835
 3199TIP3   OH231087   4.642   5.168   2.267 -0.8118  0.2012 -0.4489
 3199TIP3    H131088   4.588   5.116   2.327 -1.9496  0.1715 -1.4810
 3199TIP3    H231089   4.627   5.258   2.294  0.3141  0.0790  0.6423
 3200TIP3   OH231090   1.803   3.404  14.236  0.2823 -0.4325  0.0184
 3200TIP3    H131091   1.879   3.360  14.277 -0.0428  0.8813  2.0932
 3200TIP3    H231092   1.731   3.388  14.297 -0.4459  0.7665 -0.5239
 3201TIP3   OH231093   2.258   0.258  14.389 -0.4060 -0.4830 -0.1776
 3201TIP3    H131094   2.351   0.280  14.386  0.4740 -3.9825 -0.9413
 3201TIP3    H231095   2.255   0.175  14.437 -2.8390 -1.6972 -2.2943
 3202TIP3   OH231096   0.622   1.349  12.651 -0.5998  0.0159  0.0819
 3202TIP3    H131097   0.551   1.382  12.706  0.1487 -1.0632  1.7457
 3202TIP3    H231098   0.578   1.310  12.575 -1.7294  0.2369  0.6106
 3203TIP3   OH231099   0.399   3.036  16.042  0.2602 -0.0350 -0.3653
 3203TIP3    H131100   0.436   3.003  15.960  0.4813 -0.5212 -0.0708
 3203TIP3    H231101   0.473   3.079  16.085  0.0322  0.6475 -0.6349
 3204TIP3   OH231102   4.052   4.953   0.070  0.0658 -0.1535 -0.2338
 3204TIP3    H131103   4.110   4.918   0.004 -0.1289 -1.2239  0.1559
 3204TIP3    H231104   3.989   5.007   0.021  1.0146  0.5349 -0.7089
 3205TIP3   OH231105   4.981   5.421  14.309  0.2613  0.3512  0.6757
 3205TIP3    H131106   4.901   5.370  14.303  1.7941 -1.9851 -1.2466
 3205TIP3    H231107   4.975   5.485  14.239  1.2859 -1.7507 -1.4149
 3206TIP3   OH231108   2.655   2.516   1.175  0.3612 -0.6639  0.6829
 3206TIP3    H131109   2.633   2.536   1.266  0.3845  4.5626 -0.2988
 3206TIP3    H231110   2.573   2.487   1.136 -0.5715  0.8413  1.4670
 3207TIP3   OH231111   4.744   6.340   0.311  0.0099 -0.1802  0.1497
 3207TIP3    H131112   4.743   6.393   0.391 -1.0577 -1.6492  1.1321
 3207TIP3    H231113   4.836   6.314   0.301  0.3979  1.1400  0.1130
 3208TIP3   OH231114   4.989   2.556   4.030 -0.2501  0.1024  0.4651
 3208TIP3    H131115   4.904   2.520   4.055 -0.6053  1.2017  0.8931
 3208TIP3    H231116   5.008   2.517   3.945 -0.8761 -0.6550  0.6695
 3209TIP3   OH231117   1.365   0.145  14.207  0.0278 -0.1257 -0.3157
 3209TIP3    H131118   1.396   0.056  14.190  0.6129 -0.4073  2.0995
 3209TIP3    H231119   1.410   0.199  14.142  1.5160 -1.2593 -0.2506
 3210TIP3   OH231120   3.876   4.224  12.086  0.0450  0.2015 -0.6677
 3210TIP3    H131121   3.887   4.280  12.009  0.2651  1.3184  0.1696
 3210TIP3    H231122   3.925   4.268  12.155 -1.5792  0.1281  0.5657
 3211TIP3   OH231123   1.930   2.882  12.688 -0.2858  0.2800 -0.0912
 3211TIP3    H131124   1.964   2.798  12.720  2.0511  0.6400 -1.5520
 3211TIP3    H231125   1.893   2.924  12.766  0.4777 -1.1768  1.0836
 3212TIP3   OH231126   1.250   3.580   4.532  0.5308 -0.0499 -0.2479
 3212TIP3    H131127   1.241   3.500   4.584  4.3771 -0.3181  0.1049
 3212TIP3    H231128   1.330   3.567   4.481  0.6169  3.1223 -1.0192
 3213TIP3   OH231129   0.450   5.319  12.697  0.1810 -0.0723 -0.5899
 3213TIP3    H131130   0.362   5.302  12.729 -0.2753  2.2203 -0.5245
 3213TIP3    H231131   0.473   5.243  12.645 -2.7244  0.3065 -2.4842
 3214TIP3   OH231132   1.502   0.450  12.454 -0.1639 -0.3768  0.3327
 3214TIP3    H131133   1.530   0.452  12.363 -0.6416  0.6589  0.2095
 3214TIP3    H231134   1.576   0.485  12.503 -0.2236 -0.1500  0.2619
 3215TIP3   OH231135   0.607   3.778  13.477  0.0787  0.2859  0.1642
 3215TIP3    H131136   0.584   3.707  13.538 -0.3061  0.7833  0.5989
 3215TIP3    H231137   0.527   3.796  13.429  0.0723  0.6966  0.3276
 3216TIP3   OH231138   0.603   2.410   5.938 -0.3460 -0.1679 -0.0348
 3216TIP3    H131139   0.616   2.429   6.031 -0.5902 -0.0361 -0.0252
 3216TIP3    H231140   0.517   2.367   5.935 -1.4368  1.9470 -0.4624
 3217TIP3   OH231141   2.997   2.787  13.328 -0.1334 -0.3881  0.0583
 3217TIP3    H131142   2.938   2.716  13.304 -0.3332  0.4711 -2.0994
 3217TIP3    H231143   2.944   2.847  13.380 -0.5706 -0.6811 -0.0495
 3218TIP3   OH231144   5.157   3.584   1.147  1.1600 -0.4724  0.1602
 3218TIP3    H131145   5.132   3.637   1.072 -1.6287 -1.3827  0.3610
 3218TIP3    H231146   5.133   3.637   1.223  0.1598 -1.1938  0.3645
 3219TIP3   OH231147   2.624   0.170  17.262  0.2163  0.9395  0.2102
 3219TIP3    H131148   2.659   0.127  17.184 -1.2588  1.1022 -0.5650
 3219TIP3    H231149   2.654   0.261  17.254  3.4213  0.1238  1.9048
 3220TIP3   OH231150   4.856   0.198  15.466  0.3365 -0.0431 -0.2452
 3220TIP3    H131151   4.897   0.167  15.547  0.3257 -1.2822 -0.7017
 3220TIP3    H231152   4.782   0.251  15.495  1.8924  1.7376  0.5859
 3221TIP3   OH231153   3.086   4.138  13.389 -0.2759 -0.1193 -0.3407
 3221TIP3    H131154   3.004   4.094  13.412 -0.2811 -0.0107 -0.1461
 3221TIP3    H231155   3.145   4.067  13.363 -0.6913 -0.1228 -1.2858
 3222TIP3   OH231156   1.995   5.465   0.889  0.4106  0.1899  0.3697
 3222TIP3    H131157   1.943   5.426   0.960  2.2725 -1.7253  0.7316
 3222TIP3    H231158   2.051   5.529   0.932  1.6118 -1.0438  0.6678
 3223TIP3   OH231159   1.203   2.773   0.865 -0.3897 -0.2441  0.2509
 3223TIP3    H131160   1.266   2.708   0.832  0.5757  0.5457  0.5118
 3223TIP3    H231161   1.249   2.817   0.936 -1.0179  0.7615  0.0476
 3224TIP3   OH231162   6.571   2.938   5.548 -0.4574  0.2255  0.6032
 3224TIP3    H131163   6.612   3.023   5.565 -0.8550  0.2518  1.4433
 3224TIP3    H231164   6.579   2.927   5.453  1.6278  0.1347  0.7784
 3225TIP3   OH231165   2.366   0.534  12.671  0.4248  0.2258  0.4768
 3225TIP3    H131166   2.311   0.607  12.700 -0.2345  0.0234 -0.2430
 3225TIP3    H231167   2.336   0.515  12.582  2.7179  1.1159 -0.5261
 3226TIP3   OH231168   0.321   3.000  16.318 -0.0997  0.4537  0.3702
 3226TIP3    H131169   0.378   3.063  16.275 -0.2624  0.3942  0.0687
 3226TIP3    H231170   0.367   2.917  16.310 -0.7687  0.1901 -0.9064
 3227TIP3   OH231171   1.614   5.103  15.960  0.3375 -0.2463 -0.4300
 3227TIP3    H131172   1.591   5.195  15.973 -3.8488 -1.3787  1.0725
 3227TIP3    H231173   1.690   5.090  16.016 -0.2761  1.8434  0.9648
 3228TIP3   OH231174   0.477   4.809   3.545  0.6072  0.5720 -0.2534
 3228TIP3    H131175   0.490   4.725   3.501  1.9996  0.3480  0.5242
 3228TIP3    H231176   0.453   4.870   3.476  1.8251  0.0200 -1.1826
 3229TIP3   OH231177   2.903   6.657  12.793 -0.0297  0.3141 -0.0168
 3229TIP3    H131178   2.948   6.709  12.726 -1.3442  2.2531  0.5437
 3229TIP3    H231179   2.816   6.641  12.756 -0.1805 -0.0637  0.4955
 3230TIP3   OH231180   1.051   3.909   0.775  0.0387 -0.5698 -0.0656
 3230TIP3    H131181   0.980   3.929   0.713 -1.6914  0.1638  2.0769
 3230TIP3    H231182   1.054   3.813   0.777 -0.1660 -0.6017 -0.9650
 3231TIP3   OH231183   0.489   1.896  12.541  0.0510 -0.3403  0.5497
 3231TIP3    H131184   0.462   1.820  12.592  1.0312 -1.5600 -0.6901
 3231TIP3    H231185   0.536   1.951  12.603 -0.2426 -0.9810  1.3540
 3232TIP3   OH231186   6.663   4.607  15.984  0.1526 -0.4153  0.9992
 3232TIP3    H131187   6.669   4.605  16.079  0.6927  0.7013  0.9942
 3232TIP3    H231188   6.754   4.600  15.954 -0.0822 -1.6624  0.5401
 3233TIP3   OH231189   1.183   5.392   0.226  0.0280 -0.3372 -0.3004
 3233TIP3    H131190   1.168   5.395   0.320  1.9304  2.9502 -0.0132
 3233TIP3    H231191   1.105   5.431   0.187  0.5805  1.2363  0.1393
 3234TIP3   OH231192   0.988   5.026   4.855  0.0402  0.0857  0.1934
 3234TIP3    H131193   0.951   5.090   4.915  2.8401  1.1069  0.9395
 3234TIP3    H231194   0.929   4.951   4.860 -1.7186  1.4977  1.4973
 3235TIP3   OH231195   5.258   3.112   5.451 -0.5946  0.1791 -0.1390
 3235TIP3    H131196   5.199   3.043   5.481  0.4295 -0.3823  0.6495
 3235TIP3    H231197   5.288   3.155   5.531  0.5986 -0.0134 -0.4640
 3236TIP3   OH231198   1.997   0.166   4.951 -0.1881 -0.9816 -0.0966
 3236TIP3    H131199   2.019   0.082   4.992  1.7730 -0.2924  0.3380
 3236TIP3    H231200   2.077   0.191   4.905 -0.1666  1.4434  1.1810
 3237TIP3   OH231201   0.912   6.430  16.441 -1.0335 -0.5705 -0.0303
 3237TIP3    H131202   0.845   6.447  16.376 -0.9561 -0.7208 -0.1516
 3237TIP3    H231203   0.939   6.339  16.425 -1.4305 -0.8014  0.5871
 3238TIP3   OH231204   5.859   5.391   2.715  0.6284 -0.5532  0.0743
 3238TIP3    H131205   5.833   5.471   2.670  1.7212 -0.3794 -0.2506
 3238TIP3    H231206   5.840   5.321   2.653 -0.6568 -0.5859  0.4919
 3239TIP3   OH231207   4.157   6.291  12.525  0.1557  0.5299  0.2587
 3239TIP3    H131208   4.144   6.274  12.432 -0.7955  0.3140  0.4238
 3239TIP3    H231209   4.119   6.214  12.569 -1.0158  1.4464  0.8837
 3240TIP3   OH231210   5.846   5.917  14.715 -0.3190  0.6781  0.1485
 3240TIP3    H131211   5.835   6.012  14.720  0.6204  0.7918  0.0797
 3240TIP3    H231212   5.799   5.884  14.792 -1.3185  1.1332 -0.2618
 3241TIP3   OH231213   4.854   2.493  16.664  0.1324  0.2543  0.0064
 3241TIP3    H131214   4.923   2.521  16.605  1.2458 -0.4288  0.9549
 3241TIP3    H231215   4.880   2.405  16.692 -1.1928 -0.0751  0.2628
 3242TIP3   OH231216   2.942   2.938   1.773 -0.0720  0.0989  0.4173
 3242TIP3    H131217   2.886   2.958   1.699 -0.1500  0.2607  0.5200
 3242TIP3    H231218   3.003   2.872   1.740  1.9212  2.4541 -0.7094
 3243TIP3   OH231219   3.402   6.127   3.707 -0.1227 -0.3938 -0.1824
 3243TIP3    H131220   3.330   6.169   3.754 -0.5107 -1.1862 -0.0663
 3243TIP3    H231221   3.362   6.051   3.666  0.6156 -0.7346 -0.2655
 3244TIP3   OH231222   5.786   0.804  14.487 -0.0046 -0.2110  0.0020
 3244TIP3    H131223   5.742   0.720  14.498  0.8540 -0.6961 -0.1939
 3244TIP3    H231224   5.719   0.870  14.507 -0.6240 -0.9441  0.3562
 3245TIP3   OH231225   0.474   4.832  12.532 -0.0006  0.4711 -0.9603
 3245TIP3    H131226   0.508   4.798  12.616  0.2580 -0.4362 -1.4176
 3245TIP3    H231227   0.530   4.790  12.466 -1.0821  0.1154 -1.6556
 3246TIP3   OH231228   3.942   1.899  12.133  0.0311 -0.9470  0.0802
 3246TIP3    H131229   3.978   1.824  12.181 -1.1423 -0.8830  1.1003
 3246TIP3    H231230   3.930   1.966  12.200 -0.6513 -0.4959 -0.4862
 3247TIP3   OH231231   0.665   0.170  15.469 -0.3477  0.5291 -0.4258
 3247TIP3    H131232   0.589   0.221  15.495 -1.5956 -0.0361 -2.7460
 3247TIP3    H231233   0.657   0.088  15.517 -0.3164  1.0954  0.5518
 3248TIP3   OH231234   2.330   3.354   2.309  0.3621 -0.3092  0.1053
 3248TIP3    H131235   2.265   3.393   2.369  1.5470  0.6510  0.7857
 3248TIP3    H231236   2.389   3.306   2.366 -1.0559 -3.1247 -0.7332
 3249TIP3   OH231237   5.235   1.111  16.078  0.0533 -0.3022  0.2824
 3249TIP3    H131238   5.215   1.168  16.004 -0.2139 -1.3636 -0.4665
 3249TIP3    H231239   5.208   1.024  16.049  3.0947 -1.3113  0.3323
 3250TIP3   OH231240   4.390   2.756   2.549  0.4240 -0.2322  0.6551
 3250TIP3    H131241   4.337   2.832   2.573  0.8048 -0.0744  0.9854
 3250TIP3    H231242   4.480   2.786   2.555  0.5525 -0.4912  0.0441
 3251TIP3   OH231243   2.695   5.120  14.490 -1.3635  0.2973 -0.0035
 3251TIP3    H131244   2.679   5.111  14.584  0.4669 -0.4211  0.2631
 3251TIP3    H231245   2.619   5.169  14.457 -1.9693  0.6483  1.8530
 3252TIP3   OH231246   4.958   2.963  15.288  0.1543  0.0375 -0.5533
 3252TIP3    H131247   4.864   2.977  15.300 -0.1824 -1.9984 -0.5037
 3252TIP3    H231248   4.964   2.915  15.205  1.1003 -0.2742 -0.3164
 3253TIP3   OH231249   1.826   1.371  15.767  0.2692  0.0499 -0.7099
 3253TIP3    H131250   1.774   1.335  15.839 -1.4800  1.6363 -1.1331
 3253TIP3    H231251   1.813   1.466  15.774  0.6421  0.2569 -2.6832
 3254TIP3   OH231252   0.578   4.663   1.061 -0.2647 -0.3300 -0.0279
 3254TIP3    H131253   0.559   4.666   0.967 -1.2476  0.4795  0.1824
 3254TIP3    H231254   0.665   4.624   1.067  0.7748  1.7000 -1.4038
 3255TIP3   OH231255   2.042   4.412   4.542  0.8455 -0.2969  0.3983
 3255TIP3    H131256   1.969   4.373   4.495  1.3954  1.3310 -1.9004
 3255TIP3    H231257   2.010   4.499   4.569  0.0186 -1.7251  4.4565
 3256TIP3   OH231258   3.347   6.651  14.272  0.6179 -0.0661 -0.1024
 3256TIP3    H131259   3.285   6.582  14.247  0.3761 -0.5315  1.7384
 3256TIP3    H231260   3.433   6.613  14.255  0.4448 -0.0060 -1.1589
 3257TIP3   OH231261   3.403   2.967  14.418 -0.3274  0.2401  0.6086
 3257TIP3    H131262   3.392   2.911  14.340 -0.1182  1.7575 -0.5407
 3257TIP3    H231263   3.339   3.037  14.405  0.6916  1.2649  1.1044
 3258TIP3   OH231264   3.005   4.899   1.286  1.2465 -0.5563  0.2964
 3258TIP3    H131265   2.912   4.896   1.263  1.1589 -2.7197  0.8348
 3258TIP3    H231266   3.024   4.992   1.296 -0.8187 -0.0742  0.0109
 3259TIP3   OH231267   4.997   5.848  16.925  0.2836  0.5126 -0.6143
 3259TIP3    H131268   4.999   5.811  16.837  0.9873 -3.4955  0.9868
 3259TIP3    H231269   5.082   5.826  16.962 -0.8402  0.0904  1.8254
 3260TIP3   OH231270   3.574   0.375  16.795 -0.6524  0.3914  0.4057
 3260TIP3    H131271   3.604   0.442  16.734 -1.2644  1.6158  1.4291
 3260TIP3    H231272   3.632   0.301  16.780  0.7676  1.5552  0.0670
 3261TIP3   OH231273   3.183   5.119  11.539  0.7309  0.0169  0.3875
 3261TIP3    H131274   3.135   5.075  11.469 -0.8047  1.0338  0.7522
 3261TIP3    H231275   3.265   5.148  11.499  1.5580 -2.7187  0.0259
 3262TIP3   OH231276   2.026   1.880  16.798 -0.4007 -0.5239  0.4272
 3262TIP3    H131277   1.937   1.884  16.762  0.1337 -0.3049 -0.8579
 3262TIP3    H231278   2.059   1.795  16.769  0.2816 -0.0506 -0.1534
 3263TIP3   OH231279   6.437   5.017   5.479  0.0572  0.3735  0.0607
 3263TIP3    H131280   6.344   5.034   5.467  0.2832  0.2463 -1.9799
 3263TIP3    H231281   6.444   4.921   5.478  0.3219  0.3975 -0.7499
 3264TIP3   OH231282   0.658   0.296   4.747 -0.3966 -0.4312  0.5432
 3264TIP3    H131283   0.590   0.258   4.693 -1.0586 -1.1576  1.8733
 3264TIP3    H231284   0.733   0.305   4.688 -0.7092 -2.3658 -0.1760
 3265TIP3   OH231285   6.679   4.620   1.744  0.2772 -0.8496  0.1208
 3265TIP3    H131286   6.763   4.577   1.730 -0.1105 -1.5772  0.0414
 3265TIP3    H231287   6.702   4.709   1.770  1.0676 -0.9227 -0.3208
 3266TIP3   OH231288   0.578   5.992   3.090 -0.2149  0.1454  0.0135
 3266TIP3    H131289   0.514   6.062   3.080  0.9142  1.4705  1.7610
 3266TIP3    H231290   0.663   6.036   3.086  0.5827 -1.4399 -1.1844
 3267TIP3   OH231291   3.664   3.033  14.829  0.2952 -0.3890 -0.2640
 3267TIP3    H131292   3.605   3.079  14.770  0.0988 -0.0546  0.1906
 3267TIP3    H231293   3.629   3.051  14.917 -0.3259 -2.1481 -0.1284
 3268TIP3   OH231294   6.425   0.966   1.089  0.0617 -0.1890  0.3038
 3268TIP3    H131295   6.369   1.039   1.116  2.4438  2.3410 -1.3151
 3268TIP3    H231296   6.512   0.989   1.122  1.0303 -1.8760 -0.9891
 3269TIP3   OH231297   3.298   1.501   6.456 -0.3736 -0.2912  0.3663
 3269TIP3    H131298   3.312   1.414   6.418  0.4107 -0.3334  0.7205
 3269TIP3    H231299   3.338   1.495   6.543 -2.7569 -0.4095  1.4777
 3270TIP3   OH231300   4.457   0.001   0.134  0.7096 -0.6369 -0.4558
 3270TIP3    H131301   4.521  -0.003   0.204  0.1689 -0.1571  0.0699
 3270TIP3    H231302   4.380   0.042   0.174 -0.0282 -1.4788 -0.9936
 3271TIP3   OH231303   1.649   4.595  15.627 -0.5177  0.4815  0.3358
 3271TIP3    H131304   1.657   4.603  15.532 -0.6375  0.0584  0.2878
 3271TIP3    H231305   1.728   4.635  15.662  1.6421 -3.1622 -0.1143
 3272TIP3   OH231306   6.819   6.616   5.589  0.4433  0.0697 -0.0481
 3272TIP3    H131307   6.833   6.623   5.495  0.9037  1.2382  0.1029
 3272TIP3    H231308   6.906   6.628   5.628  0.5940 -2.3141  0.4591
 3273TIP3   OH231309   1.584   1.497   5.507  0.0451 -0.4853  0.4068
 3273TIP3    H131310   1.647   1.425   5.498  0.4215 -0.5247  2.9032
 3273TIP3    H231311   1.502   1.462   5.474  0.8824 -1.0949 -1.0707
 3274TIP3   OH231312   0.512   0.418   5.212  0.6633 -0.3983 -0.0659
 3274TIP3    H131313   0.492   0.479   5.141 -0.1620 -1.2855 -0.6177
 3274TIP3    H231314   0.604   0.432   5.232  0.4572  1.0724 -0.1407
 3275TIP3   OH231315   3.349   2.412   5.028  0.2648  0.0130  0.2464
 3275TIP3    H131316   3.442   2.428   5.038  0.3649  0.3665 -1.1497
 3275TIP3    H231317   3.333   2.330   5.075  1.4961 -0.6832 -0.5497
 3276TIP3   OH231318   4.801   6.584   3.100 -0.7355  0.0875 -0.4431
 3276TIP3    H131319   4.795   6.531   3.020  0.8334  1.6878 -1.6731
 3276TIP3    H231320   4.715   6.625   3.108 -2.0246 -2.7359  0.6199
 3277TIP3   OH231321   3.614   4.622   2.501 -0.1719 -0.5719  0.2941
 3277TIP3    H131322   3.707   4.642   2.497 -0.3702  0.4308  0.4554
 3277TIP3    H231323   3.577   4.661   2.422 -0.8544  1.3440  1.5150
 3278TIP3   OH231324   6.309   2.665   5.042  0.3275  0.0278 -0.7189
 3278TIP3    H131325   6.324   2.736   5.105  0.8219 -1.3256  0.7106
 3278TIP3    H231326   6.265   2.708   4.968 -0.2016  1.6513  0.5056
 3279TIP3   OH231327   5.756   6.724   2.966  0.1081 -0.4481  0.3918
 3279TIP3    H131328   5.674   6.752   3.006  0.6429 -0.3757  1.4379
 3279TIP3    H231329   5.740   6.730   2.872 -1.0209 -0.2465  0.5964
 3280TIP3   OH231330   2.445   2.155  13.228  0.3262 -0.0870 -0.4104
 3280TIP3    H131331   2.457   2.185  13.318 -2.0456 -1.0385  0.2499
 3280TIP3    H231332   2.356   2.120  13.226  0.1917  0.3141 -3.2395
 3281TIP3   OH231333   3.493   3.539  16.388 -0.1773  0.3187  0.3076
 3281TIP3    H131334   3.451   3.561  16.471 -0.1405  0.2625  0.3428
 3281TIP3    H231335   3.420   3.521  16.329 -0.2109  0.7007  0.2355
 3282TIP3   OH231336   0.955   6.627  13.957 -0.0979  0.0253  0.0162
 3282TIP3    H131337   0.920   6.620  14.046 -0.6287 -0.2279 -0.2139
 3282TIP3    H231338   0.972   6.720  13.945 -0.3559  0.1042  0.2592
 3283TIP3   OH231339   2.971   0.404   3.644 -0.2648  0.0953 -0.5501
 3283TIP3    H131340   3.018   0.457   3.580 -0.8587  1.0612 -0.1975
 3283TIP3    H231341   2.956   0.463   3.718  0.5488 -1.0511  0.5518
 3284TIP3   OH231342   5.513   4.814  10.611 -0.4726 -0.3585 -0.2535
 3284TIP3    H131343   5.566   4.786  10.536 -0.2245  0.3096 -0.3324
 3284TIP3    H231344   5.473   4.896  10.582  0.9307  0.7679  0.9512
 3285TIP3   OH231345   2.890   1.072  16.601 -0.3787 -0.5780 -0.3622
 3285TIP3    H131346   2.871   1.076  16.508 -0.4256 -0.0968 -0.3346
 3285TIP3    H231347   2.844   0.994  16.632 -1.2376 -0.1500 -0.5397
 3286TIP3   OH231348   5.185   5.630  11.169 -0.0356  0.0299  0.4489
 3286TIP3    H131349   5.264   5.585  11.201 -0.9003 -0.7284  1.5559
 3286TIP3    H231350   5.216   5.680  11.094  1.4852 -0.3688  0.7703
 3287TIP3   OH231351   0.632   1.256  16.886 -0.2169  0.0964 -0.0438
 3287TIP3    H131352   0.562   1.321  16.886  0.1527  0.5195  1.6145
 3287TIP3    H231353   0.710   1.304  16.914  0.0265 -1.0665  1.3652
 3288TIP3   OH231354   3.462   5.474  15.854 -0.1359 -0.3079  0.0893
 3288TIP3    H131355   3.404   5.541  15.891 -1.4379 -0.5084 -1.5515
 3288TIP3    H231356   3.404   5.404  15.827  1.0606 -1.3417  0.1519
 3289TIP3   OH231357   4.316   6.005  15.306 -0.0737  0.3799 -0.5094
 3289TIP3    H131358   4.234   5.958  15.322 -0.4211  1.9183  2.4261
 3289TIP3    H231359   4.293   6.097  15.318  1.6608  0.9643 -1.6075
 3290TIP3   OH231360   2.449   2.253   4.405  0.6038  0.7493 -0.0589
 3290TIP3    H131361   2.388   2.325   4.420  0.1835  0.2747  0.5108
 3290TIP3    H231362   2.393   2.177   4.390  1.0367  0.6196 -1.1218
 3291TIP3   OH231363   6.467   0.167   1.313  0.1682 -0.0632 -0.2310
 3291TIP3    H131364   6.503   0.160   1.224 -0.2302  1.1532 -0.4982
 3291TIP3    H231365   6.385   0.118   1.310  0.3233 -0.3089 -0.4450
 3292TIP3   OH231366   5.770   6.268  15.173 -0.2699 -0.7305 -0.3091
 3292TIP3    H131367   5.857   6.227  15.174 -0.5503 -1.3332 -0.3493
 3292TIP3    H231368   5.732   6.239  15.090  0.0374  0.7043 -0.9880
 3293TIP3   OH231369   2.275   1.436   4.730 -0.6066 -0.4772 -0.2371
 3293TIP3    H131370   2.341   1.463   4.667 -1.7181 -0.5392 -1.4408
 3293TIP3    H231371   2.250   1.348   4.701  0.2449 -1.2897  1.4153
 3294TIP3   OH231372   2.937   1.830  10.498 -0.5821 -0.3610 -0.2477
 3294TIP3    H131373   2.903   1.917  10.519 -0.1043 -0.3037  0.3008
 3294TIP3    H231374   3.002   1.812  10.566 -0.3552 -0.9596 -0.6145
 3295TIP3   OH231375   0.125   2.697   2.158 -0.1946 -0.7391  0.2440
 3295TIP3    H131376   0.163   2.763   2.217  0.6249 -1.0612  0.0836
 3295TIP3    H231377   0.127   2.616   2.209  0.1261 -0.9313 -0.0700
 3296TIP3   OH231378   1.097   0.249  14.149  0.0159 -0.0329 -0.5566
 3296TIP3    H131379   1.110   0.343  14.145 -2.2752  0.2897 -1.0404
 3296TIP3    H231380   1.184   0.214  14.171  0.8662  2.1713 -0.2348
 3297TIP3   OH231381   0.105   0.663   3.715  0.0792 -0.2100  0.0566
 3297TIP3    H131382   0.166   0.729   3.750  1.5801 -1.6889  0.3212
 3297TIP3    H231383   0.062   0.706   3.641  2.0584  0.6310 -0.6382
 3298TIP3   OH231384   1.367   0.952   4.782  0.4890  0.5283  0.4097
 3298TIP3    H131385   1.456   0.960   4.750  0.2730 -1.0817 -0.6308
 3298TIP3    H231386   1.314   1.003   4.721  0.5572  0.5708  0.3866
 3299TIP3   OH231387   3.181   0.268   0.803 -0.3716  0.1103 -0.3417
 3299TIP3    H131388   3.238   0.223   0.740 -0.0246 -1.3107  0.9431
 3299TIP3    H231389   3.109   0.206   0.818 -0.5219  0.4882  0.5254
 3300TIP3   OH231390   3.310   2.430  17.017 -0.4490  0.4842 -0.4913
 3300TIP3    H131391   3.371   2.411  17.089  0.3230  2.0598 -0.7031
 3300TIP3    H231392   3.227   2.449  17.060 -0.0822  1.0579 -0.0357
 3301TIP3   OH231393   1.981   3.324   0.334  0.5121  0.1150 -1.0933
 3301TIP3    H131394   2.066   3.296   0.367  0.5500  0.5211 -0.8446
 3301TIP3    H231395   1.995   3.413   0.302  0.3965 -0.1537 -1.9056
 3302TIP3   OH231396   1.117   4.144   0.313  0.3381 -0.3653  0.6422
 3302TIP3    H131397   1.175   4.124   0.387  0.2943 -1.4832  0.3827
 3302TIP3    H231398   1.044   4.192   0.353  1.4361  1.0532  0.9644
 3303TIP3   OH231399   1.240   4.045  13.927  0.1777  0.1322  1.1007
 3303TIP3    H131400   1.203   4.009  14.007  1.3742  0.7807  1.9699
 3303TIP3    H231401   1.226   4.140  13.936 -4.0866 -0.1029 -1.7301
 3304TIP3   OH231402   5.686   3.803  12.552  0.1293  0.5706  0.1578
 3304TIP3    H131403   5.701   3.858  12.629  1.3417  0.1207  0.2473
 3304TIP3    H231404   5.626   3.854  12.498 -1.0404  0.7152  1.5767
 3305TIP3   OH231405   5.010   2.896   4.050  0.2538 -0.1867  0.4461
 3305TIP3    H131406   4.956   2.878   3.974  1.6908  0.9757 -0.9036
 3305TIP3    H231407   5.100   2.881   4.020  0.8931  1.0420  1.6713
 3306TIP3   OH231408   4.233   2.742   2.929  0.3383  0.1264  0.0321
 3306TIP3    H131409   4.174   2.767   2.858 -0.3592 -1.3573  0.0546
 3306TIP3    H231410   4.221   2.809   2.995  0.6903  1.3096 -1.0733
 3307TIP3   OH231411   2.323   0.163  13.750  0.1112 -1.0062  0.0235
 3307TIP3    H131412   2.403   0.135  13.706  1.1007  0.6517  0.7173
 3307TIP3    H231413   2.336   0.141  13.842 -0.0831 -0.4071  0.1978
 3308TIP3   OH231414   4.695   1.025   2.776 -0.1691 -0.6196 -1.0789
 3308TIP3    H131415   4.759   0.961   2.807 -1.0815 -1.2163 -0.3864
 3308TIP3    H231416   4.727   1.109   2.808  0.2512 -0.9140 -0.7271
 3309TIP3   OH231417   6.383   2.634  12.758  0.3410 -0.2871  0.2186
 3309TIP3    H131418   6.416   2.674  12.838  0.9810  0.8747 -0.6113
 3309TIP3    H231419   6.314   2.693  12.728  0.1658 -0.6686 -0.1450
 3310TIP3   OH231420   3.410   2.328   4.273 -0.2098 -0.0516  0.0289
 3310TIP3    H131421   3.372   2.252   4.318  1.1679  0.1964  1.6486
 3310TIP3    H231422   3.395   2.310   4.180  0.4799 -2.5321  0.3577
 3311TIP3   OH231423   3.641   5.521   0.859  0.2403  0.5522  0.0385
 3311TIP3    H131424   3.621   5.574   0.781  1.4336 -0.7613 -1.1965
 3311TIP3    H231425   3.613   5.432   0.835  0.6224  0.1403  1.1112
 3312TIP3   OH231426   6.589   5.660  10.473  0.1704 -0.3142  0.0504
 3312TIP3    H131427   6.584   5.565  10.462 -2.3749 -0.1847 -0.1575
 3312TIP3    H231428   6.634   5.691  10.394  0.9887 -1.3301  0.1117
 3313TIP3   OH231429   2.613   1.177  14.451 -0.0158 -0.0603 -0.2762
 3313TIP3    H131430   2.582   1.175  14.360 -0.7333  0.9257 -0.0583
 3313TIP3    H231431   2.691   1.233  14.448 -0.9285  1.2582 -0.0325
 3314TIP3   OH231432   1.490   4.877  14.404 -0.1388  0.1862 -0.7001
 3314TIP3    H131433   1.460   4.872  14.495 -0.6170 -1.5891 -0.9464
 3314TIP3    H231434   1.576   4.920  14.410  0.1717 -0.5882  0.6713
 3315TIP3   OH231435   3.418   0.167   3.778 -0.2092  0.4323 -0.5092
 3315TIP3    H131436   3.326   0.179   3.755 -0.5628  0.6370  0.9743
 3315TIP3    H231437   3.451   0.104   3.714 -1.8227 -0.9843  0.0306
 3316TIP3   OH231438   1.144   2.115   5.722  0.1637  0.1811 -0.0702
 3316TIP3    H131439   1.134   2.119   5.626  0.4356  1.0888 -0.0656
 3316TIP3    H231440   1.194   2.035   5.738  1.8137  1.0435 -0.8312
 3317TIP3   OH231441   4.390   5.089  15.125 -0.0877 -0.5734 -0.3210
 3317TIP3    H131442   4.360   5.146  15.196 -0.6529 -1.3664  0.0844
 3317TIP3    H231443   4.486   5.094  15.129 -0.1345  0.9058 -0.7504
 3318TIP3   OH231444   3.993   5.412  16.925 -0.2900  0.1145 -1.0024
 3318TIP3    H131445   4.087   5.426  16.914 -0.0218 -1.5965 -1.0331
 3318TIP3    H231446   3.981   5.402  17.020 -0.5652  1.1371 -0.9265
 3319TIP3   OH231447   3.468   4.162   5.448 -0.2023 -0.6106 -0.4626
 3319TIP3    H131448   3.393   4.139   5.503  1.6046  0.0294  2.4190
 3319TIP3    H231449   3.544   4.130   5.497  1.5338  0.4829 -2.3455
 3320TIP3   OH231450   1.891   4.421   2.799 -0.5918 -0.0186 -0.3050
 3320TIP3    H131451   1.824   4.437   2.732 -1.3887 -0.8924  0.2680
 3320TIP3    H231452   1.974   4.423   2.751 -1.1920 -1.2591 -1.4485
 3321TIP3   OH231453   4.131   1.032   4.581  0.3703  0.3252  0.3475
 3321TIP3    H131454   4.062   1.092   4.552 -0.7861 -0.6932  0.9398
 3321TIP3    H231455   4.095   0.991   4.660 -0.0873 -3.2376 -1.5659
 3322TIP3   OH231456   6.275   3.963   3.881  0.0350 -0.5336  0.4861
 3322TIP3    H131457   6.276   4.057   3.896 -0.6219 -0.5609  0.6999
 3322TIP3    H231458   6.251   3.926   3.966 -0.7284 -0.8443  0.1350
 3323TIP3   OH231459   3.614   6.516  16.626  0.5665  0.2965 -0.0383
 3323TIP3    H131460   3.577   6.429  16.613  0.6548  0.6455 -2.9612
 3323TIP3    H231461   3.689   6.502  16.683  1.4484 -1.7728 -1.6549
 3324TIP3   OH231462   3.475   1.592   5.540  0.5196  0.2771  0.3404
 3324TIP3    H131463   3.521   1.530   5.596  2.7260  1.6703  0.1059
 3324TIP3    H231464   3.537   1.664   5.527 -0.9578  1.2304 -1.6737
 3325TIP3   OH231465   1.780   3.288  15.078 -0.5169 -0.6947  0.5121
 3325TIP3    H131466   1.696   3.333  15.071 -0.2465 -0.0867  1.0343
 3325TIP3    H231467   1.787   3.267  15.171  0.0494 -0.4643  0.5208
 3326TIP3   OH231468   1.490   5.967   6.717 -0.0898  0.1878 -0.3299
 3326TIP3    H131469   1.451   6.046   6.754 -0.6570 -0.8554  1.3812
 3326TIP3    H231470   1.417   5.905   6.711  1.2274 -1.7885  2.9019
 3327TIP3   OH231471   4.124   6.269  15.934  0.7791 -0.5360  0.4416
 3327TIP3    H131472   4.136   6.187  15.982  0.8072 -0.4477  0.5859
 3327TIP3    H231473   4.120   6.336  16.002  0.1644 -0.4849  0.3601
 3328TIP3   OH231474   3.846   3.433  16.171 -0.1460 -0.1046  0.4432
 3328TIP3    H131475   3.795   3.363  16.212 -1.6315  0.9986  0.5207
 3328TIP3    H231476   3.782   3.486  16.125  0.7996  1.9036  1.3843
 3329TIP3   OH231477   4.205   3.343  16.005  0.5863 -0.2753  0.5337
 3329TIP3    H131478   4.172   3.407  16.068 -0.7792 -0.7894  0.3680
 3329TIP3    H231479   4.297   3.332  16.027  0.5874  1.0101  1.1863
 3330TIP3   OH231480   1.574   1.925  12.805  0.1664 -0.2662  0.5162
 3330TIP3    H131481   1.615   1.991  12.750  0.1149 -0.7782 -0.1341
 3330TIP3    H231482   1.500   1.893  12.754  1.3328 -2.2273 -0.0049
 3331TIP3   OH231483   0.600   4.030  15.818 -0.3381 -0.2208  0.5057
 3331TIP3    H131484   0.564   3.950  15.780  0.4576 -1.2925  1.9928
 3331TIP3    H231485   0.526   4.070  15.865 -0.4433 -0.6266  0.6802
 3332TIP3   OH231486   2.583   6.112   5.103  0.2830  0.3784  0.2450
 3332TIP3    H131487   2.592   6.191   5.155 -1.6470  2.6280 -2.6416
 3332TIP3    H231488   2.490   6.109   5.080  0.5812 -1.9875 -0.7987
 3333TIP3   OH231489   0.551   5.519  13.598 -0.1137 -0.1471 -0.2554
 3333TIP3    H131490   0.460   5.490  13.612  0.3130 -1.4789 -0.1831
 3333TIP3    H231491   0.582   5.468  13.524  1.2650 -1.2852  1.0666
 3334TIP3   OH231492   3.768   2.679   2.678 -0.0311  0.4282 -0.5147
 3334TIP3    H131493   3.863   2.668   2.683 -0.0442  0.3534 -0.4319
 3334TIP3    H231494   3.732   2.592   2.697 -0.1773  1.0430  2.2103
 3335TIP3   OH231495   4.827   5.055   1.533  0.2828 -0.6308  0.5543
 3335TIP3    H131496   4.912   5.060   1.577  0.2953  1.3324  0.3332
 3335TIP3    H231497   4.787   5.140   1.547 -1.4454 -1.3514  0.1972
 3336TIP3   OH231498   4.232   6.385   0.272 -0.0565 -0.2870  0.0304
 3336TIP3    H131499   4.191   6.422   0.193 -0.0429 -0.0361  0.1381
 3336TIP3    H231500   4.172   6.318   0.301  0.1769 -0.7209 -0.4745
 3337TIP3   OH231501   0.559   2.574  14.823 -0.2525 -0.0844 -0.1365
 3337TIP3    H131502   0.469   2.547  14.806  0.0619 -2.7639  2.1469
 3337TIP3    H231503   0.603   2.566  14.738 -1.8882  0.1408 -1.0144
 3338TIP3   OH231504   5.846   4.872   4.137  0.3091 -0.2728 -0.2577
 3338TIP3    H131505   5.762   4.857   4.094  0.3012 -1.1849  0.0765
 3338TIP3    H231506   5.835   4.957   4.181 -0.2567 -0.1434 -0.6400
 3339TIP3   OH231507   5.606   2.499   0.412 -0.3357  0.1015  0.2535
 3339TIP3    H131508   5.680   2.557   0.429 -1.2699  2.2638 -2.5478
 3339TIP3    H231509   5.532   2.539   0.457  0.0581 -1.8610  2.7495
 3340TIP3   OH231510   1.606   4.680  12.020 -0.2746  0.4198 -0.4355
 3340TIP3    H131511   1.589   4.764  12.063 -1.5623 -0.1053  0.1222
 3340TIP3    H231512   1.574   4.615  12.082 -1.5564 -0.3755 -1.9029
 3341TIP3   OH231513   0.295   2.719  12.741 -0.0827 -0.1725 -0.3439
 3341TIP3    H131514   0.385   2.687  12.731 -0.0035  0.0203 -0.2374
 3341TIP3    H231515   0.302   2.814  12.740 -0.3632 -0.1560 -1.0015
 3342TIP3   OH231516   5.096   4.039  12.669  0.1001  0.6194  0.2583
 3342TIP3    H131517   5.150   3.960  12.660 -0.2618  0.2778  1.0319
 3342TIP3    H231518   5.035   4.034  12.596 -1.1707 -0.8212  1.3770
 3343TIP3   OH231519   1.631   3.786  13.622  0.1702 -0.0770  0.6167
 3343TIP3    H131520   1.709   3.842  13.628 -1.0889  1.7332  0.4117
 3343TIP3    H231521   1.595   3.786  13.711 -0.6690  0.6776  0.2825
 3344TIP3   OH231522   0.923   5.163  10.676  0.2081  0.1450  0.0818
 3344TIP3    H131523   0.981   5.114  10.734 -0.1495 -1.0345 -0.5437
 3344TIP3    H231524   0.848   5.105  10.662 -1.0264  1.5698  0.6987
 3345TIP3   OH231525   0.154   5.259  16.885  0.3179 -0.1176 -0.1744
 3345TIP3    H131526   0.228   5.209  16.919 -0.2161 -2.0460 -1.7555
 3345TIP3    H231527   0.089   5.255  16.955  0.8212 -0.3956  0.2851
 3346TIP3   OH231528   0.301   5.034   3.935 -1.1564 -0.3916 -0.1608
 3346TIP3    H131529   0.350   4.968   3.983  1.1429  1.2089 -0.2352
 3346TIP3    H231530   0.294   5.108   3.995 -0.7933  0.5354 -1.2402
 3347TIP3   OH231531   6.577   4.788   0.441  0.0459 -0.4036 -0.6180
 3347TIP3    H131532   6.623   4.870   0.458 -0.2535 -0.4181  0.2928
 3347TIP3    H231533   6.629   4.745   0.373 -0.5340  1.1285 -2.0679
 3348TIP3   OH231534   6.148   1.003   3.993 -0.8983  0.2612 -0.1324
 3348TIP3    H131535   6.157   1.071   4.060 -0.6936 -0.8458  0.9721
 3348TIP3    H231536   6.237   0.971   3.980 -1.2052 -0.8899  0.5139
 3349TIP3   OH231537   5.113   5.232   4.952  0.2881  0.2300 -0.0753
 3349TIP3    H131538   5.165   5.186   4.887 -0.4979  0.1553 -0.6615
 3349TIP3    H231539   5.146   5.322   4.951 -0.0605  0.3471 -0.9357
 3350TIP3   OH231540   2.166   3.119   6.000 -0.1492  0.9297  0.8268
 3350TIP3    H131541   2.157   3.025   5.985  2.7564  0.7415 -0.0617
 3350TIP3    H231542   2.188   3.126   6.092  1.9444  0.5293  0.3793
 3351TIP3   OH231543   1.308   5.094  15.141  0.1047  0.1174 -0.2155
 3351TIP3    H131544   1.228   5.048  15.115 -0.1274 -0.0241  0.7478
 3351TIP3    H231545   1.279   5.183  15.160  0.3390  0.3211 -0.7968
 3352TIP3   OH231546   5.750   4.965  16.210 -0.3000  0.1899  0.5958
 3352TIP3    H131547   5.805   4.893  16.239 -0.1158  0.1463  0.1472
 3352TIP3    H231548   5.720   4.938  16.123 -0.5028  0.5012  0.5667
 3353TIP3   OH231549   1.199   5.415  11.381 -0.1670  0.4048 -0.3272
 3353TIP3    H131550   1.197   5.430  11.475 -0.6536 -0.0013 -0.2705
 3353TIP3    H231551   1.175   5.323  11.370  1.9427 -0.1262 -0.7246
 3354TIP3   OH231552   0.531   3.851  10.948  0.6927  0.1579  0.2138
 3354TIP3    H131553   0.541   3.946  10.945 -0.9941  0.3102 -1.9150
 3354TIP3    H231554   0.441   3.837  10.978  0.6465 -0.7372 -0.3234
 3355TIP3   OH231555   3.975   5.867  15.604  0.1028  0.6755 -0.2110
 3355TIP3    H131556   3.923   5.855  15.684  1.3101 -0.8551  0.3687
 3355TIP3    H231557   4.058   5.902  15.634  0.7219 -0.3075 -0.7284
 3356TIP3   OH231558   3.177   0.813  15.094  0.2788  0.7166 -0.3823
 3356TIP3    H131559   3.086   0.835  15.112  0.2981  0.5133 -0.0278
 3356TIP3    H231560   3.225   0.845  15.170  0.0571 -2.3033  1.1151
 3357TIP3   OH231561   5.871   6.034   0.510  0.2308  0.8480  0.3884
 3357TIP3    H131562   5.895   6.101   0.574  2.0548  0.3203  0.3054
 3357TIP3    H231563   5.955   6.005   0.474 -0.6202 -0.5766 -0.4949
 3358TIP3   OH231564   4.092   3.658  16.697 -0.0161 -0.5634  1.2942
 3358TIP3    H131565   4.010   3.646  16.745 -0.2374 -0.7279  0.8769
 3358TIP3    H231566   4.160   3.628  16.757 -0.1093  1.1786  2.2969
 3359TIP3   OH231567   1.307   5.883  14.325  0.2249  0.0170 -0.3886
 3359TIP3    H131568   1.292   5.946  14.395  0.9296 -0.5860  0.3146
 3359TIP3    H231569   1.268   5.923  14.248 -2.0581 -0.0686  0.6786
 3360TIP3   OH231570   2.263   3.871  14.110  0.1914  0.4614 -0.0370
 3360TIP3    H131571   2.344   3.825  14.088 -0.9145 -0.2176 -2.8956
 3360TIP3    H231572   2.291   3.961  14.129  1.4877  0.7192 -2.7879
 3361TIP3   OH231573   4.382   3.611  10.822 -0.4335  0.3038 -0.4165
 3361TIP3    H131574   4.380   3.706  10.821 -1.7604  0.2996 -0.0294
 3361TIP3    H231575   4.436   3.588  10.897  0.3658  0.7397 -0.8511
 3362TIP3   OH231576   5.126   3.657   0.571  0.3732  0.0761 -0.0380
 3362TIP3    H131577   5.101   3.726   0.631  0.0117  0.4205 -0.5853
 3362TIP3    H231578   5.094   3.685   0.486  2.5408  0.5032 -0.7517
 3363TIP3   OH231579   2.721   1.174   3.486 -0.6735  0.2862  0.4466
 3363TIP3    H131580   2.790   1.172   3.552 -1.4547  1.2339  1.3006
 3363TIP3    H231581   2.727   1.089   3.443 -0.1792 -0.3629  1.7696
 3364TIP3   OH231582   5.405   6.577   5.168 -0.2493 -0.1177 -0.2476
 3364TIP3    H131583   5.336   6.514   5.145  0.0090 -0.2127 -0.7577
 3364TIP3    H231584   5.486   6.537   5.136 -0.1378  0.6664 -0.9639
 3365TIP3   OH231585   6.680   2.952  13.249 -0.0409  0.2030 -0.0300
 3365TIP3    H131586   6.727   2.989  13.174 -0.7384 -0.6411 -0.9006
 3365TIP3    H231587   6.591   2.936  13.215 -0.0524 -1.2294  0.6590
 3366TIP3   OH231588   1.777   6.147  14.206 -0.7186 -0.4031 -0.6008
 3366TIP3    H131589   1.712   6.133  14.275  0.9526 -1.1345  0.8742
 3366TIP3    H231590   1.778   6.241  14.192 -0.3008 -0.1186  1.2025
 3367TIP3   OH231591   2.079   2.644   4.110 -0.1146  0.1103  0.3449
 3367TIP3    H131592   2.066   2.647   4.015 -0.2334 -2.0328  0.2557
 3367TIP3    H231593   2.016   2.579   4.140  0.3661  0.3139  1.8097
 3368TIP3   OH231594   0.759   3.567  11.860 -0.7376  0.3533  0.6395
 3368TIP3    H131595   0.754   3.659  11.886 -2.5908  0.2147  0.8547
 3368TIP3    H231596   0.741   3.518  11.940 -0.6320 -0.1766  0.3441
 3369TIP3   OH231597   5.797   4.389   6.346 -0.7831 -0.2216  0.1944
 3369TIP3    H131598   5.825   4.308   6.303 -1.3214 -0.4083  0.1891
 3369TIP3    H231599   5.792   4.453   6.275 -1.2181 -0.4133  0.0441
 3370TIP3   OH231600   5.982   2.301  12.776 -0.6087  0.2453 -0.0982
 3370TIP3    H131601   6.048   2.269  12.715  1.7521 -1.9774  3.4322
 3370TIP3    H231602   5.906   2.244  12.761  0.3918 -1.1090 -0.1486
 3371TIP3   OH231603   2.130   1.246   5.699 -0.2355 -0.0174 -0.2623
 3371TIP3    H131604   2.177   1.245   5.782 -0.2931  0.7054 -0.2240
 3371TIP3    H231605   2.067   1.174   5.707 -0.2852  0.0872  0.3439
 3372TIP3   OH231606   1.728   5.279   6.065  0.5158 -0.8187  0.0657
 3372TIP3    H131607   1.739   5.367   6.029 -1.5635 -1.7888 -3.1900
 3372TIP3    H231608   1.744   5.289   6.159  0.8034  2.9017 -0.3058
 3373TIP3   OH231609   5.187   5.027   4.658 -0.0824  0.0358  0.1382
 3373TIP3    H131610   5.187   4.971   4.580  2.8469  0.1388 -0.0147
 3373TIP3    H231611   5.176   4.968   4.731  0.1051 -0.4129 -0.1947
 3374TIP3   OH231612   5.212   1.911   5.016 -0.3582 -0.0631 -0.1667
 3374TIP3    H131613   5.170   1.845   5.071  0.9885 -1.0721 -0.3245
 3374TIP3    H231614   5.171   1.994   5.043  0.4453 -0.4984  2.5530
 3375TIP3   OH231615   6.712   6.151   0.325  0.1271  0.1181  0.6981
 3375TIP3    H131616   6.739   6.162   0.416 -1.9182  1.2771  1.2155
 3375TIP3    H231617   6.735   6.234   0.283 -0.9840  0.4620  0.7377
 3376TIP3   OH231618   5.245   2.668  11.585  0.0032  0.0193  0.4975
 3376TIP3    H131619   5.296   2.731  11.635  0.6864  1.8408 -2.3542
 3376TIP3    H231620   5.300   2.646  11.510 -1.1792 -2.2060  0.2497
 3377TIP3   OH231621   4.029   4.841   0.593 -0.2274  0.2979  0.1166
 3377TIP3    H131622   4.021   4.867   0.501 -0.3714 -1.6645 -0.4648
 3377TIP3    H231623   3.959   4.889   0.638 -1.4299 -0.1983 -1.1550
 3378TIP3   OH231624   0.318   2.770  10.827  0.1855  0.4381 -0.0037
 3378TIP3    H131625   0.377   2.714  10.776  1.5395 -0.0660  2.0350
 3378TIP3    H231626   0.320   2.732  10.915  0.7827  3.4160  1.3269
 3379TIP3   OH231627   6.241   4.526   3.102  0.5943  0.2305  0.0664
 3379TIP3    H131628   6.311   4.541   3.165 -0.0095 -0.4144  0.9045
 3379TIP3    H231629   6.247   4.432   3.082 -0.3185  0.0742  0.4981
 3380TIP3   OH231630   1.316   0.714   2.761  0.4238  0.1703  0.3556
 3380TIP3    H131631   1.373   0.662   2.704 -1.6444  0.8170 -2.3727
 3380TIP3    H231632   1.356   0.801   2.761  1.7819 -0.4002  1.9457
 3381TIP3   OH231633   0.172   0.497   2.412  0.0786 -0.4583  0.1395
 3381TIP3    H131634   0.129   0.423   2.368  2.2188 -2.1768  0.8188
 3381TIP3    H231635   0.198   0.555   2.340 -1.0048 -0.7016 -0.4623
 3382TIP3   OH231636   4.477   2.648  14.838  0.2714 -0.5734 -0.4130
 3382TIP3    H131637   4.566   2.669  14.811 -0.4143  0.1286 -2.2009
 3382TIP3    H231638   4.487   2.587  14.911  2.2435  1.4412  1.0702
 3383TIP3   OH231639   0.012   0.122   6.196  0.2725  0.1973  0.7366
 3383TIP3    H131640  -0.055   0.091   6.135  0.9953 -2.3275  1.1635
 3383TIP3    H231641   0.062   0.186   6.146 -0.1543 -0.6393 -0.7948
 3384TIP3   OH231642   3.206   3.412  17.228 -0.8011 -0.0852  0.0618
 3384TIP3    H131643   3.255   3.470  17.286  0.7598  1.4596 -2.7411
 3384TIP3    H231644   3.115   3.443  17.235 -0.0331  2.5539 -1.1792
 3385TIP3   OH231645   1.253   1.521   6.175 -0.6083 -0.3430 -0.3954
 3385TIP3    H131646   1.198   1.475   6.238 -1.6295 -0.1211 -1.1113
 3385TIP3    H231647   1.292   1.593   6.224 -0.4718 -0.8679  0.2684
 3386TIP3   OH231648   0.101   4.048  14.551 -0.3141 -0.7799  0.4942
 3386TIP3    H131649   0.181   4.100  14.562 -0.5671 -0.3464  0.3014
 3386TIP3    H231650   0.066   4.039  14.640  1.6036 -3.6465  1.0083
 3387TIP3   OH231651   0.012   0.128  13.180 -0.4916 -0.0306  0.1841
 3387TIP3    H131652  -0.022   0.121  13.091 -1.6786  0.5397  0.5781
 3387TIP3    H231653   0.090   0.184  13.172 -0.6394  0.0753 -0.4893
 3388TIP3   OH231654   1.672   0.690   6.284  0.3174 -0.1316 -0.4525
 3388TIP3    H131655   1.720   0.718   6.206  1.7291 -0.1617  0.4039
 3388TIP3    H231656   1.583   0.722   6.269  0.5729 -0.1545 -2.0852
 3389TIP3   OH231657   2.669   5.260   3.388 -0.7890 -0.1207 -0.0769
 3389TIP3    H131658   2.736   5.262   3.320 -0.7284 -1.0974 -0.0546
 3389TIP3    H231659   2.586   5.258   3.340 -0.7421 -0.9601 -0.1252
 3390TIP3   OH231660   3.326   4.953   2.153  0.5240 -0.2080  0.0692
 3390TIP3    H131661   3.320   5.000   2.070 -1.0476 -1.5394 -0.6037
 3390TIP3    H231662   3.283   4.869   2.136  0.4526 -0.6183  2.1460
 3391TIP3   OH231663   4.384   6.675   2.850 -0.3451  0.2140 -0.1924
 3391TIP3    H131664   4.359   6.583   2.863  1.1802 -0.3345 -1.0082
 3391TIP3    H231665   4.301   6.721   2.842 -1.1391 -1.0631  0.4113
 3392TIP3   OH231666   1.620   1.648  12.648 -0.4768  0.0255 -0.1091
 3392TIP3    H131667   1.651   1.618  12.563  1.2420 -2.0735  1.1903
 3392TIP3    H231668   1.627   1.743  12.645  2.3275 -0.1679 -1.3020
 3393TIP3   OH231669   1.345   6.717   2.497  0.0351  0.2672  0.0278
 3393TIP3    H131670   1.436   6.747   2.493 -0.5790  2.1418 -0.2338
 3393TIP3    H231671   1.301   6.781   2.552 -1.2595 -0.3084 -0.3231
 3394TIP3   OH231672   4.440   0.898   1.565  0.0734 -0.2893 -0.0340
 3394TIP3    H131673   4.470   0.873   1.478 -0.4915 -0.6691 -0.1260
 3394TIP3    H231674   4.493   0.974   1.588 -0.1416  0.1395 -0.9329
 3395TIP3   OH231675   2.545   4.809  15.264  0.4414 -0.0239  0.3387
 3395TIP3    H131676   2.532   4.904  15.268 -0.6284 -0.1768  0.6304
 3395TIP3    H231677   2.573   4.792  15.174  0.2773  0.5245  0.1815
 3396TIP3   OH231678   5.020   3.218   0.668 -0.0944 -0.3185  0.4938
 3396TIP3    H131679   4.939   3.181   0.635  0.7279 -1.0176 -0.7619
 3396TIP3    H231680   4.996   3.258   0.752 -2.8376  4.0610 -2.2213
 3397TIP3   OH231681   0.662   5.281  16.735 -0.0475  0.1659  0.8714
 3397TIP3    H131682   0.610   5.230  16.672  0.5752 -3.6058  3.2526
 3397TIP3    H231683   0.597   5.336  16.779 -1.2914 -0.9814  0.5295
 3398TIP3   OH231684   0.207   4.502  16.705 -0.2829  0.5026 -0.2217
 3398TIP3    H131685   0.301   4.484  16.707 -0.0718  1.6549  1.5759
 3398TIP3    H231686   0.168   4.436  16.762 -0.5687  0.0387 -0.9471
 3399TIP3   OH231687   2.309   4.499  11.224  0.0957 -0.0051  0.2942
 3399TIP3    H131688   2.359   4.580  11.214 -1.1718  0.6480 -0.9717
 3399TIP3    H231689   2.279   4.479  11.135 -3.1102  0.4426  1.2084
 3400TIP3   OH231690   6.757   3.955  12.044  0.5700  0.7332  0.2736
 3400TIP3    H131691   6.695   3.924  11.978  1.5364  1.0924 -0.8094
 3400TIP3    H231692   6.770   3.880  12.102 -0.4217  0.4728  0.1663
 3401TIP3   OH231693   1.703   1.071   6.275 -0.1873 -0.3342  0.4567
 3401TIP3    H131694   1.610   1.072   6.252 -0.2512 -3.0680  0.4054
 3401TIP3    H231695   1.709   1.013   6.351  1.3768  0.5519  1.0448
 3402TIP3   OH231696   2.989   0.727  11.398  0.0424  0.1722  0.0011
 3402TIP3    H131697   3.039   0.793  11.350 -0.9563  0.7205 -0.3023
 3402TIP3    H231698   3.017   0.643  11.361 -1.7110  0.6436 -2.5456
 3403TIP3   OH231699   6.797   1.455  10.441 -0.2535 -0.2363  0.1380
 3403TIP3    H131700   6.737   1.526  10.465  0.1970  0.9042 -2.0264
 3403TIP3    H231701   6.750   1.376  10.466 -0.9090  0.7681  2.2874
 3404TIP3   OH231702   3.890   0.249  12.455 -0.4497  0.1336  0.1779
 3404TIP3    H131703   3.802   0.283  12.439 -0.8781 -1.7485 -1.7447
 3404TIP3    H231704   3.877   0.164  12.496  0.5035  0.4951  1.2425
 3405TIP3   OH231705   6.231   5.340   4.399 -0.1907 -0.0770 -0.4525
 3405TIP3    H131706   6.232   5.433   4.375  0.3314 -0.2573 -1.1289
 3405TIP3    H231707   6.212   5.340   4.493  0.6472  0.7517 -0.2728
 3406TIP3   OH231708   0.141   3.734   0.050 -0.2407  0.3869  0.5400
 3406TIP3    H131709   0.137   3.684   0.131  0.4462  0.1452  0.4302
 3406TIP3    H231710   0.083   3.687  -0.010 -0.2283  0.1848  0.6871
 3407TIP3   OH231711   4.157   6.706   1.193  0.3098 -0.0389  0.0742
 3407TIP3    H131712   4.174   6.693   1.286 -0.2077  0.1388  0.1937
 3407TIP3    H231713   4.153   6.801   1.183  2.1924  0.0088 -0.4562
 3408TIP3   OH231714   5.546   5.707   4.683 -0.0343  0.6636  0.2815
 3408TIP3    H131715   5.568   5.695   4.590 -0.4681  1.0191  0.1346
 3408TIP3    H231716   5.620   5.668   4.730  1.2619  2.4355 -0.2149
 3409TIP3   OH231717   6.288   5.160  16.735  0.3074  0.5516 -0.9314
 3409TIP3    H131718   6.211   5.214  16.716 -0.8910 -0.9732 -0.5577
 3409TIP3    H231719   6.342   5.166  16.656 -0.3829  1.3274 -1.3510
 3410TIP3   OH231720   3.000   1.134   5.683 -0.3115  0.0491  0.7258
 3410TIP3    H131721   2.977   1.047   5.714  0.6409 -0.1344  0.9425
 3410TIP3    H231722   3.048   1.118   5.602 -0.7952  0.4149  0.3613
 3411TIP3   OH231723   3.826   1.001   0.548  0.3842  0.0042  0.5754
 3411TIP3    H131724   3.802   1.092   0.533 -0.3682 -0.1821  0.6396
 3411TIP3    H231725   3.890   0.982   0.480  1.9448  1.1251  1.6916
 3412TIP3   OH231726   4.857   1.525   1.070  0.2449  0.7760 -0.2834
 3412TIP3    H131727   4.762   1.526   1.064  0.3355 -0.8174 -3.1312
 3412TIP3    H231728   4.884   1.609   1.031  0.0328  0.9475 -0.0631
 3413TIP3   OH231729   1.320   1.070  16.222  0.0727 -0.4523  0.2536
 3413TIP3    H131730   1.377   1.026  16.159  0.8890  0.4065  0.3802
 3413TIP3    H231731   1.277   1.139  16.172 -0.3854 -0.6995  0.3030
 3414TIP3   OH231732   3.210   3.157  14.408  0.2479 -0.0235  0.8603
 3414TIP3    H131733   3.158   3.136  14.485 -1.6417  0.8715 -0.1199
 3414TIP3    H231734   3.160   3.120  14.335  1.3586  0.2485 -0.0527
 3415TIP3   OH231735   4.504   2.262   3.303  0.0529 -0.4082  0.1067
 3415TIP3    H131736   4.410   2.245   3.306  0.2493 -1.4261  0.4465
 3415TIP3    H231737   4.511   2.345   3.255 -0.9020 -1.2273 -1.5318
 3416TIP3   OH231738   0.093   3.543  16.840 -0.9661  1.0980  0.2333
 3416TIP3    H131739   0.115   3.455  16.871 -2.0951  0.4041 -0.8874
 3416TIP3    H231740   0.174   3.593  16.849 -0.3618 -0.0141  1.0360
 3417TIP3   OH231741   6.654   1.486   1.987 -0.0910  0.3175 -0.2174
 3417TIP3    H131742   6.572   1.467   2.032 -0.6289 -0.6210 -1.5661
 3417TIP3    H231743   6.681   1.571   2.021 -1.3481  0.3916  0.6229
 3418TIP3   OH231744   4.558   4.535   1.899  0.4211 -0.6204 -0.4760
 3418TIP3    H131745   4.473   4.537   1.855  0.4087  1.4451 -0.4067
 3418TIP3    H231746   4.621   4.557   1.831  0.3664  2.9674  0.5186
 3419TIP3   OH231747   5.891   0.370  17.009  0.3148  0.1055 -0.5822
 3419TIP3    H131748   5.976   0.403  16.979  0.1842  0.8530 -0.1561
 3419TIP3    H231749   5.911   0.286  17.051  0.9166  0.5098 -0.0482
 3420TIP3   OH231750   4.024   0.972  11.813 -0.6337 -0.1278  0.3372
 3420TIP3    H131751   3.958   0.922  11.862 -0.4548  0.6106  1.3404
 3420TIP3    H231752   3.973   1.039  11.766 -0.8270 -0.9651 -0.6732
 3421TIP3   OH231753   3.683   5.867   0.462 -0.0394  0.3207  0.2238
 3421TIP3    H131754   3.645   5.873   0.374  0.8348  0.1693 -0.1796
 3421TIP3    H231755   3.778   5.872   0.446  0.1015  0.8136  1.2041
 3422TIP3   OH231756   1.404   0.726   2.154  0.3330  0.3566  0.3501
 3422TIP3    H131757   1.344   0.698   2.224 -0.3754  0.0823 -0.3632
 3422TIP3    H231758   1.361   0.699   2.073  1.8212 -0.5960 -0.1339
 3423TIP3   OH231759   2.381   2.719  14.468 -0.3126 -0.1124  0.0225
 3423TIP3    H131760   2.475   2.730  14.452 -0.8627  2.5939 -1.7628
 3423TIP3    H231761   2.347   2.684  14.386 -0.6286 -2.8739  1.2921
 3424TIP3   OH231762   5.376   0.153  13.667  0.1812 -0.5946  0.2168
 3424TIP3    H131763   5.432   0.177  13.740  0.5847 -1.4271  0.1865
 3424TIP3    H231764   5.400   0.063  13.647 -0.8062 -0.7899 -0.1287
 3425TIP3   OH231765   2.476   2.816  16.848  0.9016  0.7956 -0.1093
 3425TIP3    H131766   2.520   2.821  16.933  1.6810 -0.0521 -0.4567
 3425TIP3    H231767   2.477   2.723  16.826  0.5546  0.9898 -0.9705
 3426TIP3   OH231768   1.913   3.619   3.323 -0.1672  0.0801 -0.1703
 3426TIP3    H131769   1.926   3.557   3.395 -0.3441  0.4827  0.2084
 3426TIP3    H231770   2.001   3.634   3.287  0.2202  1.4996  1.3090
 3427TIP3   OH231771   4.130   2.218  13.730 -0.5202  0.1249  0.0510
 3427TIP3    H131772   4.048   2.170  13.723 -0.3733 -0.4858  2.2810
 3427TIP3    H231773   4.158   2.231  13.639 -2.3458 -0.9107 -0.6754
 3428TIP3   OH231774   3.688   2.297   4.057  1.2368 -0.1378 -0.5455
 3428TIP3    H131775   3.713   2.258   4.141  0.9514 -0.1269 -0.4550
 3428TIP3    H231776   3.649   2.225   4.008  1.7761 -0.2402 -0.8263
 3429TIP3   OH231777   1.364   3.942  10.455  0.0361  0.4960  0.2166
 3429TIP3    H131778   1.276   3.908  10.443  0.8940 -2.0588  0.7435
 3429TIP3    H231779   1.365   3.975  10.545 -0.1430 -0.3253  0.5295
 3430TIP3   OH231780   1.765   2.108   3.823  0.1285  0.1294 -0.0768
 3430TIP3    H131781   1.804   2.143   3.903  0.0814 -1.9166  0.8743
 3430TIP3    H231782   1.676   2.084   3.848 -0.1091  0.0950 -0.9243
 3431TIP3   OH231783   3.557   4.039   0.336 -0.1805  0.2301 -0.1337
 3431TIP3    H131784   3.498   4.022   0.262  0.2267  1.2896 -0.7049
 3431TIP3    H231785   3.499   4.041   0.412 -0.8355  0.8955 -0.6429
 3432TIP3   OH231786   5.222   6.650   5.475  1.2377  0.5957 -0.0608
 3432TIP3    H131787   5.222   6.557   5.498 -0.0041  0.7047  0.3987
 3432TIP3    H231788   5.176   6.693   5.547  0.3314  1.3529 -1.0778
 3433TIP3   OH231789   6.713   2.855   6.606  0.1821  0.7494 -0.0977
 3433TIP3    H131790   6.679   2.768   6.623  1.5469  0.5511  1.7853
 3433TIP3    H231791   6.666   2.885   6.529  1.3558 -2.5717 -2.2074
 3434TIP3   OH231792   3.481   6.274   5.816  0.1731  0.0770 -0.4370
 3434TIP3    H131793   3.450   6.230   5.737  0.1929 -0.2939 -0.2418
 3434TIP3    H231794   3.576   6.272   5.810  0.2178 -1.7775  0.5711
 3435TIP3   OH231795   2.335   4.924  13.713  0.3979  0.1715 -0.3463
 3435TIP3    H131796   2.324   4.992  13.647  1.1379  0.5065 -0.1262
 3435TIP3    H231797   2.262   4.864  13.698  0.5051  0.2994 -1.3966
 3436TIP3   OH231798   5.873   5.548   3.960  0.2777  0.5051  0.8287
 3436TIP3    H131799   5.927   5.556   4.038 -0.7289 -1.1577  1.7113
 3436TIP3    H231800   5.788   5.582   3.986 -0.2307 -0.6021  0.6458
 3437TIP3   OH231801   5.170   6.511   3.157 -0.4810  0.0954  0.3375
 3437TIP3    H131802   5.150   6.587   3.211 -1.4038  0.5791 -0.6751
 3437TIP3    H231803   5.155   6.436   3.215 -2.1351  0.5849  0.5785
 3438TIP3   OH231804   5.823   1.672   2.031  0.1122  0.1572 -0.0703
 3438TIP3    H131805   5.769   1.668   1.953  0.6499 -1.2258 -0.3810
 3438TIP3    H231806   5.894   1.610   2.015  0.7916  0.6098  1.0904
 3439TIP3   OH231807   5.147   0.420   5.568  0.3433  0.0102  0.1193
 3439TIP3    H131808   5.208   0.490   5.591  2.8182 -1.2669 -2.3427
 3439TIP3    H231809   5.132   0.375   5.651  0.8360  1.7849  1.2170
 3440TIP3   OH231810   6.019   6.797  13.437  0.0951  0.2415 -0.2306
 3440TIP3    H131811   6.099   6.817  13.388  0.5515  1.8806  1.1553
 3440TIP3    H231812   5.953   6.782  13.370  0.8291  1.9642 -1.3705
 3441TIP3   OH231813   2.659   3.058   3.273  0.1082 -0.3137 -0.5868
 3441TIP3    H131814   2.671   3.152   3.262  2.1048 -0.2386  1.6624
 3441TIP3    H231815   2.746   3.021   3.257 -0.0889 -1.4836  0.9029
 3442TIP3   OH231816   3.853   0.651  16.146  0.4129 -0.0518  0.3184
 3442TIP3    H131817   3.900   0.571  16.170  1.7436  0.2536 -1.2089
 3442TIP3    H231818   3.783   0.658  16.211  1.0726 -1.7588  1.2387
 3443TIP3   OH231819   5.280   0.212  16.870 -0.0833 -0.0808  0.3341
 3443TIP3    H131820   5.365   0.169  16.858 -0.8668 -1.8197  0.7723
 3443TIP3    H231821   5.230   0.189  16.792 -0.1525  0.9780  0.0574
 3444TIP3   OH231822   1.004   5.246  16.032 -0.0971 -0.4031 -0.7546
 3444TIP3    H131823   0.962   5.324  15.996 -0.5286  0.1002  0.7921
 3444TIP3    H231824   0.935   5.202  16.082 -0.0816 -2.2351 -2.2661
 3445TIP3   OH231825   4.096   3.594  12.991  0.0869  0.2837 -0.1022
 3445TIP3    H131826   4.182   3.619  13.023 -0.4692 -0.9709  2.5233
 3445TIP3    H231827   4.111   3.519  12.934  0.6394 -0.5263  1.1068
 3446TIP3   OH231828   3.667   1.625  11.903 -0.2530 -0.1680 -0.1034
 3446TIP3    H131829   3.612   1.696  11.937 -0.5349 -0.3583 -0.1650
 3446TIP3    H231830   3.749   1.669  11.878 -1.9674  0.9214 -4.1968
 3447TIP3   OH231831   5.746   0.740   0.122  0.5989 -0.0861  0.4065
 3447TIP3    H131832   5.699   0.737   0.205 -0.8460  2.4529 -0.2680
 3447TIP3    H231833   5.714   0.663   0.074 -3.0826  1.6050 -0.0545
 3448TIP3   OH231834   3.822   3.517  13.023  0.1010 -0.1349 -0.8721
 3448TIP3    H131835   3.777   3.563  13.094  0.0453 -0.6485 -0.5746
 3448TIP3    H231836   3.910   3.555  13.022  0.1134 -0.1510 -0.5084
 3449TIP3   OH231837   2.034   6.005  11.381  0.5530  0.3367  0.0086
 3449TIP3    H131838   2.035   5.953  11.302 -2.3394 -0.9627  0.7825
 3449TIP3    H231839   1.983   6.083  11.359 -3.4223 -1.6881  1.4864
 3450TIP3   OH231840   5.735   2.328   4.705 -0.5586 -0.5156 -0.0114
 3450TIP3    H131841   5.738   2.414   4.662 -0.9561 -0.0856  0.8298
 3450TIP3    H231842   5.801   2.276   4.657  1.7160  1.0996  1.2816
 3451TIP3   OH231843   5.810   3.371  14.688  0.0885 -0.1396 -0.1095
 3451TIP3    H131844   5.810   3.400  14.780  1.3486  2.9745 -1.0165
 3451TIP3    H231845   5.889   3.318  14.680  1.8419  2.3333 -0.0973
 3452TIP3   OH231846   3.601   2.333  11.935  0.7711  0.0250 -0.5101
 3452TIP3    H131847   3.616   2.309  11.844  0.6980  0.2988 -0.5945
 3452TIP3    H231848   3.656   2.273  11.985  1.4478  0.4166 -0.7693
 3453TIP3   OH231849   6.448   5.384   0.550 -0.1796 -0.1243 -0.3866
 3453TIP3    H131850   6.369   5.414   0.507 -0.7320  1.7721  1.8655
 3453TIP3    H231851   6.425   5.379   0.643  2.2490  0.1910  0.2771
 3454TIP3   OH231852   4.457   3.726  15.045 -0.1640 -0.2992 -0.0277
 3454TIP3    H131853   4.395   3.655  15.026  0.1372 -0.4857 -0.3130
 3454TIP3    H231854   4.411   3.781  15.108 -0.2929 -0.8940  0.4009
 3455TIP3   OH231855   5.126   6.306   5.368  0.2190 -0.4413  0.3082
 3455TIP3    H131856   5.173   6.324   5.449 -0.9163 -0.6257  1.0109
 3455TIP3    H231857   5.036   6.334   5.385  0.0857  0.0558 -1.0810
 3456TIP3   OH231858   4.680   1.408   3.873  0.4244  0.3388  0.2821
 3456TIP3    H131859   4.689   1.318   3.905  0.3743  0.2912  0.1627
 3456TIP3    H231860   4.597   1.408   3.825 -0.6660  0.9958  2.1261
 3457TIP3   OH231861   4.660   1.679   1.239 -0.9455 -0.0044 -0.2401
 3457TIP3    H131862   4.598   1.609   1.259 -0.8253 -0.0708 -0.0991
 3457TIP3    H231863   4.652   1.739   1.314 -1.3596  0.3498 -0.5627
 3458TIP3   OH231864   0.653   4.711  14.499 -0.5816 -0.8714  0.0598
 3458TIP3    H131865   0.629   4.618  14.499 -3.9192 -0.0628 -2.4413
 3458TIP3    H231866   0.710   4.720  14.423  0.2408 -0.9344  0.6534
 3459TIP3   OH231867   6.016   6.166  15.051  0.0625 -0.4146 -0.2607
 3459TIP3    H131868   5.998   6.130  14.965  0.0436 -3.3845  0.9420
 3459TIP3    H231869   6.101   6.130  15.075  0.5863  1.2907  0.5037
 3460TIP3   OH231870   2.294   3.685   1.261 -0.1020 -0.2022  0.7653
 3460TIP3    H131871   2.306   3.606   1.314 -0.7806 -1.1469 -0.4812
 3460TIP3    H231872   2.271   3.753   1.325  2.4630 -0.5091  2.0916
 3461TIP3   OH231873   1.594   0.900   0.144 -0.2520 -0.4011 -0.5397
 3461TIP3    H131874   1.642   0.818   0.135  0.2652 -0.2785  0.9791
 3461TIP3    H231875   1.513   0.875   0.189  0.5751  0.1382  1.2779
 3462TIP3   OH231876   2.894   4.976  14.367 -0.0754 -0.0014  0.3119
 3462TIP3    H131877   2.823   5.030  14.402  0.0286  0.8029 -0.7086
 3462TIP3    H231878   2.962   4.980  14.435  0.8450  3.0200 -0.6989
 3463TIP3   OH231879   6.313   5.020   3.665  0.6501 -0.1163  0.6922
 3463TIP3    H131880   6.262   4.987   3.738 -0.5241 -2.1690 -0.9825
 3463TIP3    H231881   6.287   5.111   3.655 -1.4419 -0.6691  0.9360
 3464TIP3   OH231882   5.826   1.621  13.135 -0.1749  0.6970 -0.4600
 3464TIP3    H131883   5.800   1.585  13.219  0.6729  1.5043  0.1577
 3464TIP3    H231884   5.903   1.674  13.154  0.9634 -0.3366 -1.9863
 3465TIP3   OH231885   4.044   5.558  12.736 -0.2311 -0.1364 -0.4329
 3465TIP3    H131886   4.095   5.570  12.656  2.0684  0.0852  1.0508
 3465TIP3    H231887   4.086   5.614  12.801 -1.5833 -0.9311  1.1709
 3466TIP3   OH231888   0.945   3.667   3.895 -0.5457  0.3038 -0.0987
 3466TIP3    H131889   0.920   3.757   3.873 -1.9874  0.3406  1.5930
 3466TIP3    H231890   1.016   3.647   3.834  0.9251  3.1468  0.5723
 3467TIP3   OH231891   5.298   6.738  16.500  0.4446 -0.1312 -0.0371
 3467TIP3    H131892   5.349   6.818  16.493  0.6145 -0.2160  0.2262
 3467TIP3    H231893   5.361   6.671  16.527  0.6526 -0.7206 -1.9187
 3468TIP3   OH231894   0.110   1.906  11.735 -0.2358  0.3345 -0.8275
 3468TIP3    H131895   0.146   1.866  11.656  1.6163  3.3613 -1.6357
 3468TIP3    H231896   0.041   1.964  11.703 -0.6920  0.2080 -0.0636
 3469TIP3   OH231897   1.531   0.663   0.516 -0.2819 -0.1687  0.1583
 3469TIP3    H131898   1.609   0.714   0.537 -1.1388  1.6475 -0.9010
 3469TIP3    H231899   1.488   0.650   0.600  1.9734 -2.6345  0.9921
 3470TIP3   OH231900   6.715   4.649   3.870  0.1851  0.3256 -0.1569
 3470TIP3    H131901   6.765   4.685   3.944  0.1159 -1.0836  0.5836
 3470TIP3    H231902   6.771   4.582   3.833 -0.3962  0.0138 -0.4766
 3471TIP3   OH231903   6.407   1.786   6.087 -0.2358  0.1293  0.2568
 3471TIP3    H131904   6.314   1.782   6.107  0.0575  0.0363  1.6142
 3471TIP3    H231905   6.444   1.707   6.126  0.5693  0.6581  0.5796
 3472TIP3   OH231906   5.279   0.193  14.643  0.4934 -0.1710 -0.4284
 3472TIP3    H131907   5.283   0.103  14.676 -0.6519  0.0917  0.4530
 3472TIP3    H231908   5.188   0.205  14.617  0.5769  0.8198 -0.2764
 3473TIP3   OH231909   0.646   0.457   3.664  0.1634  0.0853  0.0339
 3473TIP3    H131910   0.556   0.456   3.632  0.4616 -3.1538 -0.8486
 3473TIP3    H231911   0.699   0.434   3.587  1.5440 -0.2774  1.0695
 3474TIP3   OH231912   3.634   5.644   2.999 -0.4278  0.2307  0.3410
 3474TIP3    H131913   3.682   5.572   3.040  1.6600  1.1370 -0.3941
 3474TIP3    H231914   3.669   5.722   3.041 -1.0645  0.9242 -0.4143
 3475TIP3   OH231915   2.348   6.479   5.560  0.0936  0.1781  0.0317
 3475TIP3    H131916   2.336   6.458   5.467 -0.6563  0.7251  0.0047
 3475TIP3    H231917   2.274   6.437   5.604  0.1832  0.3300  0.3301
 3476TIP3   OH231918   2.169   5.836  11.822 -0.6767 -0.0561  0.2022
 3476TIP3    H131919   2.106   5.836  11.751  1.1344  1.1357 -1.4454
 3476TIP3    H231920   2.239   5.777  11.793  0.2944  0.7825  0.7939
 3477TIP3   OH231921   4.222   5.462   0.959  0.3301  0.0903 -0.0511
 3477TIP3    H131922   4.289   5.531   0.959 -0.2569  0.6647  0.6264
 3477TIP3    H231923   4.263   5.389   1.006  0.6201  0.2885  0.0073
 3478TIP3   OH231924   5.812   1.899  15.332  0.3873 -0.2688 -0.1971
 3478TIP3    H131925   5.842   1.851  15.255  0.1685 -1.1097  0.2377
 3478TIP3    H231926   5.855   1.855  15.406  1.8073  1.4845  0.0514
 3479TIP3   OH231927   4.732   3.481  12.029 -0.6851  0.4617  0.2656
 3479TIP3    H131928   4.714   3.532  11.950  3.2810  2.4203  0.5267
 3479TIP3    H231929   4.765   3.544  12.092  0.6499 -1.8037  1.9090
 3480TIP3   OH231930   3.324   6.485  17.120 -0.0075 -0.1666  0.2016
 3480TIP3    H131931   3.403   6.532  17.092  0.0259  0.4195  1.2230
 3480TIP3    H231932   3.351   6.393  17.124  1.3286  0.2880  2.7871
 3481TIP3   OH231933   6.205   1.440   1.268 -0.4835  0.1616  0.3543
 3481TIP3    H131934   6.266   1.512   1.251  0.4573 -0.9832 -1.2178
 3481TIP3    H231935   6.212   1.424   1.362  3.1828 -1.2776 -0.0929
 3482TIP3   OH231936   4.560   2.055  14.992  0.2251  0.3284 -0.5023
 3482TIP3    H131937   4.515   1.977  15.025 -1.3938  1.0647 -0.9115
 3482TIP3    H231938   4.618   2.082  15.064  1.6429 -1.8854 -0.7829
 3483TIP3   OH231939   4.874   3.895  13.113  0.4726 -0.2136 -0.2702
 3483TIP3    H131940   4.837   3.942  13.038  0.9605 -1.2447 -1.1674
 3483TIP3    H231941   4.798   3.875  13.168  0.0216 -0.0546 -0.8293
 3484TIP3   OH231942   6.647   0.722   0.468 -0.1212 -0.2116 -0.0664
 3484TIP3    H131943   6.683   0.708   0.381 -1.9055  1.7514 -1.1468
 3484TIP3    H231944   6.713   0.775   0.513  0.4263 -0.5465 -0.4722
 3485TIP3   OH231945   2.952   4.896  13.066 -0.4095 -0.0056 -0.0017
 3485TIP3    H131946   3.031   4.845  13.053  0.3104  1.7235 -2.6713
 3485TIP3    H231947   2.889   4.860  13.003 -0.9423  0.2569  0.3752
 3486TIP3   OH231948   3.929   3.995  15.440 -0.2292  0.2046 -0.2091
 3486TIP3    H131949   3.917   4.078  15.394 -0.2774  0.0493 -0.4814
 3486TIP3    H231950   3.903   4.014  15.531  0.4380  0.6634 -0.1126
 3487TIP3   OH231951   2.448   1.071  15.640  0.0877  0.4873 -0.0270
 3487TIP3    H131952   2.406   1.144  15.687 -1.7391 -1.5983  1.6759
 3487TIP3    H231953   2.508   1.033  15.704 -0.3200 -0.6338 -0.3070
 3488TIP3   OH231954   1.192   6.377  11.155 -0.0978  0.6896 -0.0681
 3488TIP3    H131955   1.135   6.364  11.080 -0.7089 -1.4572  0.7578
 3488TIP3    H231956   1.142   6.434  11.214 -0.0888  1.4109 -0.7534
 3489TIP3   OH231957   4.197   5.243   5.296  0.3874  0.3417  0.2974
 3489TIP3    H131958   4.109   5.258   5.331  0.6411  1.1569  0.6058
 3489TIP3    H231959   4.216   5.151   5.314  0.1010  0.4935  1.3542
 3490TIP3   OH231960   4.564   4.548   2.490  0.5433 -0.0549  0.0116
 3490TIP3    H131961   4.495   4.520   2.550 -0.1262  0.0634 -0.7008
 3490TIP3    H231962   4.611   4.468   2.468  1.4072  0.0417  1.4576
 3491TIP3   OH231963   6.768   2.245  12.895 -0.0168 -0.1264 -0.0776
 3491TIP3    H131964   6.827   2.190  12.842  0.2737  1.0872 -1.0288
 3491TIP3    H231965   6.706   2.183  12.933  1.1713 -1.2883  0.0121
 3492TIP3   OH231966   1.138   3.149   0.994 -0.0508 -0.7836  0.4494
 3492TIP3    H131967   1.201   3.108   1.053  1.7962 -0.6958 -1.4102
 3492TIP3    H231968   1.109   3.228   1.041  1.4914 -0.6373  1.1914
 3493TIP3   OH231969   0.865   4.256   6.271 -0.3056 -0.0135 -0.1232
 3493TIP3    H131970   0.819   4.333   6.305 -0.2445  0.5125 -1.2148
 3493TIP3    H231971   0.941   4.291   6.225  0.6099 -0.8270  0.7393
 3494TIP3   OH231972   1.745   2.070  13.773 -0.7702  0.3220  0.1538
 3494TIP3    H131973   1.826   2.073  13.722  0.4351  0.8893  2.0641
 3494TIP3    H231974   1.734   1.977  13.795 -0.9540  0.1647 -0.5764
 3495TIP3   OH231975   6.438   5.598  16.941 -0.4918  0.8277  0.1440
 3495TIP3    H131976   6.439   5.691  16.965  2.0502  1.4474 -2.0440
 3495TIP3    H231977   6.530   5.578  16.922 -0.9337 -2.2932  1.1337
 3496TIP3   OH231978   1.719   4.075  14.055  0.5305  0.0456 -0.1548
 3496TIP3    H131979   1.779   4.136  14.014  1.3597 -1.3428 -1.0678
 3496TIP3    H231980   1.635   4.121  14.058  0.9605  0.9399 -1.5246
 3497TIP3   OH231981   1.624   6.334   4.354  0.6826  0.8614  0.3798
 3497TIP3    H131982   1.636   6.333   4.259  1.5386 -0.7390  0.4861
 3497TIP3    H231983   1.686   6.400   4.385  3.1194 -1.2019  0.1217
 3498TIP3   OH231984   4.289   5.209   5.002 -0.0187 -0.0576  0.2164
 3498TIP3    H131985   4.230   5.249   5.065 -0.2016  3.1671 -1.9132
 3498TIP3    H231986   4.376   5.220   5.041 -0.2324  0.9406  0.4259
 3499TIP3   OH231987   0.792   2.394   4.906 -0.5968  0.1112  0.4913
 3499TIP3    H131988   0.737   2.364   4.978  0.6305 -1.8521  0.6431
 3499TIP3    H231989   0.732   2.402   4.831 -1.7666  1.6337  1.5499
 3500TIP3   OH231990   6.101   3.211   0.371 -0.2613  0.3736 -0.3988
 3500TIP3    H131991   6.142   3.287   0.413  0.4880 -0.4341  0.3632
 3500TIP3    H231992   6.021   3.196   0.422 -0.8833  1.1972 -1.1181
 3501TIP3   OH231993   5.464   1.925  13.104  0.4059 -0.3805 -0.2105
 3501TIP3    H131994   5.447   1.957  13.015 -0.0439 -0.9046 -0.3216
 3501TIP3    H231995   5.461   1.830  13.095 -1.0829 -0.4309  0.6263
 3502TIP3   OH231996   2.024   1.979  14.287  0.3656 -0.4870  0.9264
 3502TIP3    H131997   2.035   1.914  14.218  0.9999 -0.1031  0.6638
 3502TIP3    H231998   1.976   1.932  14.356 -0.3576 -0.8369  0.1885
 3503TIP3   OH231999   1.047   4.885  11.846 -0.4016 -0.1653  0.6055
 3503TIP3    H132000   1.043   4.883  11.750  1.5434 -0.8714  0.5168
 3503TIP3    H232001   1.029   4.976  11.869  0.2406  0.2505 -0.4907
 3504TIP3   OH232002   2.514   1.029  14.685  0.2007 -0.2413 -0.5637
 3504TIP3    H132003   2.468   1.057  14.764  0.8420  0.3087 -0.3813
 3504TIP3    H232004   2.508   1.105  14.626 -0.1077 -0.5787 -0.9783
 3505TIP3   OH232005   3.240   5.676   4.799  0.1080 -0.0675  0.0091
 3505TIP3    H132006   3.178   5.737   4.759 -0.3905 -0.5057  0.1016
 3505TIP3    H232007   3.242   5.702   4.892  0.4015  0.2254 -0.0768
 3506TIP3   OH232008   2.334   0.059  15.633 -0.4193 -0.5896 -0.8265
 3506TIP3    H132009   2.309   0.021  15.717 -0.3560  0.5599 -0.2683
 3506TIP3    H232010   2.264   0.035  15.573 -0.0176 -2.1838 -0.6757
 3507TIP3   OH232011   6.357   5.132  16.450  0.4348  0.3313 -0.2047
 3507TIP3    H132012   6.319   5.047  16.473 -0.8929  1.0883  0.3953
 3507TIP3    H232013   6.394   5.119  16.362  1.3501 -1.2141  0.3838
 3508TIP3   OH232014   4.119   6.516  16.076 -0.7201 -0.1647  0.1147
 3508TIP3    H132015   4.093   6.499  16.167 -0.5450 -1.5267 -0.0804
 3508TIP3    H232016   4.210   6.544  16.082 -1.2953  1.6445  0.5303
 3509TIP3   OH232017   3.298   3.973  15.531 -0.0113  0.1947  0.9307
 3509TIP3    H132018   3.233   4.035  15.501 -0.0454 -0.5413 -0.5568
 3509TIP3    H232019   3.307   3.990  15.625 -2.3731  0.2636  1.1594
 3510TIP3   OH232020   1.699   6.444  12.767 -0.1815  0.5765 -0.1914
 3510TIP3    H132021   1.659   6.358  12.757 -1.9136  1.4119 -0.7189
 3510TIP3    H232022   1.667   6.475  12.852  2.2764 -0.2302  1.0598
 3511TIP3   OH232023   4.499   3.222  13.471 -0.1219  0.5383  0.2156
 3511TIP3    H132024   4.558   3.295  13.451  0.8964 -0.5449 -0.7990
 3511TIP3    H232025   4.523   3.196  13.560  0.5228  0.4861  0.0272
 3512TIP3   OH232026   4.658   3.502  16.047  0.4281 -0.2388  0.6175
 3512TIP3    H132027   4.607   3.574  16.011  0.2085  0.0825  1.5536
 3512TIP3    H232028   4.733   3.494  15.987  0.0887  0.2958  0.1092
 3513TIP3   OH232029   5.304   3.892  14.001  0.1787  0.2125  0.1990
 3513TIP3    H132030   5.218   3.933  14.005 -0.0467 -0.2291 -0.1369
 3513TIP3    H232031   5.338   3.898  14.091 -0.5311 -0.3321  0.5070
 3514TIP3   OH232032   4.015   1.040  13.708 -0.1969  0.3840 -0.3742
 3514TIP3    H132033   4.097   1.088  13.701  0.4525 -0.8314 -1.1767
 3514TIP3    H232034   3.981   1.064  13.795  1.7933 -0.3436  0.6477
 3515TIP3   OH232035   1.457   0.367   2.113 -0.5638  0.2903  0.3671
 3515TIP3    H132036   1.414   0.300   2.167 -0.5821 -0.6787 -0.8398
 3515TIP3    H232037   1.389   0.395   2.052 -0.2649  0.7229  0.2328
 3516TIP3   OH232038   5.788   2.875  13.440 -0.6122  0.0606  0.1554
 3516TIP3    H132039   5.730   2.833  13.376 -2.0154  1.3247  0.5890
 3516TIP3    H232040   5.732   2.892  13.516  0.6084  0.2427  1.0222
 3517TIP3   OH232041   5.400   0.175  16.437  0.0036 -0.3273  0.4954
 3517TIP3    H132042   5.488   0.177  16.398 -0.2891 -1.7464 -0.2600
 3517TIP3    H232043   5.401   0.246  16.501  0.9007  1.2638 -1.2264
 3518TIP3   OH232044   3.062   3.138   2.699  0.3368 -0.0306 -0.7345
 3518TIP3    H132045   3.118   3.062   2.684  0.4229  0.7282 -4.9439
 3518TIP3    H232046   3.000   3.136   2.626 -2.5300  1.4585  1.5622
 3519TIP3   OH232047   6.359   3.212  11.211  0.3674  0.1504  0.1394
 3519TIP3    H132048   6.453   3.227  11.217  0.7865 -1.3116 -2.2882
 3519TIP3    H232049   6.342   3.143  11.276  0.9649  0.3868  0.5529
 3520TIP3   OH232050   1.377   3.707   5.773 -0.3679  0.5192 -0.3089
 3520TIP3    H132051   1.304   3.654   5.741  0.7072 -0.4214 -1.2849
 3520TIP3    H232052   1.336   3.783   5.814 -1.9752 -1.1937  1.4048
 3521TIP3   OH232053   1.122   0.349   1.577 -0.3325 -0.2840  0.5222
 3521TIP3    H132054   1.170   0.378   1.499 -1.0562 -0.1253  0.1333
 3521TIP3    H232055   1.062   0.421   1.596 -0.6118 -0.6007  0.8448
 3522TIP3   OH232056   5.459   3.295  11.173 -0.2363 -0.0274  0.4465
 3522TIP3    H132057   5.363   3.301  11.166 -0.1371  1.5045  0.1901
 3522TIP3    H232058   5.474   3.217  11.227 -1.5997 -0.6942 -0.1075
 3523TIP3   OH232059   5.538   6.306  11.626  0.7026 -0.0201 -0.2896
 3523TIP3    H132060   5.571   6.244  11.692 -1.9319 -1.0050  0.1497
 3523TIP3    H232061   5.502   6.250  11.557 -0.2353  1.0353 -0.6633
 3524TIP3   OH232062   1.818   0.383   1.249  0.3180  0.2003  0.5638
 3524TIP3    H132063   1.792   0.299   1.287 -1.8079  0.3412 -0.5150
 3524TIP3    H232064   1.882   0.418   1.311  2.0486 -2.6713  0.5023
 3525TIP3   OH232065   2.869   2.076  10.492 -0.5428  0.0098  0.6729
 3525TIP3    H132066   2.816   2.131  10.434 -0.1521 -0.7537 -0.4257
 3525TIP3    H232067   2.959   2.105  10.478 -0.6047  0.9361  2.1299
 3526TIP3   OH232068   0.915   5.727   4.730  0.0849  0.6442 -0.2834
 3526TIP3    H132069   0.943   5.648   4.776  0.4891  0.5635 -0.6576
 3526TIP3    H232070   0.823   5.739   4.755  0.1820  0.3707  0.2090
 3527TIP3   OH232071   4.399   2.079  11.052 -0.7884  0.6088 -0.5140
 3527TIP3    H132072   4.373   1.989  11.036  0.8308  0.4060 -2.1915
 3527TIP3    H232073   4.323   2.131  11.026 -0.7499 -0.1322 -2.1286
 3528TIP3   OH232074   6.059   1.605  17.175  0.0744  0.3270  0.4553
 3528TIP3    H132075   6.064   1.592  17.081 -2.8521  0.4607  0.2373
 3528TIP3    H232076   6.081   1.520  17.213  1.0362  0.2143 -0.3353
 3529TIP3   OH232077   0.117   2.427  16.472 -0.4714  0.4397  0.1965
 3529TIP3    H132078   0.147   2.496  16.413 -1.2974  0.8523  0.2504
 3529TIP3    H232079   0.056   2.471  16.531 -1.1822 -0.3856  0.0857
 3530TIP3   OH232080   6.470   0.150  16.879 -0.1945  0.3660 -0.1498
 3530TIP3    H132081   6.489   0.101  16.799  2.1863  0.0474  0.5694
 3530TIP3    H232082   6.466   0.242  16.850  2.0803  0.4033 -0.4468
 3531TIP3   OH232083   4.431   0.266  13.640 -0.4617 -0.3768 -0.1350
 3531TIP3    H132084   4.378   0.209  13.584 -0.4878  1.9097 -2.5224
 3531TIP3    H232085   4.509   0.285  13.588 -0.7895  2.3428  0.2838
 3532TIP3   OH232086   6.343   3.013   1.136 -0.4121 -0.3175  0.0890
 3532TIP3    H132087   6.270   3.053   1.182 -0.3909 -0.6022  0.3718
 3532TIP3    H232088   6.305   2.983   1.053 -1.0539 -2.1783  1.0428
 3533TIP3   OH232089   1.746   4.981   2.916 -0.1678  0.0267 -0.0107
 3533TIP3    H132090   1.666   4.963   2.964 -1.0399  0.8210 -1.1421
 3533TIP3    H232091   1.789   4.896   2.906 -1.1022 -0.4639  0.1694
 3534TIP3   OH232092   5.676   1.361   0.410 -0.5756  0.7025  0.6762
 3534TIP3    H132093   5.618   1.388   0.340  2.1656  0.9824 -1.5811
 3534TIP3    H232094   5.694   1.442   0.459  0.0984  1.1639 -0.3153
 3535TIP3   OH232095   4.323   6.103  11.703 -0.4304  0.6646  0.0092
 3535TIP3    H132096   4.293   6.038  11.766 -1.9391  0.9878 -0.3540
 3535TIP3    H232097   4.347   6.053  11.625  0.1143  0.3920  0.3499
 3536TIP3   OH232098   2.602   2.757   4.226  0.0731 -0.2476  0.2718
 3536TIP3    H132099   2.580   2.831   4.169 -1.5171  0.4713  1.7700
 3536TIP3    H232100   2.523   2.742   4.278  0.9525 -1.9171  1.1702
 3537TIP3   OH232101   2.662   5.418   1.602 -0.5525 -0.2080  0.3806
 3537TIP3    H132102   2.691   5.425   1.511  0.1743  0.3521  0.6454
 3537TIP3    H232103   2.741   5.434   1.654 -0.5222 -2.5662  1.1107
 3538TIP3   OH232104   2.553   5.416   1.190 -0.3621  0.1745  0.1218
 3538TIP3    H132105   2.577   5.323   1.187  3.2697  0.9895  0.9705
 3538TIP3    H232106   2.501   5.424   1.270  2.5193 -0.5296  2.1625
 3539TIP3   OH232107   2.393   1.274   0.602  0.4087 -0.0797  0.3777
 3539TIP3    H132108   2.361   1.347   0.550  0.1601  0.6239  1.4975
 3539TIP3    H232109   2.315   1.222   0.621  0.0120  1.1841  2.3976
 3540TIP3   OH232110   6.717   0.931   3.114 -0.9934  0.0521 -0.8058
 3540TIP3    H132111   6.719   0.999   3.181  0.1554  1.1977 -1.9650
 3540TIP3    H232112   6.626   0.903   3.109 -1.7627  2.5947 -1.3813
 3541TIP3   OH232113   2.197   3.916   1.444  0.4770  0.0247 -0.3026
 3541TIP3    H132114   2.292   3.912   1.435  0.3665 -2.6860 -0.8304
 3541TIP3    H232115   2.181   3.892   1.536  0.2293 -1.4983 -0.7314
 3542TIP3   OH232116   2.844   5.342  15.472  0.3380 -0.4258 -0.5528
 3542TIP3    H132117   2.905   5.415  15.488  2.5879 -2.1426 -0.9531
 3542TIP3    H232118   2.810   5.320  15.558  0.0198  0.7814 -0.3618
 3543TIP3   OH232119   2.380   0.985  16.372  0.2131  0.2792 -0.2362
 3543TIP3    H132120   2.415   0.920  16.311  0.1289  0.5840 -0.6117
 3543TIP3    H232121   2.293   1.004  16.339  0.2636  0.6344 -0.1669
 3544TIP3   OH232122   3.368   5.256   4.811  0.6901  0.3639 -0.0235
 3544TIP3    H132123   3.331   5.261   4.900  0.1254  1.0301 -0.2959
 3544TIP3    H232124   3.457   5.290   4.820 -0.0760  2.4742 -0.1113
 3545TIP3   OH232125   0.766   0.609  15.574 -0.2263 -0.6041  0.2016
 3545TIP3    H132126   0.749   0.699  15.548 -1.6149 -0.2722  2.1514
 3545TIP3    H232127   0.859   0.608  15.598 -0.1365  0.2224 -0.1049
 3546TIP3   OH232128   2.001   2.244  14.187  0.7763  0.5497  0.1579
 3546TIP3    H132129   1.989   2.155  14.221 -0.2095  0.3028 -0.7976
 3546TIP3    H232130   2.095   2.250  14.168  1.0103  0.0519  1.1382
 3547TIP3   OH232131   3.072   1.214  16.366 -0.6144  0.1179 -0.2468
 3547TIP3    H132132   3.152   1.235  16.413 -2.0468  0.0082  2.3234
 3547TIP3    H232133   3.022   1.296  16.364 -2.5132 -0.8976  2.4260
 3548TIP3   OH232134   3.744   6.382   0.938 -0.2228  0.1124 -0.3515
 3548TIP3    H132135   3.657   6.421   0.936 -0.4559 -0.3923 -0.1342
 3548TIP3    H232136   3.763   6.371   1.032  0.9943  2.2613 -0.3139
 3549TIP3   OH232137   0.464   5.979  13.078 -0.4200  0.2736  0.4991
 3549TIP3    H132138   0.553   6.011  13.064 -0.4098  0.0521  0.0372
 3549TIP3    H232139   0.443   5.932  12.997 -1.5213  1.6444 -0.0339
 3550TIP3   OH232140   5.558   0.931   3.140  0.1848 -0.1467  0.4447
 3550TIP3    H132141   5.468   0.958   3.161  0.3680  1.4679 -0.7605
 3550TIP3    H232142   5.588   0.885   3.219 -1.3145  0.2478  1.2733
 3551TIP3   OH232143   0.347   3.768  16.107  0.1786 -0.1380 -0.2370
 3551TIP3    H132144   0.308   3.750  16.192  0.4046 -1.0908 -0.3310
 3551TIP3    H232145   0.366   3.681  16.070 -1.6962  0.1944 -2.0723
 3552TIP3   OH232146   0.874   5.458   0.383 -0.1738 -0.2197 -0.2100
 3552TIP3    H132147   0.931   5.482   0.456 -0.9898 -1.7456  0.9816
 3552TIP3    H232148   0.821   5.387   0.418 -1.4165 -0.1619 -1.9336
 3553TIP3   OH232149   4.443   4.085  10.757 -0.3269  0.0406  0.2727
 3553TIP3    H132150   4.496   4.163  10.745 -1.6617  1.3363  2.5577
 3553TIP3    H232151   4.401   4.071  10.672  0.3310  1.4730 -0.2986
 3554TIP3   OH232152   3.359   1.141   3.242 -0.0551 -0.0631 -0.2682
 3554TIP3    H132153   3.287   1.153   3.305 -0.3319 -1.6919 -0.2490
 3554TIP3    H232154   3.315   1.122   3.159  0.3404 -0.5148 -0.3773
 3555TIP3   OH232155   6.588   5.455  15.573 -0.4961 -0.4335 -0.2930
 3555TIP3    H132156   6.647   5.391  15.613  0.1393 -0.2359 -0.9094
 3555TIP3    H232157   6.524   5.473  15.641 -0.2016 -1.1107  0.1731
 3556TIP3   OH232158   4.055   4.192   6.324  0.0080 -0.1008 -0.3322
 3556TIP3    H132159   3.991   4.244   6.371 -0.2386 -0.1995 -0.5596
 3556TIP3    H232160   4.038   4.102   6.351 -0.6522 -0.2400 -1.2252
 3557TIP3   OH232161   3.200   0.431   3.023  0.3427  0.0578  0.5701
 3557TIP3    H132162   3.272   0.487   2.998 -0.9343  1.2740 -0.4460
 3557TIP3    H232163   3.208   0.353   2.968  0.2424  0.6754 -0.3115
 3558TIP3   OH232164   2.504   6.762  14.179  0.2713 -0.7057 -0.0290
 3558TIP3    H132165   2.562   6.743  14.105  1.7621 -0.3584  1.0284
 3558TIP3    H232166   2.498   6.680  14.227  1.5829 -0.2264  1.0012
 3559TIP3   OH232167   2.446   5.522   4.840 -0.5993 -0.2789 -0.2634
 3559TIP3    H132168   2.368   5.466   4.836  0.2127 -1.5472  1.3694
 3559TIP3    H232169   2.496   5.499   4.762 -0.1823 -1.9616  0.4901
 3560TIP3   OH232170   1.945   5.083  13.391  0.3326  0.3197  0.3193
 3560TIP3    H132171   1.989   5.156  13.434  3.0014 -0.5958 -0.7254
 3560TIP3    H232172   2.016   5.028  13.360 -1.5941 -1.1722 -1.5879
 3561TIP3   OH232173   4.949   5.132  17.051 -0.3543  0.1138 -0.1618
 3561TIP3    H132174   4.951   5.198  17.120 -0.5025 -0.2839  0.2280
 3561TIP3    H232175   4.874   5.077  17.073  0.2703 -0.6899 -0.0082
 3562TIP3   OH232176   2.544   3.413  11.666 -0.0035  0.2661 -0.1359
 3562TIP3    H132177   2.504   3.430  11.581 -2.4382  0.7091  1.0506
 3562TIP3    H232178   2.556   3.318  11.669  2.5490  0.4632 -1.9775
 3563TIP3   OH232179   3.149   3.896  12.053  0.0360 -0.4174  0.0127
 3563TIP3    H132180   3.237   3.902  12.089 -0.0635  0.1639  0.1557
 3563TIP3    H232181   3.154   3.825  11.989  0.2168 -1.4613  1.1595
 3564TIP3   OH232182   2.292   2.429   0.922 -0.1687 -0.1567  0.1756
 3564TIP3    H132183   2.255   2.426   0.834 -0.0660  2.9247 -0.0402
 3564TIP3    H232184   2.221   2.400   0.979 -1.2957  0.8893 -0.6603
 3565TIP3   OH232185   2.606   1.841   4.474 -0.0801  0.2353 -0.3439
 3565TIP3    H132186   2.661   1.766   4.497  1.0162  1.1510  0.1148
 3565TIP3    H232187   2.600   1.839   4.379 -0.4133 -0.6829 -0.3018
 3566TIP3   OH232188   6.232   5.809   4.865 -0.1848 -0.2633  0.8458
 3566TIP3    H132189   6.198   5.787   4.778 -2.1602  0.0265  1.5321
 3566TIP3    H232190   6.307   5.866   4.847 -0.4773 -0.3286 -0.6756
 3567TIP3   OH232191   1.033   6.290  11.732 -0.1346  0.6591 -0.2542
 3567TIP3    H132192   0.989   6.306  11.815 -0.1163  1.1244 -0.3355
 3567TIP3    H232193   1.021   6.370  11.682  0.4894  0.6542 -0.4175
 3568TIP3   OH232194   6.523   3.275   5.900  0.1420  0.1626 -0.3351
 3568TIP3    H132195   6.523   3.349   5.838  1.1563 -0.4712 -1.1106
 3568TIP3    H232196   6.489   3.312   5.981 -0.0300  1.3174 -0.9168
 3569TIP3   OH232197   2.310   4.231  13.240 -0.1340 -0.0271 -0.4550
 3569TIP3    H132198   2.325   4.323  13.263  0.7643  0.0785 -1.4119
 3569TIP3    H232199   2.335   4.225  13.148  0.7644 -1.4362 -0.1463
 3570TIP3   OH232200   4.425   3.338  13.859 -0.0080  0.1587 -0.0317
 3570TIP3    H132201   4.473   3.420  13.857  0.9374 -0.4119 -2.4398
 3570TIP3    H232202   4.489   3.271  13.836 -0.5126 -1.4441  2.8896
 3571TIP3   OH232203   2.843   2.157  16.236  0.0355  0.1184  0.1408
 3571TIP3    H132204   2.841   2.215  16.312  2.1060  0.8395 -0.3246
 3571TIP3    H232205   2.857   2.070  16.271  0.5863  0.3951  0.6082
 3572TIP3   OH232206   3.058   0.038   0.372 -0.5792  0.8230 -0.0586
 3572TIP3    H132207   3.106   0.063   0.293  1.6250  2.2007  1.6568
 3572TIP3    H232208   3.115  -0.026   0.415 -2.3759 -0.9118 -0.2208
 3573TIP3   OH232209   2.227   3.109  12.108 -0.2456 -0.2859 -0.1973
 3573TIP3    H132210   2.259   3.181  12.163 -1.0229  0.8160 -1.1460
 3573TIP3    H232211   2.136   3.098  12.135  0.1606 -1.6391  0.6693
 3574TIP3   OH232212   1.098   1.788  16.937 -0.3244 -0.2340 -0.7093
 3574TIP3    H132213   1.124   1.729  17.009  0.0071 -1.3262 -1.7026
 3574TIP3    H232214   1.165   1.857  16.938 -0.9310  0.3521  0.7137
 3575TIP3   OH232215   2.689   2.715  14.411 -0.3465  0.0388  0.0640
 3575TIP3    H132216   2.694   2.720  14.316 -1.1510 -0.3783 -0.0031
 3575TIP3    H232217   2.707   2.623  14.432 -0.9083 -0.0335  0.2565
 3576TIP3   OH232218   4.008   1.638   1.322  0.0955  0.3886 -0.2560
 3576TIP3    H132219   4.101   1.616   1.328  0.0875  0.5796  0.6378
 3576TIP3    H232220   3.997   1.711   1.383 -0.7470  0.0196  0.0322
 3577TIP3   OH232221   1.962   1.171  15.619  0.3806 -0.0280  0.3380
 3577TIP3    H132222   1.913   1.235  15.671  1.4694  0.0786  1.2512
 3577TIP3    H232223   2.050   1.172  15.657  0.9615 -0.5712 -0.9679
 3578TIP3   OH232224   5.654   3.649   5.934 -0.5381  0.1259 -0.5498
 3578TIP3    H132225   5.711   3.697   5.994  0.1626 -0.1554 -0.9840
 3578TIP3    H232226   5.639   3.565   5.976 -0.6915  0.2238 -0.4057
 3579TIP3   OH232227   3.950   0.349  12.107  0.3505  0.2467 -0.0877
 3579TIP3    H132228   4.005   0.376  12.181 -1.1353 -3.6724  2.6166
 3579TIP3    H232229   3.881   0.415  12.104  1.2036  1.2473  1.0934
 3580TIP3   OH232230   1.970   1.592   5.284  0.2365 -0.9100  0.2294
 3580TIP3    H132231   1.886   1.624   5.317  0.8936  0.7024  0.3836
 3580TIP3    H232232   1.999   1.529   5.350  0.4480  0.5914  1.6075
 3581TIP3   OH232233   0.887   3.162  14.970 -0.1709 -0.3588  0.4537
 3581TIP3    H132234   0.876   3.152  15.064  0.2270 -1.3206  0.3972
 3581TIP3    H232235   0.868   3.076  14.933 -1.3784  0.2662 -0.4509
 3582TIP3   OH232236   1.726   3.991  16.838 -0.5395 -0.1204 -0.1126
 3582TIP3    H132237   1.695   4.038  16.760 -0.9191  0.1825  0.2142
 3582TIP3    H232238   1.777   4.056  16.886 -2.3473  0.4270  1.1140
 3583TIP3   OH232239   4.506   2.034  12.283  0.7917  0.3298  0.1088
 3583TIP3    H132240   4.434   2.034  12.346  1.9757 -0.3555  1.4887
 3583TIP3    H232241   4.464   2.052  12.199 -1.1290 -1.1117  0.7148
 3584TIP3   OH232242   0.122   6.016   5.713  0.4618  1.5372  0.1675
 3584TIP3    H132243   0.075   5.938   5.682  2.4404  0.5364 -0.3750
 3584TIP3    H232244   0.061   6.057   5.775 -1.5526  0.8573 -1.2815
 3585TIP3   OH232245   4.900   4.214  15.359 -0.7197 -0.1161 -0.2255
 3585TIP3    H132246   4.846   4.138  15.377  0.1074 -0.5126  0.5934
 3585TIP3    H232247   4.939   4.196  15.273 -2.2343  0.3874 -1.0406
 3586TIP3   OH232248   3.856   3.710   4.347  0.0215  0.3202 -0.0042
 3586TIP3    H132249   3.861   3.781   4.410  0.3964 -0.2879  0.6589
 3586TIP3    H232250   3.764   3.681   4.350  0.2489 -0.3337  0.9691
 3587TIP3   OH232251   2.660   4.254   0.250 -0.4591 -0.2677 -0.6787
 3587TIP3    H132252   2.700   4.332   0.212 -2.1633 -0.4997 -3.0690
 3587TIP3    H232253   2.606   4.287   0.321  1.0612  0.4146  0.1810
 3588TIP3   OH232254   0.442   0.574   1.434 -0.2513  0.4903  0.3137
 3588TIP3    H132255   0.381   0.561   1.361  0.5665 -0.4367 -0.2196
 3588TIP3    H232256   0.399   0.639   1.490 -2.0661 -0.7175  0.3471
 3589TIP3   OH232257   3.896   4.920  13.643 -0.1865  0.2102 -0.1701
 3589TIP3    H132258   3.832   4.896  13.576 -0.5126 -0.3220  0.3186
 3589TIP3    H232259   3.972   4.950  13.594 -1.4584  2.5979 -0.7642
 3590TIP3   OH232260   5.689   1.908   4.441  0.5775  0.2200 -0.4302
 3590TIP3    H132261   5.774   1.896   4.483  0.5497 -0.4418 -0.5598
 3590TIP3    H232262   5.656   1.819   4.426 -1.0449  0.4698  1.4160
 3591TIP3   OH232263   4.176   1.886   3.131 -0.2566  0.1075 -0.2791
 3591TIP3    H132264   4.202   1.797   3.110  1.6180  0.4634  0.4222
 3591TIP3    H232265   4.134   1.880   3.217  1.9005  0.1842  0.8212
 3592TIP3   OH232266   3.581   0.272  13.413 -0.5880 -0.4318 -0.5027
 3592TIP3    H132267   3.575   0.223  13.495  0.0264 -1.1844 -0.8949
 3592TIP3    H232268   3.621   0.210  13.352  0.8005  0.7867 -0.8367
 3593TIP3   OH232269   1.546   6.811  14.023 -0.1655  0.1956  0.1337
 3593TIP3    H132270   1.634   6.798  13.987 -0.7206 -1.0029 -0.8391
 3593TIP3    H232271   1.517   6.723  14.047 -0.8933  0.6533  0.9792
 3594TIP3   OH232272   0.957   5.004   6.390  0.1404  0.5218  0.0229
 3594TIP3    H132273   1.015   5.079   6.379 -1.0895  1.3528 -0.9862
 3594TIP3    H232274   0.884   5.021   6.330  0.3963 -2.0532 -1.0987
 3595TIP3   OH232275   2.055   2.141   0.307 -0.1834 -0.2275  0.0125
 3595TIP3    H132276   2.053   2.237   0.302  0.6757 -0.1423  1.1738
 3595TIP3    H232277   2.115   2.114   0.238  1.8413  0.2485  1.5286
 3596TIP3   OH232278   2.632   3.426   2.572 -0.5370 -0.0967  0.0961
 3596TIP3    H132279   2.712   3.398   2.617 -0.0065  0.0495 -0.7295
 3596TIP3    H232280   2.611   3.511   2.610  0.3697  0.3999 -0.4833
 3597TIP3   OH232281   1.449   3.889  16.555 -0.5817 -0.0311  0.6428
 3597TIP3    H132282   1.543   3.904  16.565 -0.3459 -0.5411 -0.7244
 3597TIP3    H232283   1.409   3.972  16.580  0.3493  0.8803 -0.8213
 3598TIP3   OH232284   6.416   0.734  14.782  0.0709  0.4828 -0.4396
 3598TIP3    H132285   6.320   0.740  14.786  0.1258  1.0865  0.0401
 3598TIP3    H232286   6.445   0.824  14.767  0.6519  0.5425  1.0361
 3599TIP3   OH232287   1.192   1.226   1.649 -0.1066 -0.1569  0.3814
 3599TIP3    H132288   1.101   1.198   1.638 -0.7278  1.1419  2.0716
 3599TIP3    H232289   1.213   1.205   1.740  1.8336 -1.9587 -0.4398
 3600TIP3   OH232290   3.883   1.423   1.470  0.3256 -0.4483 -0.1099
 3600TIP3    H132291   3.903   1.488   1.402 -1.1256 -3.1773 -3.3519
 3600TIP3    H232292   3.965   1.377   1.484  0.5661 -0.0747 -0.2662
 3601TIP3   OH232293   2.169   1.422   1.280 -0.5794 -0.2323  0.2433
 3601TIP3    H132294   2.144   1.340   1.238 -0.6066  0.0338 -0.2600
 3601TIP3    H232295   2.133   1.490   1.223  1.2679  0.1551 -0.4866
 3602TIP3   OH232296   4.708   1.688  13.135  0.1294 -0.0141  0.6157
 3602TIP3    H132297   4.678   1.601  13.161  0.9520  0.0289  1.7348
 3602TIP3    H232298   4.791   1.672  13.089  0.6863  0.2261  1.5147
 3603TIP3   OH232299   6.442   2.749   3.767  0.1958  0.0089 -0.0788
 3603TIP3    H132300   6.531   2.716   3.774  0.2269  0.3822  1.4194
 3603TIP3    H232301   6.407   2.708   3.688  1.2675 -1.1439  0.0387
 3604TIP3   OH232302   5.553   4.129  16.328  0.4040  0.7050 -0.8742
 3604TIP3    H132303   5.620   4.090  16.383 -1.8256  0.6189  1.8715
 3604TIP3    H232304   5.477   4.073  16.339 -0.3611  1.2033 -3.3734
 3605TIP3   OH232305   0.303   4.985   3.399 -0.3129  0.0732  0.3248
 3605TIP3    H132306   0.217   4.945   3.404 -0.3620  0.1424  0.0338
 3605TIP3    H232307   0.287   5.079   3.403 -0.3067  0.1109 -0.4520
 3606TIP3   OH232308   3.971   3.626  14.035  0.3291 -0.3964 -0.5891
 3606TIP3    H132309   3.906   3.571  13.990 -0.1405  0.9150 -1.5277
 3606TIP3    H232310   4.030   3.563  14.077  0.2715 -1.6552 -2.3230
 3607TIP3   OH232311   5.897   5.565  14.725  0.3648 -0.0110 -0.0358
 3607TIP3    H132312   5.978   5.605  14.756  0.6473 -0.6821  0.0887
 3607TIP3    H232313   5.890   5.593  14.634 -0.2068  1.5463  0.4619
 3608TIP3   OH232314   2.334   5.836   4.451  0.0825  0.3910  0.2951
 3608TIP3    H132315   2.247   5.863   4.425 -0.5268 -1.3997  0.4027
 3608TIP3    H232316   2.383   5.828   4.369 -0.5006 -0.7589  0.0577
 3609TIP3   OH232317   6.216   6.507   2.187  0.1552  0.6095  0.5088
 3609TIP3    H132318   6.212   6.421   2.146  0.3160  0.5190  0.6801
 3609TIP3    H232319   6.263   6.561   2.123 -0.1164  0.6205  0.3175
 3610TIP3   OH232320   2.660   6.171  17.279 -0.6226  0.3380  0.3165
 3610TIP3    H132321   2.602   6.150  17.207 -1.0410  2.4986 -0.0070
 3610TIP3    H232322   2.602   6.196  17.351 -0.1505  0.5622  0.6247
 3611TIP3   OH232323   6.557   6.463  11.613  0.2764  0.2965  0.0178
 3611TIP3    H132324   6.508   6.385  11.639  0.3403  0.0036 -0.7248
 3611TIP3    H232325   6.625   6.472  11.679 -0.7826  0.7102  1.0714
 3612TIP3   OH232326   0.068   6.738  11.657 -0.0135  0.4138 -0.4942
 3612TIP3    H132327   0.052   6.646  11.679 -2.7250  1.2425  1.2085
 3612TIP3    H232328   0.109   6.734  11.570  2.4102 -2.4994  0.6972
 3613TIP3   OH232329   2.067   5.467   5.585  0.0590 -0.0777  0.1155
 3613TIP3    H132330   1.975   5.479   5.561  0.0505  2.8156  1.2989
 3613TIP3    H232331   2.076   5.512   5.669  2.9690  1.4803 -0.9219
 3614TIP3   OH232332   5.887   1.793   2.676 -0.3152 -0.4489  0.1377
 3614TIP3    H132333   5.921   1.820   2.591  0.1876  0.8104  0.7277
 3614TIP3    H232334   5.812   1.737   2.655 -1.4285  1.4537 -1.1215
 3615TIP3   OH232335   3.017   5.038  12.445  0.2248  0.5638  0.0194
 3615TIP3    H132336   3.018   4.984  12.524 -0.5737  0.2689 -0.1665
 3615TIP3    H232337   3.069   5.115  12.467  0.8478  0.0027  0.4958
 3616TIP3   OH232338   4.588   6.584   4.396  0.3619  0.0044 -0.6233
 3616TIP3    H132339   4.629   6.628   4.470  1.1952  0.3225 -1.2594
 3616TIP3    H232340   4.620   6.494   4.400  0.4533  0.0364 -0.6329
 3617TIP3   OH232341   2.335   6.269  16.387  0.1176  0.1138  0.4041
 3617TIP3    H132342   2.268   6.202  16.398 -0.0915  0.3781  0.7825
 3617TIP3    H232343   2.359   6.265  16.295  0.9076 -1.2305  0.6581
 3618TIP3   OH232344   0.862   5.136   5.667 -0.1016 -0.4236 -0.3416
 3618TIP3    H132345   0.851   5.043   5.686 -0.0381 -0.1580  1.0527
 3618TIP3    H232346   0.776   5.174   5.685  1.1329  0.5817  4.0946
 3619TIP3   OH232347   6.658   5.324  13.809 -0.2034 -0.2842 -0.4554
 3619TIP3    H132348   6.707   5.357  13.884 -1.5562 -1.7927  1.1484
 3619TIP3    H232349   6.569   5.355  13.823 -0.4891 -0.6826 -1.3599
 3620TIP3   OH232350   5.191   1.377  11.422 -0.4910 -0.4618 -0.2901
 3620TIP3    H132351   5.144   1.381  11.506  0.4956  0.1318  0.2475
 3620TIP3    H232352   5.153   1.449  11.370  0.6315  0.7916  0.5841
 3621TIP3   OH232353   3.308   4.181   1.934 -0.0860 -0.2334  0.5644
 3621TIP3    H132354   3.253   4.203   2.009 -1.2605  1.1705 -0.6889
 3621TIP3    H232355   3.304   4.086   1.928  1.7290 -0.5552  3.5581
 3622TIP3   OH232356   0.427   3.429   0.173 -0.6480 -0.0491  0.3159
 3622TIP3    H132357   0.406   3.396   0.086 -1.9137 -2.0089  1.3420
 3622TIP3    H232358   0.504   3.485   0.159 -2.5513  2.0312 -2.4892
 3623TIP3   OH232359   0.454   0.900   5.198 -0.1856  0.2433 -0.2374
 3623TIP3    H132360   0.445   0.899   5.293 -0.2740 -0.3530 -0.2494
 3623TIP3    H232361   0.368   0.930   5.166 -0.4782 -0.4837 -0.1581
 3624TIP3   OH232362   6.464   4.534   3.585 -0.0587  0.5754 -0.2802
 3624TIP3    H132363   6.554   4.546   3.557  0.4230 -0.8911  0.5855
 3624TIP3    H232364   6.459   4.578   3.671 -0.4440  1.5082 -0.7676
 3625TIP3   OH232365   6.414   2.332   5.965  0.2673  0.0975  0.2331
 3625TIP3    H132366   6.321   2.352   5.961  0.4553  0.5311 -2.3244
 3625TIP3    H232367   6.436   2.340   6.058 -1.6631  2.5201  0.5142
 3626TIP3   OH232368   4.456   5.059  12.883 -0.1778 -0.4628 -0.0553
 3626TIP3    H132369   4.534   5.020  12.845  1.0699  0.6835  1.2914
 3626TIP3    H232370   4.393   4.987  12.888  1.8579 -2.1824  1.8449
 3627TIP3   OH232371   2.267   1.283   5.022  0.0142 -0.2336 -0.1811
 3627TIP3    H132372   2.261   1.299   5.116  0.6687 -3.4614  0.4446
 3627TIP3    H232373   2.206   1.346   4.984  0.1421  1.5136  2.3225
 3628TIP3   OH232374   1.671   1.046   5.291 -0.1370  0.1304  0.1411
 3628TIP3    H132375   1.620   1.050   5.371 -0.0583  1.0700  0.1547
 3628TIP3    H232376   1.703   1.135   5.279 -0.5634  0.1183 -1.2009
 3629TIP3   OH232377   5.044   6.510  13.326 -1.0181 -0.1657  0.3465
 3629TIP3    H132378   4.974   6.449  13.352 -0.1744 -2.4984 -2.4709
 3629TIP3    H232379   5.023   6.532  13.235 -0.1710  2.1723  0.6991
 3630TIP3   OH232380   3.065   3.616  14.038  0.3181 -0.8319  0.4686
 3630TIP3    H132381   2.974   3.601  14.063 -0.2087 -3.4593 -2.6949
 3630TIP3    H232382   3.108   3.532  14.053  1.9722  0.0506  0.7962
 3631TIP3   OH232383   1.103   1.474   3.176 -0.3271 -0.2176 -0.0108
 3631TIP3    H132384   1.016   1.436   3.178 -0.9822  1.1803 -1.0310
 3631TIP3    H232385   1.105   1.534   3.250 -0.8330  1.0197 -0.9943
 3632TIP3   OH232386   6.223   4.485   4.004 -0.0719  0.0078 -0.1802
 3632TIP3    H132387   6.194   4.574   3.982  1.0032  0.0560 -1.5148
 3632TIP3    H232388   6.316   4.484   3.982  0.1452 -1.1643  0.7428
 3633TIP3   OH232389   2.489   3.815  13.963 -0.0792  0.3187 -0.4526
 3633TIP3    H132390   2.438   3.862  13.896 -0.0700 -0.0442 -0.7199
 3633TIP3    H232391   2.554   3.766  13.913 -0.3173 -0.2560 -0.2031
 3634TIP3   OH232392   5.296   4.609   0.284 -0.0257 -0.5975  0.3540
 3634TIP3    H132393   5.327   4.541   0.225 -2.3169 -0.5491 -0.9586
 3634TIP3    H232394   5.375   4.653   0.314  1.2228 -1.2585 -1.9084
 3635TIP3   OH232395   2.207   2.073  12.282 -0.0911  0.0678 -0.3809
 3635TIP3    H132396   2.176   2.049  12.195 -1.4569 -0.7658  0.3182
 3635TIP3    H232397   2.128   2.074  12.336  0.7762  0.3372  0.9050
 3636TIP3   OH232398   4.654   4.800   4.941  0.1125 -0.1144  0.2007
 3636TIP3    H132399   4.564   4.812   4.971 -0.0472 -0.5707 -0.0999
 3636TIP3    H232400   4.678   4.712   4.970  0.2766 -0.2034 -0.2015
 3637TIP3   OH232401   1.646   5.369  13.509  0.6566  0.1186 -0.2486
 3637TIP3    H132402   1.714   5.349  13.573  0.7363  1.7045  0.2014
 3637TIP3    H232403   1.630   5.287  13.464 -1.0342 -1.6244  3.3425
 3638TIP3   OH232404   1.875   3.090   4.047 -0.1304  0.1619  0.4675
 3638TIP3    H132405   1.942   3.052   4.103 -0.7132  0.4751  1.3952
 3638TIP3    H232406   1.792   3.068   4.090 -0.7132 -1.3852 -1.3733
 3639TIP3   OH232407   2.677   3.473   5.752 -0.3029  0.9393 -0.0894
 3639TIP3    H132408   2.757   3.458   5.801 -1.8363 -3.0055  1.3883
 3639TIP3    H232409   2.607   3.447   5.811 -2.4889  1.0383 -2.5444
 3640TIP3   OH232410   6.253   2.788  16.077 -0.1067 -0.2696  1.0724
 3640TIP3    H132411   6.245   2.700  16.114  1.1210 -0.6508  0.4343
 3640TIP3    H232412   6.200   2.786  15.997 -1.0906 -0.0439  1.7012
 3641TIP3   OH232413   1.105   4.246  17.106 -0.1357 -0.3532  0.1789
 3641TIP3    H132414   1.104   4.176  17.172  0.7584 -0.8709 -0.3367
 3641TIP3    H232415   1.118   4.326  17.157 -1.4290 -0.5311  0.8013
 3642TIP3   OH232416   3.751   5.820  11.354  0.4426 -0.3277 -0.4061
 3642TIP3    H132417   3.683   5.776  11.404  1.3702 -0.0912  1.0910
 3642TIP3    H232418   3.711   5.838  11.269 -0.1979 -3.2859 -0.7504
 3643TIP3   OH232419   4.299   0.521   3.741 -0.2743  0.0289 -0.4373
 3643TIP3    H132420   4.377   0.469   3.723 -0.7304 -0.1539 -1.9331
 3643TIP3    H232421   4.331   0.597   3.788  0.5837 -0.8982  0.5130
 3644TIP3   OH232422   0.228   2.811  13.168 -0.5913 -0.0716  0.4662
 3644TIP3    H132423   0.313   2.857  13.173  0.2536 -1.5883  0.3584
 3644TIP3    H232424   0.169   2.874  13.127  0.7971  0.5795 -0.5833
 3645TIP3   OH232425   5.481   3.665  15.186 -0.1949 -0.0069 -0.2857
 3645TIP3    H132426   5.472   3.744  15.133  0.9868  0.0083 -0.4670
 3645TIP3    H232427   5.567   3.631  15.164 -1.4677 -2.4160 -1.6390
 3646TIP3   OH232428   2.804   0.412  15.457 -0.3047 -0.3281  0.2809
 3646TIP3    H132429   2.860   0.368  15.522  0.9754 -0.5305 -0.9253
 3646TIP3    H232430   2.751   0.473  15.508  0.3281 -0.8465  1.5766
 3647TIP3   OH232431   5.624   2.990  15.119  0.0344 -0.1922  0.1213
 3647TIP3    H132432   5.571   2.911  15.130 -0.3340 -0.4047 -2.7105
 3647TIP3    H232433   5.561   3.062  15.129 -0.4253 -0.3919 -1.2109
 3648TIP3   OH232434   5.025   4.339  12.068 -0.3766 -0.2926  0.4421
 3648TIP3    H132435   5.094   4.405  12.080 -0.0609 -0.6602  0.6560
 3648TIP3    H232436   4.986   4.360  11.983 -1.1847  1.0053  1.1142
 3649TIP3   OH232437   6.140   2.962   0.446  0.5727  0.2371 -0.0305
 3649TIP3    H132438   6.115   3.053   0.432 -0.2963  0.2657  1.6509
 3649TIP3    H232439   6.147   2.952   0.541 -1.3259 -1.9507 -0.0585
 3650TIP3   OH232440   0.107   6.151   2.810  0.1083  0.3638 -1.0336
 3650TIP3    H132441   0.059   6.069   2.819 -1.1842  1.2105  0.0710
 3650TIP3    H232442   0.095   6.177   2.719 -1.8993  0.7639 -0.6789
 3651TIP3   OH232443   2.654   3.985  12.623 -0.4505 -0.7300  0.1219
 3651TIP3    H132444   2.581   3.973  12.562 -0.1878  0.3696 -0.4132
 3651TIP3    H232445   2.630   4.062  12.674  2.2672  2.2990 -2.9467
 3652TIP3   OH232446   1.992   2.543   6.027  0.1005 -0.3780  0.1642
 3652TIP3    H132447   2.016   2.589   6.107 -0.3008 -0.4750  0.3434
 3652TIP3    H232448   2.072   2.541   5.975  1.0050 -2.4216  1.5775
 3653TIP3   OH232449   6.111   3.900  10.868 -0.0546  0.0677  0.5121
 3653TIP3    H132450   6.083   3.866  10.783  0.9104 -2.6067  1.1941
 3653TIP3    H232451   6.054   3.857  10.931 -0.2757  1.4751  1.2904
 3654TIP3   OH232452   2.771   4.847   4.201  0.5179  0.1489 -0.9639
 3654TIP3    H132453   2.683   4.885   4.203  1.3654  2.1339 -0.3485
 3654TIP3    H232454   2.785   4.816   4.290  0.1230 -0.9628 -1.2782
 3655TIP3   OH232455   1.522   2.742   5.728  0.1534 -0.1322  0.3301
 3655TIP3    H132456   1.496   2.650   5.728 -0.7277  0.1067  1.7027
 3655TIP3    H232457   1.551   2.759   5.817 -0.3434  1.0945  0.2754
 3656TIP3   OH232458   0.517   5.620  10.520  0.1652 -0.0088 -0.3866
 3656TIP3    H132459   0.446   5.660  10.571  0.2952 -0.9318  0.5507
 3656TIP3    H232460   0.473   5.581  10.445 -0.0377  1.3374 -0.9741
 3657TIP3   OH232461   3.641   1.463  15.353 -0.0134 -0.5670 -0.5084
 3657TIP3    H132462   3.607   1.492  15.437 -0.9143  1.8427 -1.6820
 3657TIP3    H232463   3.732   1.438  15.372  0.3696  1.7039  0.8222
 3658TIP3   OH232464   1.782   1.735  11.827 -0.2238 -0.0435 -0.7609
 3658TIP3    H132465   1.750   1.715  11.739 -1.0213  0.4745 -0.5926
 3658TIP3    H232466   1.815   1.824  11.822 -1.1168  0.3197 -0.3119
 3659TIP3   OH232467   5.659   3.910  16.099  0.3624  0.5193 -1.4523
 3659TIP3    H132468   5.618   3.988  16.063 -0.5775  0.8953  0.3882
 3659TIP3    H232469   5.746   3.938  16.126  0.2618  0.7621 -1.3874
 3660TIP3   OH232470   6.001   3.064   1.009 -0.0691 -0.9278 -0.4892
 3660TIP3    H132471   6.051   3.133   1.053  1.7336 -1.7468 -1.2271
 3660TIP3    H232472   5.933   3.040   1.072  0.8396 -0.2252  0.7822
 3661TIP3   OH232473   1.005   3.547  14.889  0.2888 -0.2752  0.0809
 3661TIP3    H132474   0.956   3.489  14.831  0.6287 -0.5600  0.0803
 3661TIP3    H232475   0.998   3.633  14.848  3.0094 -0.9898 -1.9488
 3662TIP3   OH232476   3.552   2.447  11.416  0.2122  0.3416  0.4835
 3662TIP3    H132477   3.617   2.515  11.435  0.6232 -0.1802  0.9696
 3662TIP3    H232478   3.600   2.383  11.363 -0.0870  0.2794  0.2864
 3663TIP3   OH232479   3.034   6.763  13.513 -0.6334 -0.3763  0.1865
 3663TIP3    H132480   2.958   6.778  13.457 -0.3831 -1.4273 -0.4463
 3663TIP3    H232481   3.012   6.684  13.562 -0.9623  0.6870  1.7797
 3664TIP3   OH232482   4.578   3.549   4.496  0.3025 -0.4766  0.5761
 3664TIP3    H132483   4.657   3.497   4.513  0.9853 -0.3190 -1.8846
 3664TIP3    H232484   4.596   3.634   4.535  0.7403 -0.9056  1.3162
 3665TIP3   OH232485   6.161   5.434   4.664 -0.2224 -0.8313 -0.0760
 3665TIP3    H132486   6.246   5.468   4.690 -0.9903  0.8891  0.3342
 3665TIP3    H232487   6.124   5.397   4.744 -0.2400 -0.6982 -0.0211
 3666TIP3   OH232488   6.670   5.069  10.584 -0.0695 -0.0039  0.2090
 3666TIP3    H132489   6.596   5.009  10.590 -3.1987  3.7544  1.4812
 3666TIP3    H232490   6.693   5.088  10.675  1.1557  0.4493 -0.1840
 3667TIP3   OH232491   1.673   3.437   4.085  0.7839  0.0961  0.6015
 3667TIP3    H132492   1.592   3.395   4.114  0.9389 -0.8794 -0.3886
 3667TIP3    H232493   1.657   3.530   4.097 -1.1707  0.0335 -1.3139
 3668TIP3   OH232494   4.136   4.065  14.828 -0.2223  0.8876 -0.4701
 3668TIP3    H132495   4.179   3.987  14.795  0.4510  0.9737  0.2080
 3668TIP3    H232496   4.201   4.135  14.820 -0.3947  1.1194  0.1034
 3669TIP3   OH232497   1.080   1.393   3.704 -0.4688  0.2525  0.1904
 3669TIP3    H132498   1.174   1.407   3.697 -0.2994 -0.5024  0.8539
 3669TIP3    H232499   1.043   1.481   3.715 -0.0234  0.7166 -1.8931
 3670TIP3   OH232500   0.191   1.670   1.450 -0.0992 -0.5868 -0.2239
 3670TIP3    H132501   0.171   1.746   1.395  1.2623 -0.6059 -0.7773
 3670TIP3    H232502   0.153   1.596   1.404 -1.0518 -0.3080  0.0952
 3671TIP3   OH232503   1.556   0.451  15.716 -0.2575 -0.6620  0.2507
 3671TIP3    H132504   1.595   0.510  15.652 -0.4561 -0.3809  0.3905
 3671TIP3    H232505   1.532   0.373  15.665  1.8526 -1.4572  0.4266
 3672TIP3   OH232506   3.751   1.408   3.510  0.7378  0.4444  0.2944
 3672TIP3    H132507   3.773   1.488   3.462  1.7966 -0.7141 -1.2002
 3672TIP3    H232508   3.655   1.403   3.505  0.6541  1.6908  0.5331
 3673TIP3   OH232509   6.336   2.949   1.706  0.0885  0.4396 -0.0100
 3673TIP3    H132510   6.427   2.942   1.734 -0.0116  1.9225  0.7312
 3673TIP3    H232511   6.321   2.869   1.654  0.7990 -1.5165  2.6625
 3674TIP3   OH232512   2.255   2.733   0.917  0.0694  0.2779  0.4130
 3674TIP3    H132513   2.193   2.702   0.851  0.4628  1.0011 -0.3113
 3674TIP3    H232514   2.334   2.681   0.901  1.0181  2.1526 -1.3533
 3675TIP3   OH232515   2.519   5.480  11.199  0.0480 -0.3729 -0.0254
 3675TIP3    H132516   2.479   5.564  11.175 -0.0378 -0.3961  0.0369
 3675TIP3    H232517   2.451   5.434  11.248 -0.1377 -0.7567 -0.6467
 3676TIP3   OH232518   1.782   3.611  11.505 -0.2364 -0.2082 -0.3051
 3676TIP3    H132519   1.697   3.592  11.466 -0.7678  0.5397  0.4924
 3676TIP3    H232520   1.841   3.545  11.467 -1.5168 -1.8048  0.4733
 3677TIP3   OH232521   4.903   0.459   0.027 -0.4433 -0.1350 -0.4526
 3677TIP3    H132522   4.830   0.456  -0.035  0.0898 -1.2628 -1.0338
 3677TIP3    H232523   4.931   0.550   0.026 -0.9375  0.0162 -1.2918
 3678TIP3   OH232524   4.442   6.603   1.037 -0.1225 -0.4810 -0.3205
 3678TIP3    H132525   4.491   6.521   1.030  0.0996 -0.3246 -0.6237
 3678TIP3    H232526   4.362   6.579   1.083  0.4277 -0.6511  0.5625
 3679TIP3   OH232527   2.503   6.207  13.124  0.0549 -0.8034  0.0960
 3679TIP3    H132528   2.482   6.230  13.214  0.5983  1.6946 -0.3854
 3679TIP3    H232529   2.422   6.221  13.076 -0.1411 -1.8113  0.1110
 3680TIP3   OH232530   3.240   0.725  13.597 -0.5152 -0.1895 -0.3692
 3680TIP3    H132531   3.312   0.696  13.541  0.5354  1.5605  0.0258
 3680TIP3    H232532   3.168   0.743  13.537 -0.1130 -0.4816 -0.9397
 3681TIP3   OH232533   5.197   0.553  16.191  0.1360 -0.2278  0.0052
 3681TIP3    H132534   5.199   0.519  16.101  1.5320  0.2718 -0.1566
 3681TIP3    H232535   5.202   0.475  16.246 -0.7303 -0.5360 -0.3338
 3682TIP3   OH232536   5.898   6.521  14.349 -0.4928  0.2931 -0.1776
 3682TIP3    H132537   5.918   6.567  14.268  2.9532 -2.1987 -0.8357
 3682TIP3    H232538   5.885   6.430  14.323 -0.3018 -0.3633  1.9139
 3683TIP3   OH232539   2.467   4.607   1.107  0.5444  0.5587 -0.4485
 3683TIP3    H132540   2.477   4.557   1.026 -2.3343  0.4766 -0.8263
 3683TIP3    H232541   2.432   4.691   1.079  1.9115  1.4754  0.5130
 3684TIP3   OH232542   4.418   3.494   2.713 -0.0212 -0.4302 -0.1688
 3684TIP3    H132543   4.411   3.491   2.809  2.0496 -1.4528 -0.0128
 3684TIP3    H232544   4.430   3.587   2.693 -0.7824 -0.1694  0.5250
 3685TIP3   OH232545   3.583   4.887   0.101  0.2222 -0.8714  0.1965
 3685TIP3    H132546   3.539   4.971   0.086  1.4648 -0.1431  0.5962
 3685TIP3    H232547   3.586   4.878   0.196 -1.1760 -2.0626  0.1515
 3686TIP3   OH232548   6.290   4.579  15.719  0.4182  0.0196 -0.5478
 3686TIP3    H132549   6.287   4.534  15.803 -0.9904  0.8546 -0.1263
 3686TIP3    H232550   6.376   4.622  15.718  0.2116  0.4953  0.7317
 3687TIP3   OH232551   0.605   4.742   6.077 -0.0080 -0.2729  0.6873
 3687TIP3    H132552   0.577   4.766   6.166 -2.4617 -1.2813  0.2248
 3687TIP3    H232553   0.580   4.650   6.069  0.2794 -0.2042 -1.0361
 3688TIP3   OH232554   4.550   1.833   5.351  0.1035 -0.1371 -0.1917
 3688TIP3    H132555   4.638   1.806   5.326  0.5495  2.6430 -1.7836
 3688TIP3    H232556   4.494   1.804   5.279 -0.0547 -0.4754  0.0634
 3689TIP3   OH232557   6.126   5.928   3.336  0.2191 -0.4200 -1.0822
 3689TIP3    H132558   6.065   5.951   3.407 -0.1202 -0.5945 -1.3115
 3689TIP3    H232559   6.211   5.918   3.379  0.0991 -0.0861 -0.7731
 3690TIP3   OH232560   6.532   0.348  13.970 -0.5653  0.5045 -0.0745
 3690TIP3    H132561   6.605   0.343  14.032 -0.5993  1.3878  0.0518
 3690TIP3    H232562   6.568   0.318  13.887 -0.5643 -0.8548  0.4009
 3691TIP3   OH232563   0.168   4.091  12.413 -0.4402 -0.2302  0.1642
 3691TIP3    H132564   0.104   4.130  12.354 -0.7009  2.5910  2.2387
 3691TIP3    H232565   0.146   3.997  12.412 -1.9396  0.0782 -2.3117
 3692TIP3   OH232566   3.878   0.382   2.693  0.2203  0.0740 -0.2727
 3692TIP3    H132567   3.939   0.456   2.702 -0.1532  0.2630  0.7708
 3692TIP3    H232568   3.890   0.332   2.774  1.7452 -1.9874 -1.7218
 3693TIP3   OH232569   2.558   3.193  13.057 -0.1390  0.5908  0.4621
 3693TIP3    H132570   2.595   3.156  13.137 -0.0991  2.4769  1.3258
 3693TIP3    H232571   2.532   3.116  13.006  1.0319 -0.6639  1.6958
 3694TIP3   OH232572   1.648   3.598   1.093 -0.0938  0.1146  0.1392
 3694TIP3    H132573   1.733   3.634   1.119  0.4993  0.7362 -2.5840
 3694TIP3    H232574   1.596   3.601   1.174  2.1954  0.4210  1.6692
 3695TIP3   OH232575   0.994   0.852  16.041 -0.4114 -0.3867 -0.1699
 3695TIP3    H132576   0.971   0.915  15.973 -0.0490  1.3823  1.2912
 3695TIP3    H232577   0.922   0.790  16.043 -1.7117  1.0904 -0.3512
 3696TIP3   OH232578   0.956   6.421   4.034 -0.2688  0.2272  0.4746
 3696TIP3    H132579   0.994   6.358   3.973  0.1603 -0.2196  1.1898
 3696TIP3    H232580   0.865   6.394   4.043  0.0679 -0.6823  1.2592
 3697TIP3   OH232581   5.417   1.801   4.882 -0.3908  0.5590  0.5915
 3697TIP3    H132582   5.448   1.719   4.920  0.1014  0.4309 -0.0662
 3697TIP3    H232583   5.332   1.816   4.923 -2.1586 -2.1313 -1.8748
 3698TIP3   OH232584   0.452   5.652   3.470  0.1492 -0.1437  0.1644
 3698TIP3    H132585   0.486   5.739   3.449  0.9265 -0.3252  0.6216
 3698TIP3    H232586   0.529   5.595   3.464 -0.3197 -0.7615  0.0613
 3699TIP3   OH232587   2.433   6.496  12.806  0.0155  0.3035  0.1820
 3699TIP3    H132588   2.456   6.509  12.898 -0.2582  0.7701  0.1839
 3699TIP3    H232589   2.445   6.402  12.791  2.9050  0.6712 -0.0850
 3700TIP3   OH232590   3.435   3.889   6.344  0.7732 -0.3521 -0.2659
 3700TIP3    H132591   3.463   3.826   6.411  1.7428  0.8662  0.4970
 3700TIP3    H232592   3.509   3.950   6.336 -0.4232  1.1034 -0.4700
 3701TIP3   OH232593   3.362   3.338  15.912  0.0129  0.2656  0.2378
 3701TIP3    H132594   3.337   3.292  15.831 -0.2849  2.0307 -0.7015
 3701TIP3    H232595   3.308   3.298  15.980 -0.6418 -0.4006 -0.6559
 3702TIP3   OH232596   3.093   2.989  12.760  0.3029 -0.4140  0.0618
 3702TIP3    H132597   3.041   2.963  12.836 -0.4226  0.4346 -0.1288
 3702TIP3    H232598   3.181   2.960  12.779 -0.0327 -0.8747  0.8974
 3703TIP3   OH232599   3.894   1.930   2.664 -0.0208 -0.0380 -0.0396
 3703TIP3    H132600   3.818   1.941   2.721  1.0678 -1.2044  1.6511
 3703TIP3    H232601   3.861   1.952   2.577 -1.9066  0.9660  0.8911
 3704TIP3   OH232602   4.740   6.439  13.345 -0.2643 -0.2484 -0.2336
 3704TIP3    H132603   4.727   6.376  13.275 -1.6751 -1.2650  0.9179
 3704TIP3    H232604   4.718   6.524  13.305  0.8085 -0.5740 -1.5385
 3705TIP3   OH232605   5.230   6.129  12.119 -0.0385  0.1021  0.9273
 3705TIP3    H132606   5.161   6.095  12.062  0.7990  0.9608 -0.6015
 3705TIP3    H232607   5.229   6.070  12.195 -0.0718 -2.0217 -0.6847
 3706TIP3   OH232608   0.922   2.377  12.591 -0.4672 -0.6969  0.7809
 3706TIP3    H132609   0.838   2.354  12.629 -0.6349 -1.9393 -0.3378
 3706TIP3    H232610   0.902   2.410  12.504  0.2635 -1.8725  0.1481
 3707TIP3   OH232611   5.823   0.859  16.550  0.0516  0.2259 -0.2162
 3707TIP3    H132612   5.905   0.856  16.599  0.7435  1.6525 -1.2613
 3707TIP3    H232613   5.841   0.811  16.469 -1.0704 -2.0686  0.8593
 3708TIP3   OH232614   1.684   5.278  12.969  0.0600 -0.0328 -0.6814
 3708TIP3    H132615   1.690   5.368  13.001 -2.1431 -0.6979  1.8153
 3708TIP3    H232616   1.718   5.224  13.040 -0.7074 -1.3052 -1.2496
 3709TIP3   OH232617   3.612   6.307  12.031  0.1602  0.1104 -0.2393
 3709TIP3    H132618   3.562   6.267  11.959  2.2069 -1.0382 -1.0804
 3709TIP3    H232619   3.608   6.242  12.102  2.2067 -0.9997 -1.0737
 3710TIP3   OH232620   3.514   2.970  15.458 -0.3533  0.5274 -0.2160
 3710TIP3    H132621   3.561   2.887  15.458 -1.6185 -0.2093 -0.1307
 3710TIP3    H232622   3.421   2.945  15.453 -0.7671  1.9144  0.2522
 3711TIP3   OH232623   5.024   4.476   1.146 -0.6643  0.3856  0.0928
 3711TIP3    H132624   5.019   4.405   1.211 -1.4394 -0.6949 -1.1352
 3711TIP3    H232625   5.117   4.499   1.143 -0.0680 -2.1140 -1.1277
 3712TIP3   OH232626   5.847   3.273  13.944 -0.2898 -0.1127 -0.1105
 3712TIP3    H132627   5.801   3.218  14.008  0.1226 -0.7337 -0.3384
 3712TIP3    H232628   5.847   3.219  13.864  1.0918 -0.2329 -0.0316
 3713TIP3   OH232629   3.920   0.673  17.168  0.7692  0.1713 -0.4958
 3713TIP3    H132630   3.952   0.689  17.257 -1.2185 -0.9405  0.4489
 3713TIP3    H232631   3.958   0.744  17.116 -1.1418  3.0899  1.9664
 3714TIP3   OH232632   2.679   2.810  13.018 -0.1759 -0.4718  0.0067
 3714TIP3    H132633   2.705   2.759  13.095 -0.1432 -1.5678 -0.7114
 3714TIP3    H232634   2.743   2.785  12.951 -1.7551 -1.5181 -1.1337
 3715TIP3   OH232635   5.396   3.027   4.534 -0.1035 -0.1284  0.0569
 3715TIP3    H132636   5.366   3.065   4.616 -0.7544  1.2445 -0.7895
 3715TIP3    H232637   5.492   3.033   4.538 -0.1718  0.9091  0.2736
 3716TIP3   OH232638   6.499   0.469   3.057 -0.3317 -1.1645 -0.2687
 3716TIP3    H132639   6.495   0.427   2.971 -1.4531  0.6253 -1.1373
 3716TIP3    H232640   6.587   0.451   3.089  0.9418  0.1406 -2.8606
 3717TIP3   OH232641   1.237   4.196  15.945 -0.3089 -0.3318 -0.0605
 3717TIP3    H132642   1.303   4.157  15.887 -0.5212 -2.8369  1.3373
 3717TIP3    H232643   1.153   4.175  15.904 -0.3313  2.0464 -1.3362
 3718TIP3   OH232644   4.875   0.471  12.339 -0.0006 -0.5422  0.3502
 3718TIP3    H132645   4.896   0.429  12.255  1.4542 -0.9590  0.9054
 3718TIP3    H232646   4.934   0.429  12.402 -0.7966  0.0587  1.5121
 3719TIP3   OH232647   0.999   2.726  13.742  0.6510  0.3858 -0.7202
 3719TIP3    H132648   1.055   2.660  13.702  0.0138 -1.4632  1.3065
 3719TIP3    H232649   0.951   2.765  13.669 -0.3911 -2.8012 -1.7949
 3720TIP3   OH232650   4.486   4.070   3.481  0.0865 -0.1803 -0.2832
 3720TIP3    H132651   4.437   4.021   3.546  0.2564 -0.7155 -0.5559
 3720TIP3    H232652   4.422   4.129   3.441  0.3149  1.2852  1.4638
 3721TIP3   OH232653   2.702   5.398  16.912 -0.1565  0.4268 -0.2081
 3721TIP3    H132654   2.723   5.439  16.996  0.2583  0.4439 -0.3207
 3721TIP3    H232655   2.617   5.357  16.926  0.7582 -1.1721  0.7812
 3722TIP3   OH232656   6.278   4.445   1.856 -0.1285 -0.4021  0.3437
 3722TIP3    H132657   6.269   4.433   1.761 -2.0035 -0.5074  0.5128
 3722TIP3    H232658   6.362   4.404   1.878 -0.1052 -1.1806 -1.1353
 3723TIP3   OH232659   0.033   4.782  12.721  0.1443  0.3906 -0.1558
 3723TIP3    H132660   0.092   4.794  12.646 -1.4212  2.3831 -1.1155
 3723TIP3    H232661   0.031   4.868  12.764 -1.8320  0.2879  0.0065
 3724TIP3   OH232662   5.134   6.279  13.571  0.4723  0.2628  0.1938
 3724TIP3    H132663   5.117   6.239  13.657  1.6440  0.6156  0.6022
 3724TIP3    H232664   5.047   6.287  13.531 -0.0206 -0.5400  1.0595
 3725TIP3   OH232665   2.374   1.469   3.522 -0.3839  0.5622 -0.2433
 3725TIP3    H132666   2.361   1.509   3.436  1.8947 -0.9357 -1.3652
 3725TIP3    H232667   2.439   1.524   3.565  0.2589  0.0063 -0.4718
 3726TIP3   OH232668   4.850   0.307   0.885 -0.2346 -0.3015 -0.2257
 3726TIP3    H132669   4.868   0.374   0.951 -0.5996  0.1930 -0.6238
 3726TIP3    H232670   4.880   0.346   0.803 -0.6903 -0.5131 -0.4964
 3727TIP3   OH232671   3.287   4.611   4.540 -0.3876  0.3039 -0.6176
 3727TIP3    H132672   3.199   4.645   4.519 -0.2935  0.3850 -0.8849
 3727TIP3    H232673   3.331   4.607   4.455 -0.4292 -0.5812 -0.6001
 3728TIP3   OH232674   2.792   4.611   0.716 -0.0079  0.0119 -0.8949
 3728TIP3    H132675   2.764   4.523   0.742  1.3884 -0.9280 -2.4692
 3728TIP3    H232676   2.715   4.666   0.731 -1.9160 -2.0286 -2.6962
 3729TIP3   OH232677   3.106   2.064  13.336  0.2939 -0.6442 -0.5673
 3729TIP3    H132678   3.109   2.152  13.371 -1.9831  0.3254 -2.6485
 3729TIP3    H232679   3.097   2.007  13.413  1.2900  0.9472  0.7498
 3730TIP3   OH232680   5.790   0.963   3.585  0.4312 -0.2915  0.2072
 3730TIP3    H132681   5.716   1.022   3.572  0.3915 -0.4950 -0.5059
 3730TIP3    H232682   5.766   0.912   3.663 -0.9539 -1.5203 -0.9795
 3731TIP3   OH232683   0.621   2.180   5.593  0.5204 -0.1823  0.7019
 3731TIP3    H132684   0.539   2.229   5.600  0.6637  0.2025 -0.1992
 3731TIP3    H232685   0.674   2.212   5.666 -0.5693 -1.3124  2.0256
 3732TIP3   OH232686   1.948   0.664   4.956 -0.3194  0.5270  0.9613
 3732TIP3    H132687   1.948   0.646   5.050 -2.0150 -0.3957  0.8111
 3732TIP3    H232688   1.990   0.749   4.947  0.2126  0.4339  2.5162
 3733TIP3   OH232689   5.538   5.020   5.064 -0.0472  0.4781  0.2870
 3733TIP3    H132690   5.549   5.016   4.969 -0.3889 -1.5844  0.3190
 3733TIP3    H232691   5.449   5.052   5.076 -0.2744  0.0057 -0.1085
 3734TIP3   OH232692   4.866   1.451   4.956  0.2268  0.0497  0.0926
 3734TIP3    H132693   4.806   1.381   4.928  0.4936 -0.4737  0.8270
 3734TIP3    H232694   4.953   1.413   4.945  0.3664  0.2035  0.6634
 3735TIP3   OH232695   4.074   4.649  14.344  0.1823  0.5306  0.5799
 3735TIP3    H132696   4.118   4.668  14.426  1.0098  0.4454  0.1549
 3735TIP3    H232697   4.126   4.580  14.303 -1.1765 -0.6466  0.7643
 3736TIP3   OH232698   5.194   6.418   5.131 -0.2791  0.8942 -0.5422
 3736TIP3    H132699   5.199   6.344   5.192  1.5793  1.3052 -0.1597
 3736TIP3    H232700   5.108   6.457   5.147 -1.7614 -1.8137 -1.5041
 3737TIP3   OH232701   3.946   4.898   0.319 -0.0309  0.2126 -0.2611
 3737TIP3    H132702   3.936   4.807   0.294 -2.8519  0.4139 -0.0316
 3737TIP3    H232703   3.980   4.941   0.240 -1.6249 -0.4867 -1.3417
 3738TIP3   OH232704   1.690   6.295  14.559 -0.9852 -0.4249 -0.6519
 3738TIP3    H132705   1.616   6.295  14.619 -0.5403 -1.1774 -0.0911
 3738TIP3    H232706   1.741   6.218  14.584  0.7730  0.9195 -0.0519
 3739TIP3   OH232707   1.236   6.797  16.505  0.1709  0.3077  0.2102
 3739TIP3    H132708   1.320   6.750  16.514 -0.2345 -0.5885 -0.5723
 3739TIP3    H232709   1.253   6.865  16.441 -0.4179 -1.6685 -2.1248
 3740TIP3   OH232710   1.099   2.847   0.128 -0.0663 -0.0495 -0.2040
 3740TIP3    H132711   1.120   2.899   0.206  0.4434 -2.8032  1.5371
 3740TIP3    H232712   1.007   2.823   0.138  0.0077 -0.4446 -0.4427
 3741TIP3   OH232713   1.101   4.372   6.103  0.6423 -0.1117 -0.4181
 3741TIP3    H132714   1.120   4.464   6.084 -0.2691  0.0671 -0.4936
 3741TIP3    H232715   1.187   4.333   6.121  1.1021  0.6191 -0.9674
 3742TIP3   OH232716   4.268   4.417   5.041 -0.1596  0.3748 -0.0726
 3742TIP3    H132717   4.327   4.378   4.977  0.6428  1.1583  0.1815
 3742TIP3    H232718   4.287   4.370   5.123 -1.9172 -1.3547 -0.5968
 3743TIP3   OH232719   3.398   4.994  14.928  0.0902  0.4804  0.0157
 3743TIP3    H132720   3.396   5.087  14.951  1.5268  0.1732  1.4633
 3743TIP3    H232721   3.376   4.949  15.010  0.7092 -0.4893 -0.3433
 3744TIP3   OH232722   4.341   2.432  15.875  0.4400 -0.3963  0.1023
 3744TIP3    H132723   4.413   2.388  15.831  0.1073 -0.3088 -0.5339
 3744TIP3    H232724   4.265   2.375  15.862 -0.1772  0.7466 -1.4432
 3745TIP3   OH232725   0.063   3.497  15.070 -0.0621  0.3904 -0.3504
 3745TIP3    H132726   0.015   3.435  15.016  0.2972  0.9690 -1.3388
 3745TIP3    H232727   0.152   3.497  15.035  0.0657  1.0863 -0.0415
 3746TIP3   OH232728   3.758   2.972  12.679 -0.1265 -0.0695 -0.1217
 3746TIP3    H132729   3.767   2.898  12.620  0.6943 -0.0880  0.0197
 3746TIP3    H232730   3.847   2.998  12.700 -0.4002  0.0008  1.0298
 3747TIP3   OH232731   4.815   4.841  17.024  0.2824 -0.3044 -0.1789
 3747TIP3    H132732   4.890   4.833  16.965  0.0780 -0.8091 -0.3723
 3747TIP3    H232733   4.748   4.786  16.985 -0.3036  0.4116 -0.1783
 3748TIP3   OH232734   6.268   3.526  13.849  0.0743  0.2341  0.2209
 3748TIP3    H132735   6.304   3.587  13.914 -1.2087  1.2009  0.0401
 3748TIP3    H232736   6.237   3.452  13.901 -0.1507  0.6155  0.6472
 3749TIP3   OH232737   5.950   1.923   3.373  0.0096  0.3465  0.5301
 3749TIP3    H132738   5.929   1.843   3.420 -0.2096  0.5535  0.7873
 3749TIP3    H232739   5.873   1.940   3.319  0.5260 -0.2455 -0.3883
 3750TIP3   OH232740   5.090   0.322   1.717  0.2918  0.1252 -0.5449
 3750TIP3    H132741   5.167   0.369   1.685  0.4093  1.1207  1.1485
 3750TIP3    H232742   5.125   0.243   1.758  0.2695 -0.3154 -1.3707
 3751TIP3   OH232743   3.542   1.306   2.907  1.1747  0.4558 -0.6289
 3751TIP3    H132744   3.504   1.355   2.980 -0.7166  0.0737 -1.3174
 3751TIP3    H232745   3.525   1.360   2.830  1.4641 -0.0139 -1.0242
 3752TIP3   OH232746   3.389   2.764  12.253 -0.1296 -0.2996  0.0291
 3752TIP3    H132747   3.397   2.695  12.319 -0.0328 -1.2935 -1.0052
 3752TIP3    H232748   3.302   2.751  12.215  0.5459 -0.9215 -1.3368
 3753TIP3   OH232749   3.381   3.585   2.421 -0.0895  0.2275 -0.0415
 3753TIP3    H132750   3.440   3.550   2.355  0.2825  2.1887 -0.7903
 3753TIP3    H232751   3.438   3.608   2.495 -0.1447  0.4795 -0.0755
 3754TIP3   OH232752   2.673   1.143  13.045 -0.1720  0.1924 -0.0161
 3754TIP3    H132753   2.664   1.156  12.950 -1.3370  1.4745  0.2500
 3754TIP3    H232754   2.680   1.232  13.080  1.6308 -0.3212  0.9867
 3755TIP3   OH232755   1.407   6.313   2.751 -0.1723 -0.3233 -0.0230
 3755TIP3    H132756   1.495   6.339   2.723  0.2903 -1.1524  0.6543
 3755TIP3    H232757   1.389   6.234   2.700  0.6706 -1.8428  1.9574
 3756TIP3   OH232758   3.641   2.872   6.541  0.3136 -0.0914 -0.2379
 3756TIP3    H132759   3.680   2.948   6.497 -1.2655  0.6256 -0.4546
 3756TIP3    H232760   3.635   2.805   6.473 -2.1454  1.0231 -1.1954
 3757TIP3   OH232761   4.324   5.831  13.835  0.3754 -0.3242 -0.5093
 3757TIP3    H132762   4.228   5.840  13.829  0.4570  0.5267 -0.5642
 3757TIP3    H232763   4.348   5.788  13.753 -0.3168 -3.6297  0.9436
 3758TIP3   OH232764   4.508   2.578   2.728 -0.1018 -0.3303  0.0241
 3758TIP3    H132765   4.596   2.544   2.737 -0.1021 -0.3014  0.1288
 3758TIP3    H232766   4.512   2.636   2.652 -0.0907 -0.5247 -0.1256
 3759TIP3   OH232767   1.057   4.334  12.623  0.8101 -0.2968 -0.2215
 3759TIP3    H132768   1.013   4.263  12.670  1.1002 -1.4646 -1.6868
 3759TIP3    H232769   0.988   4.400  12.609  0.4675 -0.4088  0.8723
 3760TIP3   OH232770   5.210   0.644  13.122 -0.5083 -0.0903  0.3038
 3760TIP3    H132771   5.255   0.646  13.207 -1.3687  0.6698  0.7511
 3760TIP3    H232772   5.271   0.686  13.062 -0.9893  1.8114  1.1058
 3761TIP3   OH232773   4.730   6.058  16.893  0.3201  0.5144  0.2985
 3761TIP3    H132774   4.747   6.152  16.901  3.3271  0.0310  0.0491
 3761TIP3    H232775   4.813   6.016  16.914 -0.9582 -2.1209  0.3750
 3762TIP3   OH232776   1.090   5.884   3.098 -0.3937  0.1600  0.5823
 3762TIP3    H132777   1.089   5.895   3.193  0.1844  1.3998  0.4568
 3762TIP3    H232778   1.113   5.970   3.064  0.0029 -0.4221 -0.6623
 3763TIP3   OH232779   3.471   3.783   5.379  0.1468  0.0441  0.3062
 3763TIP3    H132780   3.523   3.713   5.419 -0.4972 -0.3844  0.4020
 3763TIP3    H232781   3.382   3.768   5.410 -0.5913 -0.9833 -2.1730
 3764TIP3   OH232782   6.234   4.105  12.859  0.1020  0.3647 -0.5600
 3764TIP3    H132783   6.218   4.103  12.954 -1.9799 -2.9953 -0.9136
 3764TIP3    H232784   6.160   4.154  12.823 -0.1720 -0.0687 -0.5964
 3765TIP3   OH232785   1.063   0.854  15.604  0.0036 -0.4514 -0.0581
 3765TIP3    H132786   1.061   0.922  15.672 -2.6575 -0.3465 -0.1915
 3765TIP3    H232787   1.044   0.773  15.650 -1.5172 -0.4225 -0.5986
 3766TIP3   OH232788   0.464   4.476  12.331 -0.0450 -0.0269 -0.2948
 3766TIP3    H132789   0.559   4.466  12.326  0.3239  1.8291  2.1983
 3766TIP3    H232790   0.438   4.421  12.405 -0.9214 -0.4470 -0.8992
 3767TIP3   OH232791   4.804   4.115  14.215  0.2994 -0.0931  0.4457
 3767TIP3    H132792   4.791   4.155  14.129 -0.0093 -1.3974 -0.1255
 3767TIP3    H232793   4.774   4.181  14.277 -1.3001  0.1250 -0.5317
 3768TIP3   OH232794   0.741   3.238   1.590 -0.3165 -0.1993  0.2661
 3768TIP3    H132795   0.726   3.308   1.653  0.5205  0.5930 -0.4027
 3768TIP3    H232796   0.654   3.209   1.565 -0.6850  1.0566  0.0558
 3769TIP3   OH232797   5.435   4.300  13.267  0.2798 -0.5505  0.5062
 3769TIP3    H132798   5.418   4.276  13.176 -1.0621  0.3394  0.5001
 3769TIP3    H232799   5.405   4.224  13.318  1.6354 -1.3092  0.1727
 3770TIP3   OH232800   4.088   0.394   0.428  0.1119  0.3887 -0.0396
 3770TIP3    H132801   4.174   0.386   0.470  0.6182  1.2457 -0.9137
 3770TIP3    H232802   4.080   0.487   0.406 -0.5456  0.1120 -0.9965
 3771TIP3   OH232803   6.586   4.229  11.168  0.2514  0.4401 -0.0942
 3771TIP3    H132804   6.548   4.195  11.087  0.1008  0.6806 -0.1246
 3771TIP3    H232805   6.681   4.218  11.157  0.3014  1.4534 -0.7498
 3772TIP3   OH232806   0.500   5.892  12.795 -0.2177 -0.2704  0.3749
 3772TIP3    H132807   0.437   5.882  12.723  1.1074 -2.8499 -0.4912
 3772TIP3    H232808   0.516   5.803  12.825  2.3099  0.4295  1.2190
 3773TIP3   OH232809   3.857   5.691  11.968 -0.6186  0.2779  0.3945
 3773TIP3    H132810   3.910   5.683  11.889  0.5356 -0.2857  1.2190
 3773TIP3    H232811   3.770   5.662  11.942  0.3008 -2.1557 -0.0969
 3774TIP3   OH232812   0.183   1.815   5.367 -0.0114 -0.5050 -0.0052
 3774TIP3    H132813   0.136   1.767   5.300  0.3739 -0.7239 -0.1231
 3774TIP3    H232814   0.220   1.891   5.322 -1.8650  0.7188  0.4889
 3775TIP3   OH232815   3.614   2.215  15.245 -0.1209  0.1258  0.3033
 3775TIP3    H132816   3.622   2.221  15.340  0.3065  3.0835  0.1349
 3775TIP3    H232817   3.701   2.237  15.212 -0.3728 -0.4622 -0.7899
 3776TIP3   OH232818   5.089   0.420  13.236  0.0407  0.1886  0.2248
 3776TIP3    H132819   5.130   0.334  13.227  0.4607  0.5857 -2.0246
 3776TIP3    H232820   5.139   0.476  13.177 -0.7478  1.7869  1.0525
 3777TIP3   OH232821   1.362   0.679  12.140 -0.6125  0.3457 -0.0658
 3777TIP3    H132822   1.348   0.684  12.046 -0.5170 -0.9231 -0.1646
 3777TIP3    H232823   1.357   0.585  12.160 -1.1298  0.6452  1.2673
 3778TIP3   OH232824   1.725   5.597   3.716 -0.4194 -0.9133 -0.1895
 3778TIP3    H132825   1.811   5.580   3.754 -0.8673 -1.2826  0.6744
 3778TIP3    H232826   1.721   5.541   3.639 -0.6122 -2.3047  0.8175
 3779TIP3   OH232827   4.084   3.551  16.153  0.4107  0.3783 -0.2983
 3779TIP3    H132828   4.001   3.506  16.140  0.4991 -0.0458  0.6085
 3779TIP3    H232829   4.096   3.554  16.248  2.1528 -0.9106 -0.4391
 3780TIP3   OH232830   4.260   2.309  16.958  0.0545 -0.1650  0.3958
 3780TIP3    H132831   4.178   2.327  17.005 -0.1933 -1.5248  0.5162
 3780TIP3    H232832   4.328   2.345  17.014 -0.2818 -1.2909  1.5751
 3781TIP3   OH232833   1.740   5.114  13.209  0.0816  0.8771 -0.4792
 3781TIP3    H132834   1.692   5.168  13.272 -0.0994  0.1145  0.0500
 3781TIP3    H232835   1.817   5.084  13.258 -1.2034 -1.5672  0.1339
 3782TIP3   OH232836   3.531   4.834   1.872  0.2374 -0.1279  0.7935
 3782TIP3    H132837   3.528   4.742   1.897  1.2178 -0.1024  1.0087
 3782TIP3    H232838   3.578   4.834   1.788  0.5360  0.2092  0.9610
 3783TIP3   OH232839   1.830   6.061   2.191  0.3716 -0.3560 -0.6746
 3783TIP3    H132840   1.815   6.022   2.105 -0.6567 -0.0366 -0.6417
 3783TIP3    H232841   1.748   6.048   2.238 -0.1922  2.2746 -0.8395
 3784TIP3   OH232842   5.307   6.005  13.103  0.3787 -0.0330 -0.3645
 3784TIP3    H132843   5.235   6.039  13.156  0.1460 -1.1761  0.0696
 3784TIP3    H232844   5.273   6.003  13.014 -0.0161 -0.3004 -0.2052
 3785TIP3   OH232845   4.241   5.811   5.992 -0.1719  0.0432  0.1385
 3785TIP3    H132846   4.321   5.839   6.035 -0.5976  0.6938  0.5109
 3785TIP3    H232847   4.204   5.891   5.955 -0.1322 -0.4092 -0.9109
 3786TIP3   OH232848   1.278   2.503  12.931 -0.0686 -0.3813  0.2233
 3786TIP3    H132849   1.345   2.551  12.882 -0.6017 -0.0799 -0.2127
 3786TIP3    H232850   1.196   2.524  12.887 -0.2712 -2.0312 -0.2357
 3787TIP3   OH232851   6.116   4.537  16.856  0.4307  0.6490  0.4861
 3787TIP3    H132852   6.021   4.551  16.864  0.5041  1.5207 -0.0891
 3787TIP3    H232853   6.144   4.604  16.794  0.9219 -1.6480 -1.8581
 3788TIP3   OH232854   3.038   3.590   1.599  0.3018  0.5368 -0.1642
 3788TIP3    H132855   3.095   3.666   1.582  0.5890  0.2970 -0.2837
 3788TIP3    H232856   2.993   3.576   1.516 -0.5942  1.2753  0.1938
 3789TIP3   OH232857   2.079   4.131  16.864  0.7997  0.0568 -0.0978
 3789TIP3    H132858   2.052   4.057  16.918  1.5913  0.7830  1.3067
 3789TIP3    H232859   2.174   4.136  16.875  0.5986  2.1663  0.9634
 3790TIP3   OH232860   1.413   0.697  13.288  0.1941  0.3820  1.1692
 3790TIP3    H132861   1.353   0.713  13.361  0.0696  0.1840  1.1124
 3790TIP3    H232862   1.389   0.762  13.222 -1.5231 -1.1923  0.2033
 3791TIP3   OH232863   2.622   4.365   4.002  0.2285 -0.4490  0.6246
 3791TIP3    H132864   2.561   4.331   4.068 -1.3111  0.0635 -0.5014
 3791TIP3    H232865   2.628   4.296   3.937  3.5087 -1.8957  2.3542
 3792TIP3   OH232866   0.157   2.315  11.269 -0.1076  0.5993 -0.0174
 3792TIP3    H132867   0.123   2.393  11.312  0.2472 -0.2843  1.9227
 3792TIP3    H232868   0.093   2.247  11.288  0.6274 -0.0751  0.0919
 3793TIP3   OH232869   1.788   3.773   4.745  0.0085 -0.4029 -0.4431
 3793TIP3    H132870   1.807   3.807   4.658 -0.4959  1.8928  0.3135
 3793TIP3    H232871   1.858   3.711   4.763  0.2296 -0.7311 -2.3841
 3794TIP3   OH232872   1.859   2.584  11.553 -0.0508 -0.0525  0.4790
 3794TIP3    H132873   1.787   2.522  11.540 -1.0951  1.2853 -0.2207
 3794TIP3    H232874   1.896   2.596  11.465  0.5354 -0.1358  0.7122
 3795TIP3   OH232875   2.513   2.252  12.081  0.6104  0.2509  0.1044
 3795TIP3    H132876   2.518   2.308  12.004 -0.3727 -0.8247 -0.7664
 3795TIP3    H232877   2.537   2.165  12.050  3.1386  0.3526  1.6579
 3796TIP3   OH232878   1.005   4.687   5.377  0.3424 -0.4166  0.0451
 3796TIP3    H132879   0.968   4.749   5.314  0.1063  0.0083  0.6040
 3796TIP3    H232880   0.939   4.679   5.445 -0.3845 -2.5924 -0.8635
 3797TIP3   OH232881   1.785   4.538   1.089  0.0044  0.4830  0.5542
 3797TIP3    H132882   1.863   4.534   1.034  0.1022  1.0369  0.6556
 3797TIP3    H232883   1.751   4.448   1.088 -1.1994  0.9213 -2.1433
 3798TIP3   OH232884   2.382   2.458   1.188 -0.3541  0.1179  0.1574
 3798TIP3    H132885   2.405   2.366   1.206  1.6381  0.6352  0.3584
 3798TIP3    H232886   2.337   2.455   1.103  0.1356 -0.9898 -0.0711
 3799TIP3   OH232887   1.540   0.806  16.833 -0.2379 -0.2991  0.2899
 3799TIP3    H132888   1.481   0.730  16.829  0.1974 -0.6405  0.3856
 3799TIP3    H232889   1.498   0.872  16.777 -0.1818 -0.9099 -0.4710
 3800TIP3   OH232890   6.114   4.157  13.998 -0.1467 -0.1638 -0.1849
 3800TIP3    H132891   6.033   4.138  14.046 -0.0689 -0.8083 -0.3068
 3800TIP3    H232892   6.084   4.184  13.911 -0.3594  2.3980  0.6272
 3801TIP3   OH232893   5.794   4.190   2.102  0.1921  0.1533  0.3709
 3801TIP3    H132894   5.707   4.155   2.119  0.1486 -0.2293 -0.6589
 3801TIP3    H232895   5.846   4.115   2.072  0.4147  0.7199 -0.6835
 3802TIP3   OH232896   5.957   3.642   5.777 -0.1530 -0.3562 -0.3986
 3802TIP3    H132897   6.006   3.679   5.704  0.9676 -1.4212 -0.2051
 3802TIP3    H232898   5.938   3.717   5.833 -1.9047  0.6215 -2.2722
 3803TIP3   OH232899   3.494   0.532  17.029 -0.3630 -0.4328  0.6574
 3803TIP3    H132900   3.534   0.459  16.982 -1.4637 -0.1400 -0.7853
 3803TIP3    H232901   3.454   0.586  16.960 -1.2400  0.4881  1.8559
 3804TIP3   OH232902   3.961   3.428   5.847  0.1555  0.6689 -0.3684
 3804TIP3    H132903   3.977   3.444   5.940  1.0473 -0.2211 -0.3646
 3804TIP3    H232904   4.034   3.472   5.802 -0.7834  1.9135 -0.7134
 3805TIP3   OH232905   0.052   2.176  12.478 -0.2096  0.3024  0.0575
 3805TIP3    H132906   0.046   2.131  12.562 -0.9767  0.1258 -0.0863
 3805TIP3    H232907  -0.030   2.156  12.434 -0.6017  1.9101  0.0151
 3806TIP3   OH232908   3.144   2.743  12.138  0.6264 -0.3649 -0.0791
 3806TIP3    H132909   3.061   2.789  12.140  0.5359 -0.5289 -0.1056
 3806TIP3    H232910   3.141   2.691  12.057 -0.3050 -2.3693  1.2347
 3807TIP3   OH232911   6.303   5.879  15.261  0.1832 -0.1526 -0.1893
 3807TIP3    H132912   6.363   5.820  15.216 -0.0356 -2.7035  2.7294
 3807TIP3    H232913   6.217   5.838  15.252 -0.2049  0.4431  0.7199
 3808TIP3   OH232914   2.677   0.396   4.850  0.3366  0.0406  0.1301
 3808TIP3    H132915   2.759   0.359   4.883  0.1930 -1.6954 -1.3663
 3808TIP3    H232916   2.649   0.334   4.782 -1.8322  1.0047  0.1242
 3809TIP3   OH232917   3.991   3.731   0.067 -0.2700 -0.2365  0.5169
 3809TIP3    H132918   4.007   3.773  -0.018  0.2358 -0.9978  0.2267
 3809TIP3    H232919   3.966   3.803   0.125 -0.3299  0.3312 -0.2040
 3810TIP3   OH232920   5.531   1.721  12.495 -0.1270 -0.0466  0.3583
 3810TIP3    H132921   5.509   1.678  12.578 -0.6189 -0.4298  0.0293
 3810TIP3    H232922   5.465   1.791  12.487 -1.3759 -1.3278 -0.7311
 3811TIP3   OH232923   1.874   0.506   1.013 -0.1900 -0.3569  0.5739
 3811TIP3    H132924   1.920   0.433   0.970 -1.0727 -0.0766 -0.8722
 3811TIP3    H232925   1.837   0.467   1.092 -1.2100 -1.6685 -0.5198
 3812TIP3   OH232926   4.982   4.376  11.079  0.0201  0.1803 -0.0681
 3812TIP3    H132927   4.974   4.432  11.156 -0.3040 -0.2486  0.2115
 3812TIP3    H232928   4.902   4.324  11.078  1.5629 -2.3394  1.3334
 3813TIP3   OH232929   3.773   0.699   2.809 -0.9340  0.0726 -0.2929
 3813TIP3    H132930   3.774   0.612   2.768 -0.5492 -0.5628  1.0490
 3813TIP3    H232931   3.747   0.682   2.900 -0.8448  1.3671 -0.0251
 3814TIP3   OH232932   6.586   1.802   1.247 -0.3631 -0.7065 -0.5286
 3814TIP3    H132933   6.506   1.854   1.244  1.5544  2.3230 -2.7870
 3814TIP3    H232934   6.615   1.797   1.156  2.9351 -0.1308  0.4168
 3815TIP3   OH232935   2.099   2.865  12.088  0.3430  0.0116  0.0484
 3815TIP3    H132936   2.149   2.904  12.016  0.9423  0.4726  0.7045
 3815TIP3    H232937   2.163   2.853  12.158 -0.1488 -0.8372  0.3525
 3816TIP3   OH232938   1.961   3.957  12.876 -0.3048 -0.6300 -0.6788
 3816TIP3    H132939   1.893   3.905  12.919  0.1500 -0.7369 -0.0791
 3816TIP3    H232940   1.963   4.039  12.926 -0.8105 -0.1508 -1.4335
 3817TIP3   OH232941   3.214   5.364  16.201 -0.3271  0.4469 -0.1898
 3817TIP3    H132942   3.211   5.324  16.287  0.6386  1.4962  0.3532
 3817TIP3    H232943   3.266   5.304  16.147 -1.2283 -0.3813 -0.1502
 3818TIP3   OH232944   4.687   0.790  15.861  0.3356 -0.0084 -0.5558
 3818TIP3    H132945   4.679   0.786  15.957  1.0386  0.4316 -0.4749
 3818TIP3    H232946   4.695   0.883  15.842  1.2689 -0.1604 -0.9495
 3819TIP3   OH232947   3.756   1.026   1.877 -0.7434 -0.0703  0.1928
 3819TIP3    H132948   3.762   0.978   1.794 -1.8648 -0.1281  0.1274
 3819TIP3    H232949   3.788   0.965   1.943 -1.7283 -0.7592  0.0494
 3820TIP3   OH232950   5.700   5.022   4.503 -0.0711  0.0287  0.2524
 3820TIP3    H132951   5.606   5.035   4.507 -0.1477 -0.6929  1.0455
 3820TIP3    H232952   5.727   5.065   4.422 -1.2529 -0.8253 -0.6120
 3821TIP3   OH232953   0.315   4.324   0.574  0.3791  0.6341 -0.2673
 3821TIP3    H132954   0.371   4.356   0.646 -1.0531  0.6250  0.8895
 3821TIP3    H232955   0.272   4.247   0.610  0.7462 -0.2255 -1.6637
 3822TIP3   OH232956   3.802   0.469  15.088 -0.4787 -0.5505 -0.2332
 3822TIP3    H132957   3.746   0.441  15.016  0.4089 -0.4905 -0.9489
 3822TIP3    H232958   3.768   0.421  15.164 -1.1300 -0.9576 -0.7708
 3823TIP3   OH232959   2.570   2.890   5.645  0.1291  0.1615  0.0372
 3823TIP3    H132960   2.553   2.923   5.733 -0.3748 -0.1083  0.0470
 3823TIP3    H232961   2.664   2.900   5.633  0.3972 -0.9185  1.0677
 3824TIP3   OH232962   5.502   1.623   2.538  0.0765 -0.1789  0.0032
 3824TIP3    H132963   5.412   1.652   2.523 -0.4073 -1.5233  0.2167
 3824TIP3    H232964   5.534   1.681   2.606 -0.2885  0.9778 -0.8055
 3825TIP3   OH232965   4.326   4.111   3.758 -0.7416  0.8929 -0.1946
 3825TIP3    H132966   4.244   4.089   3.714 -1.0064 -0.3859  0.9091
 3825TIP3    H232967   4.307   4.101   3.851  0.9246 -0.3839  0.0473
 3826TIP3   OH232968   3.315   1.273  12.981  0.4153  0.5077  0.4661
 3826TIP3    H132969   3.396   1.323  12.968  0.1057  0.6447 -1.0503
 3826TIP3    H232970   3.274   1.271  12.895  0.0167 -1.6758  0.6617
 3827TIP3   OH232971   5.323   3.402  14.511 -0.3747  0.0315  0.3601
 3827TIP3    H132972   5.230   3.414  14.496 -0.5325 -0.2129  1.1010
 3827TIP3    H232973   5.331   3.394  14.606  0.4752  0.6873  0.3527
 3828TIP3   OH232974   3.704   5.718  11.022 -0.8832  0.1391  0.1063
 3828TIP3    H132975   3.767   5.789  11.033 -1.2416  0.5089 -0.1905
 3828TIP3    H232976   3.626   5.761  10.986 -0.8424 -0.5190 -0.7814
 3829TIP3   OH232977   5.282   1.969   2.752 -0.0790 -0.0057  0.7202
 3829TIP3    H132978   5.326   2.040   2.799 -1.6497  1.7435 -0.3564
 3829TIP3    H232979   5.192   2.000   2.742 -0.4856 -1.6349 -0.8810
 3830TIP3   OH232980   5.114   0.434  16.878  0.3718  0.1570  0.7262
 3830TIP3    H132981   5.068   0.427  16.962 -0.4948  0.6976  0.3022
 3830TIP3    H232982   5.197   0.388  16.892  1.3026  2.3491  2.6339
 3831TIP3   OH232983   3.635   5.928  13.699  0.1085 -0.0063 -0.3541
 3831TIP3    H132984   3.648   5.969  13.784 -0.3657 -1.2535  0.3294
 3831TIP3    H232985   3.612   6.000  13.641 -0.5146  0.7266  0.7875
 3832TIP3   OH232986   0.480   2.928   4.194  0.3608  0.5099  0.1384
 3832TIP3    H132987   0.411   2.870   4.227  0.3723 -0.1865 -1.0462
 3832TIP3    H232988   0.547   2.868   4.162  0.6148  1.1874 -0.5859
 3833TIP3   OH232989   4.282   2.951   3.106  0.1088  0.2482  0.0804
 3833TIP3    H132990   4.363   2.961   3.156 -0.4774 -0.7378  1.2551
 3833TIP3    H232991   4.215   2.991   3.162 -0.5693 -0.9440  0.1223
 3834TIP3   OH232992   3.193   3.722   5.304  0.1586 -0.6673 -0.1454
 3834TIP3    H132993   3.168   3.712   5.396  0.7317  0.4001  0.1442
 3834TIP3    H232994   3.111   3.743   5.259  0.1053  0.3122  0.3841
 3835TIP3   OH232995   5.106   4.383  15.869 -0.3121 -0.0346  0.6962
 3835TIP3    H132996   5.067   4.381  15.956 -0.5300 -0.6639  0.5821
 3835TIP3    H232997   5.049   4.441  15.819 -1.6108 -1.6254  0.2944
 3836TIP3   OH232998   3.398   4.734   5.342 -0.2910  0.7002  0.3780
 3836TIP3    H132999   3.330   4.794   5.310  0.6759  2.4059  1.4311
 3836TIP3    H233000   3.479   4.767   5.302  0.1284 -0.4558  0.2618
 3837TIP3   OH233001   1.325   0.662  14.103  0.6854 -1.3217  0.5220
 3837TIP3    H133002   1.382   0.731  14.136 -0.7763 -0.4497  1.2433
 3837TIP3    H233003   1.378   0.617  14.037  1.7596  0.2635  0.2791
 3838TIP3   OH233004   0.349   2.149  15.613 -0.0990 -0.4514 -0.1996
 3838TIP3    H133005   0.368   2.192  15.530  1.1987 -0.3468  0.1366
 3838TIP3    H233006   0.312   2.217  15.668  0.2733 -0.1971 -0.2641
 3839TIP3   OH233007   0.186   0.263  14.967  0.6211 -0.3476  0.0889
 3839TIP3    H133008   0.144   0.178  14.979 -1.2505  0.1558 -2.5536
 3839TIP3    H233009   0.261   0.244  14.909 -0.3155 -0.0719 -1.2258
 3840TIP3   OH233010   2.352   6.776   1.469  0.6339  0.4663 -0.3698
 3840TIP3    H133011   2.325   6.756   1.379 -1.0847 -2.4924  0.7168
 3840TIP3    H233012   2.404   6.701   1.495  1.7728  1.6645  0.8588
 3841TIP3   OH233013   0.520   1.475   6.129 -0.2645  0.4176 -0.5631
 3841TIP3    H133014   0.498   1.512   6.215 -2.1170  0.4760 -1.0400
 3841TIP3    H233015   0.468   1.526   6.067 -1.1553 -1.5015 -1.4495
 3842TIP3   OH233016   1.110   3.897  12.236  0.3665 -0.0153  0.3240
 3842TIP3    H133017   1.112   3.813  12.189 -2.4212 -0.4044  0.8231
 3842TIP3    H233018   1.072   3.875  12.321 -0.2424  1.7239  0.5134
 3843TIP3   OH233019   4.857   4.450  15.450 -0.0195 -0.5416  0.1698
 3843TIP3    H133020   4.827   4.497  15.372 -1.0711  0.0086  0.8950
 3843TIP3    H233021   4.866   4.359  15.422 -1.5395 -0.5549 -0.2962
 3844TIP3   OH233022   4.563   5.928   3.892 -0.6687  0.0386 -0.3395
 3844TIP3    H133023   4.494   5.869   3.920  0.6434 -1.6091 -0.4945
 3844TIP3    H233024   4.580   5.905   3.800 -0.1781  0.6779 -0.4198
 3845TIP3   OH233025   1.646   0.886   5.069  0.0105 -0.0778  0.5805
 3845TIP3    H133026   1.691   0.935   5.137  1.1620  0.3866 -0.4796
 3845TIP3    H233027   1.562   0.861   5.107  0.2426  1.0146  1.8112
 3846TIP3   OH233028   3.117   3.471   1.826 -0.4156 -0.3905  0.0120
 3846TIP3    H133029   3.098   3.531   1.754  0.7507  0.3625  0.3123
 3846TIP3    H233030   3.189   3.513   1.874 -0.9547 -1.0448  1.4192
 3847TIP3   OH233031   4.854   5.172   3.490 -0.1550  0.0489 -0.0595
 3847TIP3    H133032   4.827   5.128   3.571 -0.2735  1.1400  0.4969
 3847TIP3    H233033   4.938   5.212   3.511 -0.4119  0.7307 -0.3392
 3848TIP3   OH233034   6.417   2.320  13.839 -0.6742  0.0695  0.1269
 3848TIP3    H133035   6.323   2.318  13.821 -0.7382 -0.4270  0.5269
 3848TIP3    H233036   6.448   2.397  13.792 -1.0315 -0.6177 -1.2638
 3849TIP3   OH233037   1.541   3.137  17.161  0.3672  0.4291 -0.3051
 3849TIP3    H133038   1.529   3.089  17.243 -1.8225  1.7458  0.1981
 3849TIP3    H233039   1.549   3.070  17.094 -0.2832 -0.6598  0.6964
 3850TIP3   OH233040   1.722   4.832   3.967  0.0775  1.1153  0.6836
 3850TIP3    H133041   1.748   4.913   4.010  0.9190  0.6168  1.1361
 3850TIP3    H233042   1.765   4.763   4.018 -1.7029  0.3004  1.1151
 3851TIP3   OH233043   5.434   5.650   2.013  0.5102  0.0565 -0.8019
 3851TIP3    H133044   5.392   5.611   1.936 -1.1826  0.4769 -0.1102
 3851TIP3    H233045   5.419   5.585   2.083  1.1332  0.1507 -0.5801
 3852TIP3   OH233046   0.763   4.774  15.635  0.0324  0.3319 -0.3698
 3852TIP3    H133047   0.852   4.787  15.602 -0.8676  1.7128 -2.3455
 3852TIP3    H233048   0.729   4.863  15.647 -0.9639 -0.1820  0.7202
 3853TIP3   OH233049   5.668   2.023  10.915  0.1068  0.0991 -0.8688
 3853TIP3    H133050   5.614   2.098  10.939  2.6303  2.1516 -1.4088
 3853TIP3    H233051   5.620   1.981  10.843 -1.1293  1.4226 -0.8410
 3854TIP3   OH233052   3.270   3.192  15.045 -0.3213  0.5068 -0.1795
 3854TIP3    H133053   3.229   3.270  15.081  0.7405  2.4735 -3.0136
 3854TIP3    H233054   3.316   3.152  15.119 -0.4082  2.8991  1.2135
 3855TIP3   OH233055   2.754   5.407  16.116  0.9042  0.3520  0.4819
 3855TIP3    H133056   2.754   5.430  16.023 -0.7002  0.8899  0.5831
 3855TIP3    H233057   2.841   5.430  16.147  0.6310  2.6074 -0.3261
 3856TIP3   OH233058   5.504   1.645   3.777  0.2762  0.0884 -0.1830
 3856TIP3    H133059   5.519   1.725   3.727 -1.8807 -0.6573 -2.1206
 3856TIP3    H233060   5.529   1.574   3.717 -1.4647 -0.7869  0.0946
 3857TIP3   OH233061   5.435   1.192   4.613 -0.0911  0.4930 -0.3529
 3857TIP3    H133062   5.530   1.185   4.625  0.0793 -0.9324 -2.2004
 3857TIP3    H233063   5.403   1.102   4.618 -1.3909  0.9925  0.5234
 3858TIP3   OH233064   4.397   1.184  12.704 -0.1529 -0.5363  0.6749
 3858TIP3    H133065   4.314   1.171  12.657 -0.6365  1.9312  0.7662
 3858TIP3    H233066   4.371   1.199  12.795  0.3438  0.6675  0.6320
 3859TIP3   OH233067   4.557   5.146  11.824  0.1874 -0.0347 -0.5499
 3859TIP3    H133068   4.505   5.065  11.823  0.2438 -0.0872 -2.7099
 3859TIP3    H233069   4.638   5.122  11.779  0.8801  0.8134  0.2475
 3860TIP3   OH233070   2.349   3.075  11.879  0.1820 -0.4115 -0.2531
 3860TIP3    H133071   2.289   3.094  11.951 -0.9866  0.9188 -1.5421
 3860TIP3    H233072   2.297   3.022  11.819  0.1283  1.1342 -1.5960
 3861TIP3   OH233073   3.691   1.312   5.069  0.6431 -0.1985  0.2983
 3861TIP3    H133074   3.746   1.346   5.140  2.8551 -1.7582 -0.6016
 3861TIP3    H233075   3.708   1.371   4.996 -1.1450  1.0242  0.8249
 3862TIP3   OH233076   0.097   5.093  15.250 -0.3643 -0.3324 -0.5608
 3862TIP3    H133077   0.141   5.039  15.316  0.5929 -2.1075 -2.5810
 3862TIP3    H233078   0.147   5.174  15.249  0.7275 -0.9870 -0.3424
 3863TIP3   OH233079   3.539   5.039  11.906  0.5006  0.1970  0.3081
 3863TIP3    H133080   3.524   5.028  11.812  1.0968 -1.3764  0.3813
 3863TIP3    H233081   3.634   5.032  11.916  0.2745 -1.7170  1.2771
 3864TIP3   OH233082   6.587   0.127   6.016 -0.3708  0.2908 -0.2359
 3864TIP3    H133083   6.615   0.103   5.928  1.9965  1.9683  0.0239
 3864TIP3    H233084   6.581   0.043   6.062 -1.6017 -0.5906 -1.9526
 3865TIP3   OH233085   4.111   2.425   1.253  0.0451  0.6793 -0.1603
 3865TIP3    H133086   4.169   2.489   1.295  0.7103  0.2084 -0.3500
 3865TIP3    H233087   4.035   2.418   1.312  1.0365 -0.1005  1.0526
 3866TIP3   OH233088   1.429   0.214  15.170 -0.6147  0.1658  0.0387
 3866TIP3    H133089   1.381   0.296  15.167  0.1102  0.5703 -0.6420
 3866TIP3    H233090   1.407   0.169  15.088 -1.1926 -0.4213  0.5121
 3867TIP3   OH233091   4.448   2.112   6.342  0.0662 -0.7776  0.1862
 3867TIP3    H133092   4.487   2.041   6.392  1.6212 -1.1482 -1.4844
 3867TIP3    H233093   4.359   2.083   6.323  0.0189 -1.3594  1.2971
 3868TIP3   OH233094   1.664   4.582   5.365 -0.5153  0.5896 -0.3985
 3868TIP3    H133095   1.617   4.508   5.326 -1.4270  1.6173 -1.2936
 3868TIP3    H233096   1.600   4.653   5.365  0.2359  1.2799  0.7830
 3869TIP3   OH233097   0.397   4.832  15.514  0.1129 -0.1670  0.2784
 3869TIP3    H133098   0.463   4.826  15.445 -0.6305 -1.5301 -0.3345
 3869TIP3    H233099   0.367   4.923  15.512  0.1926 -0.1725 -1.0914
 3870TIP3   OH233100   2.244   4.246   3.803  0.1445  0.2707  0.0039
 3870TIP3    H133101   2.155   4.228   3.772 -0.4574  3.0918  0.0502
 3870TIP3    H233102   2.242   4.222   3.896 -0.7668  1.0214  0.1815
 3871TIP3   OH233103   2.104   2.932  11.798 -0.3222  0.0879  0.1694
 3871TIP3    H133104   2.071   2.842  11.799 -1.9391  0.6497 -1.0382
 3871TIP3    H233105   2.150   2.939  11.714  1.1870 -0.0809  0.9603
 3872TIP3   OH233106   3.790   4.962  11.871 -0.1090  0.0727 -0.2051
 3872TIP3    H133107   3.810   4.895  11.937  0.0055 -0.2725 -0.5897
 3872TIP3    H233108   3.867   4.964  11.815 -0.8397 -0.7286 -1.2529
 3873TIP3   OH233109   0.200   5.759  16.166 -0.1944 -0.1364 -0.1462
 3873TIP3    H133110   0.291   5.759  16.137  0.6916 -0.3340  2.4597
 3873TIP3    H233111   0.180   5.666  16.182  0.6006  0.2250  3.3972
 3874TIP3   OH233112   5.756   2.414  16.304 -0.1695 -0.3805 -0.1028
 3874TIP3    H133113   5.723   2.349  16.367 -1.0889 -0.6805 -0.8867
 3874TIP3    H233114   5.818   2.466  16.354 -1.5583 -0.0498  1.3007
 3875TIP3   OH233115   5.137   3.737  13.812 -0.2900  0.1031  0.0468
 3875TIP3    H133116   5.045   3.743  13.836 -0.6348 -1.6102 -0.7416
 3875TIP3    H233117   5.182   3.795  13.874 -1.8729  0.9148  0.4731
 3876TIP3   OH233118   3.814   6.305  15.281  0.1283  0.4276  0.0433
 3876TIP3    H133119   3.879   6.357  15.234 -0.0127  0.6449  0.0895
 3876TIP3    H233120   3.853   6.290  15.368 -0.7267  2.2402  0.7624
 3877TIP3   OH233121   1.594   2.321   3.574 -0.1666  0.7378 -0.3959
 3877TIP3    H133122   1.610   2.326   3.668  2.3010  1.7956 -0.8186
 3877TIP3    H233123   1.540   2.243   3.562  0.2153  0.1126  1.8070
 3878TIP3   OH233124   4.229   4.074  15.558 -0.4622 -0.2298  0.1178
 3878TIP3    H133125   4.247   4.013  15.630 -5.0015 -1.6055  0.2610
 3878TIP3    H233126   4.160   4.131  15.591  0.0097  1.5823 -1.8908
 3879TIP3   OH233127   4.364   5.747   3.901 -0.2350  0.0295  0.3019
 3879TIP3    H133128   4.374   5.688   3.826  1.8301  1.8902 -0.9510
 3879TIP3    H233129   4.270   5.755   3.913 -0.5865 -0.6081 -1.8558
 3880TIP3   OH233130   5.995   1.935  11.430 -0.3430 -0.4636 -0.2368
 3880TIP3    H133131   6.078   1.959  11.390 -0.5381 -1.0723 -1.0126
 3880TIP3    H233132   6.005   1.844  11.455 -0.6595 -0.4425 -0.0287
 3881TIP3   OH233133   4.355   0.655  11.567  0.5024 -0.7757  0.0406
 3881TIP3    H133134   4.367   0.703  11.649  0.0034 -0.6020  0.0155
 3881TIP3    H233135   4.264   0.672  11.542  0.6411 -0.8543 -0.5324
 3882TIP3   OH233136   0.819   5.611  12.753  0.3641  0.2424  0.3749
 3882TIP3    H133137   0.764   5.582  12.681  0.5814  0.4173  0.1407
 3882TIP3    H233138   0.761   5.662  12.809 -0.0725 -0.7925  0.8876
 3883TIP3   OH233139   2.705   4.238  15.705 -0.3864 -0.0445 -0.1270
 3883TIP3    H133140   2.731   4.229  15.796  1.6400  0.2871 -0.6383
 3883TIP3    H233141   2.715   4.331  15.685  2.6659 -0.5987 -1.6143
 3884TIP3   OH233142   6.554   2.298  16.480  0.2635  0.0279  0.1415
 3884TIP3    H133143   6.461   2.284  16.465  1.0602 -3.4228 -1.9929
 3884TIP3    H233144   6.574   2.378  16.431 -1.4419  0.5617  0.2661
 3885TIP3   OH233145   1.090   4.639   6.104  0.1994 -0.2481 -0.4573
 3885TIP3    H133146   1.014   4.674   6.150 -2.9566 -3.1623 -3.2240
 3885TIP3    H233147   1.097   4.691   6.024  0.0479 -1.1221 -1.0427
 3886TIP3   OH233148   2.212   2.974   4.428  0.2855  0.3754  0.2940
 3886TIP3    H133149   2.189   2.892   4.472  0.5022  0.6592  0.9366
 3886TIP3    H233150   2.307   2.972   4.422  0.2329  0.1648 -0.4984
 3887TIP3   OH233151   1.889   6.420  14.983  0.4115 -0.1729 -0.6485
 3887TIP3    H133152   1.821   6.404  15.049 -0.7866  1.0686 -1.5537
 3887TIP3    H233153   1.954   6.352  14.999 -0.4990 -0.6925  0.9725
 3888TIP3   OH233154   5.029   1.607  14.283 -0.2344  0.0958  0.1273
 3888TIP3    H133155   5.019   1.514  14.301 -1.3847  0.5847  2.1914
 3888TIP3    H233156   5.112   1.632  14.324 -1.6658  0.7033  2.7022
 3889TIP3   OH233157   3.013   2.785  13.860  0.9146  0.0172 -0.2307
 3889TIP3    H133158   3.027   2.690  13.852  2.0317  0.2706 -1.5051
 3889TIP3    H233159   3.077   2.823  13.801 -0.2429  1.5396 -0.5297
 3890TIP3   OH233160   3.731   5.623  15.767 -0.1220  0.3847 -0.2035
 3890TIP3    H133161   3.773   5.699  15.807  0.6379 -0.1492  0.0262
 3890TIP3    H233162   3.647   5.615  15.813 -0.6512  1.6876 -0.9329
 3891TIP3   OH233163   6.346   1.475   5.757 -0.1330  0.0108  0.2378
 3891TIP3    H133164   6.368   1.465   5.849  0.5773  1.7152  0.2748
 3891TIP3    H233165   6.251   1.487   5.756 -0.1018  0.3004  0.7722
 3892TIP3   OH233166   2.596   6.431   5.179 -0.2661 -0.8086 -0.0482
 3892TIP3    H133167   2.535   6.491   5.136 -0.7410 -2.4805 -1.7439
 3892TIP3    H233168   2.680   6.448   5.136  0.0689  0.0913  0.9258
 3893TIP3   OH233169   1.792   6.787  15.676 -0.4679 -0.1414  0.5928
 3893TIP3    H133170   1.873   6.752  15.640 -0.0929  1.5447 -0.2838
 3893TIP3    H233171   1.820   6.843  15.748 -0.6444  2.0767 -1.0016
 3894TIP3   OH233172   4.373   3.341  16.646 -0.2309  0.3625  0.2083
 3894TIP3    H133173   4.427   3.281  16.697 -0.5476 -0.6379 -0.6321
 3894TIP3    H233174   4.354   3.413  16.706  1.2409  0.2595  0.8067
 3895TIP3   OH233175   4.181   6.121  10.420 -0.4244 -0.0251  0.0132
 3895TIP3    H133176   4.135   6.203  10.401  1.1678  1.0065  0.4801
 3895TIP3    H233177   4.230   6.139  10.501  0.5577 -1.1811 -0.3077
 3896TIP3   OH233178   1.751   5.964   1.934 -0.1548 -0.4847 -0.5383
 3896TIP3    H133179   1.784   5.957   1.845  1.5494  1.0321 -0.0415
 3896TIP3    H233180   1.660   5.993   1.924  0.4822  1.1297 -1.7481
 3897TIP3   OH233181   5.681   6.455   5.725 -0.0501  0.8550 -0.2565
 3897TIP3    H133182   5.704   6.526   5.664  4.9962  1.8494  2.5446
 3897TIP3    H233183   5.652   6.501   5.804  1.8253 -0.2034  1.0634
 3898TIP3   OH233184   4.822   4.230  14.609 -0.5097 -0.1872 -0.3986
 3898TIP3    H133185   4.833   4.137  14.590 -0.9600 -0.2561 -0.3293
 3898TIP3    H233186   4.909   4.259  14.639 -0.5130 -0.7166  0.1471
 3899TIP3   OH233187   3.479   1.703  14.263  0.0965 -0.0322 -0.1165
 3899TIP3    H133188   3.525   1.630  14.304 -0.2472 -0.9318 -1.3081
 3899TIP3    H233189   3.534   1.727  14.189  1.1688  2.1731  1.3575
 3900TIP3   OH233190   2.110   5.081  15.577  0.0793  0.5369  0.8266
 3900TIP3    H133191   2.049   5.108  15.509  0.9964  0.1691 -0.1688
 3900TIP3    H233192   2.110   4.986  15.573  0.8608  0.5368  0.6765
 3901TIP3   OH233193   0.980   5.424   4.778 -0.4480 -0.1647 -0.1108
 3901TIP3    H133194   1.025   5.452   4.858 -1.0327 -0.8032  0.4596
 3901TIP3    H233195   1.045   5.432   4.709  0.3443 -0.4722  0.5906
 3902TIP3   OH233196   2.918   3.636   0.973 -0.2056 -0.7813  0.0642
 3902TIP3    H133197   2.863   3.560   0.956 -1.5068  0.1369  0.0629
 3902TIP3    H233198   2.881   3.675   1.052 -1.8809  1.9172 -1.9755
 3903TIP3   OH233199   0.050   5.264   0.422  0.3184 -0.0880  0.1075
 3903TIP3    H133200  -0.018   5.307   0.475  0.4907 -0.0278  0.2802
 3903TIP3    H233201   0.059   5.177   0.460  0.7119  0.0873  0.4192
 3904TIP3   OH233202   1.365   1.255  14.714  0.0431  0.1973  0.1905
 3904TIP3    H133203   1.405   1.329  14.759  0.1459 -0.4455  1.1489
 3904TIP3    H233204   1.431   1.226  14.651  0.4337  0.1901  0.6120
 3905TIP3   OH233205   2.066   2.234   2.493 -0.1393  0.5822  0.1265
 3905TIP3    H133206   2.029   2.203   2.410 -1.2682  0.6791  0.5872
 3905TIP3    H233207   2.019   2.315   2.512  2.0867  2.0898 -0.5519
 3906TIP3   OH233208   6.002   2.368   2.306  0.6371 -0.5091  0.2907
 3906TIP3    H133209   5.917   2.324   2.311  0.9117 -0.8348  2.5691
 3906TIP3    H233210   6.064   2.306   2.344  1.5472  0.5678  0.5855
 3907TIP3   OH233211   0.458   5.914  11.710  0.3817 -0.4786  0.1512
 3907TIP3    H133212   0.443   5.992  11.657  1.2476 -2.3908 -3.0664
 3907TIP3    H233213   0.372   5.872  11.717 -0.1198  0.7744  2.0360
 3908TIP3   OH233214   4.760   0.316   5.552 -0.6753 -0.3172  0.4521
 3908TIP3    H133215   4.766   0.221   5.540 -0.0861 -0.2556  0.2197
 3908TIP3    H233216   4.739   0.349   5.465 -0.7100 -0.2217  0.4973
 3909TIP3   OH233217   3.045   6.582   1.643 -0.1245  0.1360 -0.4391
 3909TIP3    H133218   3.108   6.654   1.640 -1.7750  1.6217 -0.1767
 3909TIP3    H233219   3.092   6.507   1.606  2.2514  0.8338  1.0579
 3910TIP3   OH233220   4.610   4.600   4.469 -1.0014 -0.1336  0.4573
 3910TIP3    H133221   4.520   4.631   4.474 -0.8573  0.3711 -0.1758
 3910TIP3    H233222   4.652   4.637   4.547 -0.9921  0.7445  0.0393
 3911TIP3   OH233223   5.858   4.354   2.836 -0.3818 -0.2493 -0.4887
 3911TIP3    H133224   5.908   4.425   2.876 -0.8602  0.3016 -0.8592
 3911TIP3    H233225   5.793   4.399   2.781 -0.3071 -0.9873 -1.1798
 3912TIP3   OH233226   4.559   3.877   2.234  0.2367  0.6856 -0.4690
 3912TIP3    H133227   4.492   3.816   2.204  1.2161 -1.0053  0.7389
 3912TIP3    H233228   4.642   3.838   2.208  0.9079  1.1939  0.8690
 3913TIP3   OH233229   0.733   5.293  15.603  0.3765  0.6913 -0.5008
 3913TIP3    H133230   0.650   5.246  15.610  0.5952  0.1709 -1.4450
 3913TIP3    H233231   0.707   5.384  15.584  0.0388  0.4157 -1.3790
 3914TIP3   OH233232   5.305   3.863  11.446 -0.7334 -0.2941  0.7778
 3914TIP3    H133233   5.363   3.902  11.512  0.5160  0.6916 -0.8547
 3914TIP3    H233234   5.231   3.924  11.441  0.2849  0.8857 -0.3711
 3915TIP3   OH233235   2.167   0.881  13.191  0.1144 -0.0995 -0.2585
 3915TIP3    H133236   2.238   0.817  13.196 -0.0286 -0.2441 -0.0585
 3915TIP3    H233237   2.093   0.833  13.154  0.4083  0.3074 -1.3891
 3916TIP3   OH233238   5.716   0.114   1.745  0.3027 -0.0896 -0.3257
 3916TIP3    H133239   5.749   0.029   1.714  0.6647  0.1188 -0.5210
 3916TIP3    H233240   5.622   0.101   1.755  0.5462 -0.9106  0.9524
 3917TIP3   OH233241   3.599   1.851   5.998  0.2322 -0.7379  0.0789
 3917TIP3    H133242   3.536   1.836   5.927 -0.3889  1.6920  0.0735
 3917TIP3    H233243   3.650   1.770   6.003 -1.6223 -2.0113 -1.2103
 3918TIP3   OH233244   5.527   5.060   1.251 -0.4732 -0.2349  0.7294
 3918TIP3    H133245   5.611   5.106   1.248 -0.3408 -0.4256  1.3565
 3918TIP3    H233246   5.536   4.999   1.324 -0.9107 -0.7424  0.3636
 3919TIP3   OH233247   2.300   1.667   3.857 -0.0746  0.9929 -0.0923
 3919TIP3    H133248   2.275   1.577   3.833  1.0091  0.7413 -0.3016
 3919TIP3    H233249   2.258   1.722   3.792 -1.8931  0.7524  0.8399
 3920TIP3   OH233250   5.345   0.558  11.357  0.0863  0.1859  0.2334
 3920TIP3    H133251   5.376   0.649  11.363  1.2430 -0.0381 -1.9641
 3920TIP3    H233252   5.410   0.514  11.301 -1.8454 -1.3737 -0.8370
 3921TIP3   OH233253   2.493   0.848   5.290 -0.2198  0.2748  0.0184
 3921TIP3    H133254   2.527   0.774   5.342  2.9572  1.0834 -0.7776
 3921TIP3    H233255   2.453   0.906   5.355 -0.8288 -1.1227  0.9205
 3922TIP3   OH233256   5.132   0.059   5.208  0.1195 -0.2932 -0.5430
 3922TIP3    H133257   5.114   0.141   5.253  2.7173 -0.1820  0.3856
 3922TIP3    H233258   5.104   0.074   5.118 -0.6202  1.1564 -0.0885
 3923TIP3   OH233259   5.201   0.560  14.566  0.4223  0.6042 -0.1872
 3923TIP3    H133260   5.176   0.526  14.480  0.2950 -0.3497  0.2219
 3923TIP3    H233261   5.296   0.560  14.566  0.4240  0.8949 -0.4372
 3924TIP3   OH233262   2.572   1.014   4.514  0.3021  0.4120 -0.0536
 3924TIP3    H133263   2.548   0.957   4.586 -0.6097  1.9223  0.8779
 3924TIP3    H233264   2.505   0.999   4.447  1.6202 -1.6031 -0.9635
 3925TIP3   OH233265   5.894   4.704  13.147 -0.3282 -0.2561  0.0511
 3925TIP3    H133266   5.965   4.665  13.097  0.4549 -0.9937  1.6835
 3925TIP3    H233267   5.837   4.744  13.082  1.8792  0.8626 -1.2665
 3926TIP3   OH233268   0.349   0.463   2.625  0.3909  0.0155 -0.2896
 3926TIP3    H133269   0.285   0.461   2.554  0.2449  0.1296 -0.1611
 3926TIP3    H233270   0.424   0.415   2.591 -0.3200 -1.3895  0.0815
 3927TIP3   OH233271   5.935   1.747  16.039  0.7868 -0.6702 -0.2728
 3927TIP3    H133272   5.859   1.774  16.090  0.7360 -2.0062  0.3911
 3927TIP3    H233273   5.985   1.827  16.026 -1.7431  0.6256 -2.4962
 3928TIP3   OH233274   2.666   4.171   1.092  0.2015  0.6902 -0.1435
 3928TIP3    H133275   2.640   4.237   1.028 -1.1185  0.7789  0.4765
 3928TIP3    H233276   2.630   4.202   1.175 -1.1482 -1.2158  0.0138
 3929TIP3   OH233277   5.388   2.225   3.451 -0.2288  0.7327  0.2649
 3929TIP3    H133278   5.327   2.151   3.449 -1.2036  1.5419 -0.6104
 3929TIP3    H233279   5.341   2.296   3.407  1.5280  1.2314 -0.8715
 3930TIP3   OH233280   5.291   6.270   3.787 -0.1560 -0.3022 -0.0027
 3930TIP3    H133281   5.350   6.346   3.794 -0.6416 -0.0532  1.4574
 3930TIP3    H233282   5.301   6.241   3.696  1.0449  0.6925 -0.2048
 3931TIP3   OH233283   2.845   5.756  16.700 -0.0988  0.5804  0.6253
 3931TIP3    H133284   2.871   5.832  16.648 -0.2881  0.7629  0.7917
 3931TIP3    H233285   2.926   5.724  16.740  0.4293 -0.9673 -1.6213
 3932TIP3   OH233286   1.211   6.013   6.232  0.5586 -0.2131 -1.1218
 3932TIP3    H133287   1.234   6.003   6.324  2.4703  0.9250 -1.4590
 3932TIP3    H233288   1.139   5.952   6.218  0.3788 -0.5161  1.0809
 3933TIP3   OH233289   6.642   0.105  16.629 -0.0451  0.5358 -0.0451
 3933TIP3    H133290   6.711   0.072  16.687 -0.3314 -0.5154 -0.2966
 3933TIP3    H233291   6.686   0.168  16.572  0.5105  0.5738  0.4252
 3934TIP3   OH233292   0.407   1.832  15.313 -0.5460 -0.4495  0.2490
 3934TIP3    H133293   0.433   1.820  15.404  0.9207  0.9452  0.0284
 3934TIP3    H233294   0.313   1.852  15.317  0.0369  2.1747  1.6733
 3935TIP3   OH233295   5.359   2.991  16.986 -0.5168 -0.1954  0.2026
 3935TIP3    H133296   5.292   3.056  17.009 -0.8683 -0.2432 -0.6954
 3935TIP3    H233297   5.323   2.908  17.015 -0.4982 -0.1194  0.4450
 3936TIP3   OH233298   4.798   3.988   1.299 -0.5843 -0.4456 -0.0996
 3936TIP3    H133299   4.718   3.951   1.263 -0.3360 -0.3494 -0.7609
 3936TIP3    H233300   4.842   4.029   1.225 -1.0383  1.5370  0.6934
 3937TIP3   OH233301   0.718   3.605   3.371  0.4868  0.2092 -0.4691
 3937TIP3    H133302   0.781   3.609   3.444  0.8786 -0.4660 -0.7653
 3937TIP3    H233303   0.645   3.553   3.406  0.0740  1.0108 -0.1179
 3938TIP3   OH233304   4.263   1.722  14.884  0.8526 -0.1552  0.1151
 3938TIP3    H133305   4.185   1.679  14.920  0.1926  0.9218 -0.0086
 3938TIP3    H233306   4.329   1.713  14.953  0.0969  0.4445  0.9241
 3939TIP3   OH233307   5.587   0.384   6.309 -0.5919 -0.7629 -0.3751
 3939TIP3    H133308   5.533   0.406   6.385  1.6653  0.3529  0.9821
 3939TIP3    H233309   5.634   0.305   6.335 -1.5069 -1.6686 -1.4983
 3940TIP3   OH233310   6.142   2.995  12.993 -0.1239 -0.5358  0.1588
 3940TIP3    H133311   6.145   2.909  13.035  0.5381  0.7253  2.8143
 3940TIP3    H233312   6.053   3.027  13.010 -0.3260 -0.5975 -0.7143
 3941TIP3   OH233313   1.532   4.925   1.994  0.1838  0.5665 -0.0271
 3941TIP3    H133314   1.494   4.926   2.082 -1.3619  0.0357 -0.6775
 3941TIP3    H233315   1.476   4.984   1.943 -0.2221 -0.7808 -1.1695
 3942TIP3   OH233316   3.087   0.822   6.302 -0.4087  0.2923  0.1491
 3942TIP3    H133317   3.135   0.898   6.333  0.7932 -1.0384  1.6206
 3942TIP3    H233318   3.098   0.756   6.371 -0.5985 -1.5496 -1.5223
 3943TIP3   OH233319   1.659   1.375   4.357 -0.3435 -0.2739  0.4211
 3943TIP3    H133320   1.719   1.435   4.313 -0.9771 -0.2426 -0.4173
 3943TIP3    H233321   1.668   1.397   4.450 -0.0655  0.6564  0.1850
 3944TIP3   OH233322   3.309   0.952  13.796  0.1890  0.3200 -0.0480
 3944TIP3    H133323   3.278   0.890  13.730 -1.8132  0.4153  0.7732
 3944TIP3    H233324   3.251   0.939  13.871  0.0820  2.7749  0.3530
 3945TIP3   OH233325   1.157   1.068   1.163  0.0506  0.4696  0.9010
 3945TIP3    H133326   1.105   0.995   1.196  0.3809 -0.2196 -0.0599
 3945TIP3    H233327   1.204   1.101   1.240 -0.8851  0.3275  1.5350
 3946TIP3   OH233328   3.008   1.544   0.084 -0.3496  0.0762  0.4656
 3946TIP3    H133329   3.029   1.582  -0.001 -0.8471  0.4317  0.4961
 3946TIP3    H233330   3.059   1.596   0.146  2.1727 -1.9357  0.1734
 3947TIP3   OH233331   4.575   5.458   2.224  0.0509 -0.3049 -0.3988
 3947TIP3    H133332   4.644   5.523   2.221  0.0069 -0.2110  0.5705
 3947TIP3    H233333   4.520   5.483   2.298 -0.1651 -1.2367 -0.2278
 3948TIP3   OH233334   0.920   2.559   5.865 -0.9773 -0.0497 -0.1246
 3948TIP3    H133335   0.843   2.614   5.849 -0.1169  1.6409  1.3735
 3948TIP3    H233336   0.896   2.504   5.940 -2.0154 -2.1452 -1.9210
 3949TIP3   OH233337   5.802   0.027  16.766  0.0406 -0.1837  0.3271
 3949TIP3    H133338   5.877   0.029  16.825  0.1186 -0.4090  0.2366
 3949TIP3    H233339   5.830  -0.030  16.694  0.5860  1.4086 -0.7653
 3950TIP3   OH233340   4.261   5.642   0.637 -0.5818  0.2304 -0.1113
 3950TIP3    H133341   4.246   5.552   0.666 -0.5357 -0.1375 -1.1841
 3950TIP3    H233342   4.261   5.636   0.541  0.1184  1.2575 -0.1837
 3951TIP3   OH233343   3.243   4.827  13.506  0.0083 -0.4521  0.0362
 3951TIP3    H133344   3.184   4.832  13.582 -0.1299 -0.6796 -0.0557
 3951TIP3    H233345   3.220   4.744  13.464  0.5473 -0.6424  0.1229
 3952TIP3   OH233346   5.229   1.368  12.271 -0.4150 -0.2782 -0.2479
 3952TIP3    H133347   5.186   1.292  12.309  0.5183 -0.3196  0.7297
 3952TIP3    H233348   5.161   1.436  12.270 -0.9867 -0.8463 -0.2938
 3953TIP3   OH233349   5.966   1.212  14.803 -0.4174  0.0982 -0.0458
 3953TIP3    H133350   6.046   1.200  14.753  0.6617  1.6114  1.2720
 3953TIP3    H233351   5.958   1.133  14.856  0.9668  0.5291  0.8292
 3954TIP3   OH233352   6.749   4.633  15.235  0.0999 -0.4074  0.1520
 3954TIP3    H133353   6.698   4.658  15.158 -1.7467 -0.4214  1.3428
 3954TIP3    H233354   6.784   4.546  15.213  0.3444 -0.0157 -1.0270
 3955TIP3   OH233355   1.904   6.578   0.436  0.7674  0.5184  0.4268
 3955TIP3    H133356   1.871   6.611   0.520  0.3589 -1.3280  1.0068
 3955TIP3    H233357   1.855   6.497   0.421  1.7066  0.2020 -1.0080
 3956TIP3   OH233358   2.115   4.408   0.684 -0.0656  0.4967 -0.0910
 3956TIP3    H133359   2.158   4.322   0.685 -0.1544  0.4647  0.9396
 3956TIP3    H233360   2.161   4.456   0.615 -0.5060 -0.6170 -1.1866
 3957TIP3   OH233361   4.882   6.545  12.446  0.6823  0.5358  0.2666
 3957TIP3    H133362   4.913   6.589  12.367  1.0903  1.1173  0.7476
 3957TIP3    H233363   4.961   6.518  12.492  0.4919  1.6200  1.2705
 3958TIP3   OH233364   5.951   3.718   4.037  0.6079  0.1512 -0.2604
 3958TIP3    H133365   5.931   3.793   4.093 -0.2998  0.1881 -0.6368
 3958TIP3    H233366   5.961   3.754   3.950  0.3536 -0.1357 -0.4104
 3959TIP3   OH233367   2.421   6.103  16.632 -0.4772  0.9584  0.2939
 3959TIP3    H133368   2.362   6.067  16.699 -2.2236  0.0947 -1.6636
 3959TIP3    H233369   2.385   6.190  16.613 -1.7396  0.0583 -1.5880
 3960TIP3   OH233370   1.393   4.235   4.592 -0.7515 -0.2853 -0.1730
 3960TIP3    H133371   1.471   4.278   4.628  0.1643 -1.0046 -1.2285
 3960TIP3    H233372   1.321   4.294   4.613 -0.3970 -0.9908  3.3857
 3961TIP3   OH233373   3.215   4.984  16.244  0.3645  0.7029 -0.0680
 3961TIP3    H133374   3.189   4.951  16.330  1.2693  0.7374  0.2236
 3961TIP3    H233375   3.157   4.939  16.182 -2.7756  3.3484  0.8062
 3962TIP3   OH233376   4.479   3.492  13.574  0.3382 -0.3050  1.1771
 3962TIP3    H133377   4.420   3.531  13.510  0.5720 -1.5945  0.1498
 3962TIP3    H233378   4.423   3.466  13.646 -0.2914 -1.0497  0.4293
 3963TIP3   OH233379   4.607   0.018   2.744 -0.3210  0.4503  0.4088
 3963TIP3    H133380   4.683   0.046   2.795  0.4067  0.6367 -0.7662
 3963TIP3    H233381   4.536   0.009   2.809  0.8943 -0.4925  1.6389
 3964TIP3   OH233382   1.864   1.053  16.324  0.5087  0.1550  0.8078
 3964TIP3    H133383   1.830   1.073  16.237 -2.0388 -0.0886  1.6950
 3964TIP3    H233384   1.850   1.133  16.374 -1.3234 -0.7991  1.9063
 3965TIP3   OH233385   6.363   2.959   3.166 -0.0444 -0.7680 -0.3723
 3965TIP3    H133386   6.349   3.002   3.250  1.3831  2.0311 -1.4896
 3965TIP3    H233387   6.319   2.875   3.174 -0.8892 -0.0815  2.7667
 3966TIP3   OH233388   4.921   0.010  13.957  0.0549 -0.3456  0.4229
 3966TIP3    H133389   4.885  -0.063  13.906  0.0438 -1.4285  1.9425
 3966TIP3    H233390   4.994   0.042  13.904  2.1206 -3.5669  1.1678
 3967TIP3   OH233391   1.169   1.797  11.503 -0.1035 -0.0912  0.6177
 3967TIP3    H133392   1.081   1.830  11.486 -0.4471 -0.6431  1.2434
 3967TIP3    H233393   1.156   1.703  11.516  0.5335 -0.1256  1.0225
 3968TIP3   OH233394   1.672   4.336  13.505  0.3943 -0.0080 -0.8507
 3968TIP3    H133395   1.752   4.285  13.496  0.8462  0.7935 -1.3852
 3968TIP3    H233396   1.701   4.422  13.536 -0.5787 -0.8529  2.6494
 3969TIP3   OH233397   4.258   1.927   5.726 -0.5209  0.7978  0.4851
 3969TIP3    H133398   4.269   1.932   5.821  1.5655 -0.4005  0.3501
 3969TIP3    H233399   4.168   1.898   5.713 -0.7847  0.8850  2.1034
 3970TIP3   OH233400   2.583   6.045   3.997  0.7096 -0.2393  0.0602
 3970TIP3    H133401   2.491   6.063   3.982  0.6952 -0.7859 -0.5589
 3970TIP3    H233402   2.612   6.112   4.059  0.3324  1.0431 -1.1418
 3971TIP3   OH233403   2.379   5.995   2.557 -0.1165  0.4516  0.1638
 3971TIP3    H133404   2.308   6.059   2.548  0.4897  1.2089  0.7301
 3971TIP3    H233405   2.344   5.929   2.616 -0.3865  0.7875  0.3842
 3972TIP3   OH233406   3.845   6.633  15.418  0.3327  0.0447  0.5752
 3972TIP3    H133407   3.845   6.691  15.493 -1.9281  2.7124 -1.3752
 3972TIP3    H233408   3.935   6.598  15.414  1.3609  2.3496  2.5786
 3973TIP3   OH233409   2.969   4.903  16.919  0.5133  0.7741  0.4422
 3973TIP3    H133410   2.977   4.810  16.897 -1.3629  0.6522  0.2632
 3973TIP3    H233411   2.929   4.943  16.843 -3.3975  0.8394  2.4160
 3974TIP3   OH233412   0.840   2.199   2.269 -0.2662 -0.2067  0.0762
 3974TIP3    H133413   0.871   2.116   2.305  0.8561  0.0171 -0.3536
 3974TIP3    H233414   0.768   2.174   2.211  0.8344 -1.0101 -0.9813
 3975TIP3   OH233415   5.173   1.084  16.620 -0.6295 -0.2434  0.6016
 3975TIP3    H133416   5.133   1.120  16.699  0.9965 -2.0898  2.3251
 3975TIP3    H233417   5.263   1.067  16.644 -0.1199 -0.9356 -1.6490
 3976TIP3   OH233418   0.326   0.880   0.137 -0.2353 -0.2963  0.0906
 3976TIP3    H133419   0.316   0.906   0.046 -1.4620 -3.0046 -0.6098
 3976TIP3    H233420   0.266   0.936   0.185 -1.6307 -0.6847 -1.1515
 3977TIP3   OH233421   1.284   0.994  12.849  0.0795 -0.0706  0.3070
 3977TIP3    H133422   1.204   0.945  12.868 -0.2681  0.6113  0.6388
 3977TIP3    H233423   1.257   1.057  12.781 -0.3258  1.8916  2.2282
 3978TIP3   OH233424   2.826   1.468  15.032  0.6723 -0.5089  0.2555
 3978TIP3    H133425   2.919   1.453  15.044  0.6659 -0.3938  0.4432
 3978TIP3    H233426   2.813   1.560  15.051  0.8239 -0.0785 -1.5905
 3979TIP3   OH233427   2.895   4.057  13.118  0.5507 -0.9544  0.5037
 3979TIP3    H133428   2.950   3.982  13.141  1.0333 -0.1666  1.9413
 3979TIP3    H233429   2.809   4.035  13.153  0.5086 -1.1562  0.2787
 3980TIP3   OH233430   1.146   5.804   0.961  0.0164  0.1507  0.1120
 3980TIP3    H133431   1.199   5.743   0.910  0.5945  0.4180  0.3924
 3980TIP3    H233432   1.129   5.759   1.043 -0.9640 -0.3033 -0.3276
 3981TIP3   OH233433   2.942   4.827  16.152  0.3830  0.2252 -0.0766
 3981TIP3    H133434   2.870   4.795  16.098  0.7269 -1.3653  0.3686
 3981TIP3    H233435   2.921   4.798  16.241  1.4937 -0.1397  0.0821
 3982TIP3   OH233436   2.713   5.152   2.096 -0.7419 -0.4220 -0.2351
 3982TIP3    H133437   2.698   5.112   2.182 -0.1239 -1.8224 -0.7588
 3982TIP3    H233438   2.795   5.112   2.066  0.3119  1.8560 -0.4316
 3983TIP3   OH233439   2.533   4.362  12.446  0.2794 -0.1840  0.2059
 3983TIP3    H133440   2.626   4.364  12.423  0.0774 -0.8514 -0.7060
 3983TIP3    H233441   2.492   4.422  12.384  0.2438  1.0087  1.3562
 3984TIP3   OH233442   6.284   5.773  14.337  0.4816  0.0666  0.0577
 3984TIP3    H133443   6.283   5.810  14.250  0.5464 -1.6106 -0.6857
 3984TIP3    H233444   6.366   5.725  14.342  0.2907 -0.1897  0.8822
 3985TIP3   OH233445   1.438   6.750   2.804 -0.6673  0.0332  0.2647
 3985TIP3    H133446   1.430   6.702   2.886 -1.1862  1.6582  1.1774
 3985TIP3    H233447   1.530   6.741   2.780  0.1931  2.1442  2.6468
 3986TIP3   OH233448   0.157   1.787   0.977  0.0163  0.3729 -0.1764
 3986TIP3    H133449   0.229   1.761   1.035  0.4589  0.1267 -0.8242
 3986TIP3    H233450   0.102   1.844   1.031 -0.4290 -1.1140  0.9654
 3987TIP3   OH233451   2.046   3.662  16.385  0.0143 -0.2068 -0.2596
 3987TIP3    H133452   2.038   3.743  16.435  2.1571 -0.4285  0.5015
 3987TIP3    H233453   2.050   3.593  16.452 -0.3754 -0.8107 -0.8486
 3988TIP3   OH233454   6.445   4.371   5.589  0.2271  0.3307 -0.4205
 3988TIP3    H133455   6.488   4.300   5.638 -0.3334 -0.3603 -0.9141
 3988TIP3    H233456   6.463   4.450   5.640  0.1787 -0.2883  0.5635
 3989TIP3   OH233457   0.844   3.247  16.739  0.1644 -0.0873 -1.2237
 3989TIP3    H133458   0.918   3.271  16.794 -1.0898  0.6394  0.1719
 3989TIP3    H233459   0.862   3.156  16.713  0.1548 -0.8802  1.4261
 3990TIP3   OH233460   0.385   4.400  11.780  0.2086  0.1454  0.3143
 3990TIP3    H133461   0.326   4.457  11.828 -1.0408  0.6433 -1.7310
 3990TIP3    H233462   0.444   4.459  11.734 -0.7768 -0.1742 -1.4184
 3991TIP3   OH233463   5.961   6.148   4.748  0.4674  0.2757 -0.0521
 3991TIP3    H133464   5.946   6.055   4.732  0.7356  0.2406 -0.0966
 3991TIP3    H233465   5.881   6.190   4.716 -0.5351 -0.1135  1.8510
 3992TIP3   OH233466   0.793   2.510  12.033 -0.0891 -0.6224  0.4570
 3992TIP3    H133467   0.702   2.497  12.008  0.1760  0.8880 -1.4494
 3992TIP3    H233468   0.818   2.430  12.078 -1.1670 -2.7765 -2.6162
 3993TIP3   OH233469   4.321   2.248  15.033 -0.1818  0.5631  0.2151
 3993TIP3    H133470   4.324   2.220  14.942 -1.1021  1.2096 -0.0256
 3993TIP3    H233471   4.411   2.242  15.064  0.0550 -0.1131 -0.5972
 3994TIP3   OH233472   2.641   3.582   0.609 -0.0480 -0.1832  1.1158
 3994TIP3    H133473   2.695   3.655   0.640  0.7158 -0.9125  1.5335
 3994TIP3    H233474   2.604   3.545   0.689 -2.1069  1.0113  0.7563
 3995TIP3   OH233475   5.987   4.130   5.965 -0.5546 -0.1308 -0.0349
 3995TIP3    H133476   5.933   4.148   5.888  0.0678 -0.3361 -0.5252
 3995TIP3    H233477   6.016   4.216   5.994 -1.0753 -0.0252  0.1826
 3996TIP3   OH233478   5.536   1.250   4.944  0.2855  0.0486  0.2442
 3996TIP3    H133479   5.559   1.196   5.020  2.3741  0.0350 -0.3554
 3996TIP3    H233480   5.505   1.187   4.879  0.8233 -0.2249  0.2455
 3997TIP3   OH233481   1.481   3.311  16.662 -0.6635  0.6696 -0.6808
 3997TIP3    H133482   1.491   3.275  16.574  1.7569  0.7434 -0.4726
 3997TIP3    H233483   1.538   3.388  16.663 -1.8066  1.5346  0.5056
 3998TIP3   OH233484   1.722   4.018   2.493  0.1134  0.1181  0.4894
 3998TIP3    H133485   1.734   3.936   2.445 -1.2787 -1.0364  2.0423
 3998TIP3    H233486   1.662   4.069   2.440 -0.8953 -0.8749  0.6635
 3999TIP3   OH233487   6.193   4.398  12.505  0.3480 -0.0138  0.0123
 3999TIP3    H133488   6.272   4.405  12.559 -0.5283  0.9370  1.2280
 3999TIP3    H233489   6.151   4.317  12.534 -0.0020  0.3774  0.6282
 4000TIP3   OH233490   3.098   1.173   0.759  0.0047 -0.2487 -0.2034
 4000TIP3    H133491   3.091   1.085   0.722 -0.7034  0.4033 -1.6333
 4000TIP3    H233492   3.007   1.200   0.772  0.1758  0.9643 -1.4269
 4001TIP3   OH233493   5.921   3.590  13.629 -0.4181  0.0342  0.6071
 4001TIP3    H133494   5.943   3.497  13.628  0.0326  0.1211  1.6466
 4001TIP3    H233495   5.831   3.593  13.659 -0.0698 -0.0096  1.6816
 4002TIP3   OH233496   6.538   2.074   0.461  0.1910  0.1747 -0.0988
 4002TIP3    H133497   6.556   2.152   0.410  1.3826 -0.4506 -0.6558
 4002TIP3    H233498   6.472   2.026   0.411 -0.1664  0.5742 -0.0079
 4003TIP3   OH233499   4.836   4.436  10.750  0.2360 -0.3168  0.0842
 4003TIP3    H133500   4.773   4.367  10.766  1.4617 -0.9275  2.4792
 4003TIP3    H233501   4.792   4.516  10.776 -0.5515 -0.3878 -1.0029
 4004TIP3   OH233502   3.340   5.511  11.724  0.7751 -0.0486 -0.0111
 4004TIP3    H133503   3.300   5.592  11.757  0.9406  0.1849 -0.3879
 4004TIP3    H233504   3.313   5.507  11.632  0.3522 -0.6780  0.1422
 4005TIP3   OH233505   0.690   2.808  15.546 -0.1041  0.4749 -0.3539
 4005TIP3    H133506   0.771   2.828  15.593  0.0657 -0.5369 -0.2098
 4005TIP3    H233507   0.642   2.891  15.545  0.4370  0.8066  0.5426
 4006TIP3   OH233508   0.948   3.964   4.147 -0.0396 -0.5618  0.0748
 4006TIP3    H133509   0.973   4.032   4.083 -0.0758 -0.9523 -0.3544
 4006TIP3    H233510   1.013   3.895   4.133  0.5262 -0.2496  1.1086
 4007TIP3   OH233511   1.548   0.342   4.085 -0.5309 -0.1593 -0.3697
 4007TIP3    H133512   1.643   0.329   4.086 -0.5971 -0.6680  1.6813
 4007TIP3    H233513   1.537   0.436   4.074  0.2145 -0.0490 -0.1837
 4008TIP3   OH233514   5.503   0.565   1.222 -0.6423  0.0309  0.5938
 4008TIP3    H133515   5.582   0.513   1.237  0.3982  1.8721  1.6676
 4008TIP3    H233516   5.433   0.515   1.262  0.2672 -0.7706  1.1907
 4009TIP3   OH233517   6.476   2.399   2.626 -0.0701  0.2765  0.3320
 4009TIP3    H133518   6.493   2.388   2.533  0.2455 -0.3942  0.4629
 4009TIP3    H233519   6.559   2.378   2.669 -0.2504  0.4380  0.7706
 4010TIP3   OH233520   3.572   5.996   1.924 -0.1090  0.6424  0.0380
 4010TIP3    H133521   3.490   5.959   1.890  0.0215  0.5662 -0.1887
 4010TIP3    H233522   3.591   6.069   1.866  0.4226  0.1538 -0.3986
 4011TIP3   OH233523   6.716   0.442  11.637  0.3336  0.2216  0.3111
 4011TIP3    H133524   6.688   0.457  11.547  1.9517 -2.0497 -0.6231
 4011TIP3    H233525   6.650   0.383  11.674 -0.1626  0.9075  0.5338
 4012TIP3   OH233526   2.886   0.280   3.309 -0.2537  0.0779  0.0434
 4012TIP3    H133527   2.793   0.259   3.294  0.1270 -0.9175 -0.9642
 4012TIP3    H233528   2.910   0.336   3.236 -0.0873  0.4231  0.3654
 4013TIP3   OH233529   2.312   0.356   0.153  0.2256  0.4220  0.4015
 4013TIP3    H133530   2.261   0.341   0.073 -0.5856 -0.5176  1.0779
 4013TIP3    H233531   2.303   0.449   0.171 -1.4298  0.2433  0.6028
 4014TIP3   OH233532   2.398   6.370  13.455  0.4035  0.1709 -0.3535
 4014TIP3    H133533   2.351   6.406  13.380  0.4809 -0.2890 -0.6271
 4014TIP3    H233534   2.483   6.343  13.420  0.1296 -0.8190 -0.2861
 4015TIP3   OH233535   4.056   2.618   2.488 -0.0775 -0.3044  0.6030
 4015TIP3    H133536   4.003   2.681   2.538  0.5175  1.5788 -1.0936
 4015TIP3    H233537   4.127   2.593   2.547 -1.0898 -0.4485  1.7732
 4016TIP3   OH233538   5.832   6.755  13.250  0.1919 -0.6981  0.1259
 4016TIP3    H133539   5.738   6.773  13.247  0.3124  0.3359  1.7201
 4016TIP3    H233540   5.843   6.675  13.199 -1.5903 -0.9734  0.1381
 4017TIP3   OH233541   0.369   3.316  11.572  0.0885  0.0394  0.1369
 4017TIP3    H133542   0.283   3.339  11.608  0.2422  0.2234  0.3864
 4017TIP3    H233543   0.430   3.335  11.642 -0.0015 -3.2664  1.1619
 4018TIP3   OH233544   1.042   0.635   4.770 -0.4472  0.2718 -0.8906
 4018TIP3    H133545   1.086   0.646   4.686  0.4748  0.9161 -0.3382
 4018TIP3    H233546   1.111   0.648   4.835 -0.9780 -1.0504 -0.0401
 4019TIP3   OH233547   6.320   3.248  16.129  0.0706  0.4218  1.3736
 4019TIP3    H133548   6.400   3.275  16.173  1.1280 -1.4417  0.6281
 4019TIP3    H233549   6.299   3.163  16.166  0.7831 -1.0153 -1.4010
 4020TIP3   OH233550   6.422   5.087  15.207 -0.0115  0.0195  0.4460
 4020TIP3    H133551   6.483   5.155  15.177 -1.1184 -0.1754 -2.3530
 4020TIP3    H233552   6.476   5.009  15.218  0.7334  0.5743  0.7767
 4021TIP3   OH233553   6.728   6.508  13.949  0.0360 -0.2347  0.7597
 4021TIP3    H133554   6.751   6.519  14.041 -0.6467  0.5904  0.8464
 4021TIP3    H233555   6.663   6.576  13.933 -0.3232 -0.7869 -0.1667
 4022TIP3   OH233556   5.578   2.045   4.704 -0.1821 -0.4195 -0.4382
 4022TIP3    H133557   5.597   2.019   4.614 -1.1365 -0.0633 -0.7484
 4022TIP3    H233558   5.589   2.140   4.704  1.4729 -0.5950  0.2403
 4023TIP3   OH233559   2.477   2.552   5.892  0.3613  0.1553 -0.1228
 4023TIP3    H133560   2.533   2.563   5.968 -0.0156  3.0179 -0.1962
 4023TIP3    H233561   2.537   2.544   5.818  0.6901  0.5868  0.0980
 4024TIP3   OH233562   2.370   3.444  17.100 -0.8785  0.3709  0.1165
 4024TIP3    H133563   2.400   3.382  17.166 -0.9459  0.9730  0.7223
 4024TIP3    H233564   2.327   3.390  17.033  1.9281 -0.5293 -0.9990
 4025TIP3   OH233565   5.531   3.995   3.088  0.1948 -0.0813 -0.0042
 4025TIP3    H133566   5.437   3.996   3.075  0.0520 -0.2438  0.9451
 4025TIP3    H233567   5.543   4.021   3.180  1.0867  0.3001 -0.2192
 4026TIP3   OH233568   1.283   4.428  10.379  0.1895  0.4695  0.3867
 4026TIP3    H133569   1.206   4.423  10.322  0.5109  0.7102 -0.0691
 4026TIP3    H233570   1.311   4.337  10.390  0.1993  0.4319  0.0623
 4027TIP3   OH233571   6.367   4.438   4.870  0.0314 -0.2345  0.2154
 4027TIP3    H133572   6.433   4.376   4.840 -0.1887  0.0622 -0.9368
 4027TIP3    H233573   6.417   4.507   4.914  0.3644 -0.6899  0.5539
 4028TIP3   OH233574   4.718   4.456  12.297 -0.2026  0.2035  0.3233
 4028TIP3    H133575   4.761   4.372  12.278  1.8068  0.8648  1.7286
 4028TIP3    H233576   4.679   4.444  12.383 -0.9376  0.3433  0.0158
 4029TIP3   OH233577   1.136   0.775  16.601 -0.6567  0.7337  0.3389
 4029TIP3    H133578   1.151   0.854  16.654 -0.1778  1.6102 -1.0769
 4029TIP3    H233579   1.166   0.799  16.513  1.2329 -1.6471  0.2823
 4030TIP3   OH233580   4.121   5.958   3.170  0.0763  0.6675 -0.3482
 4030TIP3    H133581   4.173   5.882   3.145  1.6111  2.4773 -2.9038
 4030TIP3    H233582   4.041   5.921   3.208  1.4148 -2.1804 -0.1955
 4031TIP3   OH233583   5.742   5.904   4.429 -0.0883  0.0464 -0.1490
 4031TIP3    H133584   5.716   5.885   4.519 -0.0878  1.0165  0.0669
 4031TIP3    H233585   5.834   5.930   4.436 -0.6509  2.1325 -0.1294
 4032TIP3   OH233586   5.070   3.016  12.637  0.2977 -0.4235  0.0792
 4032TIP3    H133587   5.071   3.012  12.541 -0.6788  0.4685  0.0254
 4032TIP3    H233588   5.101   3.104  12.658 -1.0414 -0.0391  0.5182
 4033TIP3   OH233589   2.984   2.244   4.020 -0.8419  0.3731 -0.4458
 4033TIP3    H133590   2.958   2.332   4.048  0.0516  1.0200 -1.5873
 4033TIP3    H233591   2.908   2.190   4.038 -1.0952  1.2024  1.1015
 4034TIP3   OH233592   1.056   6.674  11.198 -0.1096 -0.0910  0.5098
 4034TIP3    H133593   1.023   6.641  11.115  0.6663 -0.7091  0.4498
 4034TIP3    H233594   1.074   6.767  11.181 -1.6797  0.2317  0.5105
 4035TIP3   OH233595   3.508   4.506  16.328 -0.1580 -0.2951 -0.4943
 4035TIP3    H133596   3.542   4.429  16.283 -0.7485 -0.5191 -0.5613
 4035TIP3    H233597   3.482   4.473  16.414  0.8673  0.1102 -0.0217
 4036TIP3   OH233598   3.278   3.413  11.678  0.5295 -0.4667 -0.6172
 4036TIP3    H133599   3.372   3.415  11.697  0.3680  2.6710  0.0483
 4036TIP3    H233600   3.272   3.437  11.586  0.3021  0.8726 -0.2610
 4037TIP3   OH233601   1.889   6.593  12.634  0.9958  0.3430  0.1140
 4037TIP3    H133602   1.827   6.528  12.668  0.2742  0.7081 -0.5027
 4037TIP3    H233603   1.975   6.557  12.656  0.5937 -0.6257  0.1459
 4038TIP3   OH233604   3.266   6.159  14.373 -0.1963 -0.8638  0.3664
 4038TIP3    H133605   3.333   6.195  14.315 -0.6345  2.3537  1.7082
 4038TIP3    H233606   3.266   6.065  14.355  0.9361 -0.2351 -3.5044
 4039TIP3   OH233607   0.708   6.225  11.841 -0.0657 -0.2966 -0.3258
 4039TIP3    H133608   0.697   6.219  11.746 -1.0929  0.2230 -0.2500
 4039TIP3    H233609   0.677   6.141  11.874  0.3788 -0.5135 -0.4516
 4040TIP3   OH233610   1.452   6.718  13.371 -0.2633 -0.4175  0.0705
 4040TIP3    H133611   1.487   6.782  13.309 -0.0824 -0.0709  0.5272
 4040TIP3    H233612   1.370   6.756  13.401  0.0338 -0.2103  0.6363
 4041TIP3   OH233613   2.428   2.839  12.030  0.2618 -0.1472  0.6090
 4041TIP3    H133614   2.455   2.921  12.070 -1.4809  1.0625 -0.6143
 4041TIP3    H233615   2.405   2.862  11.940 -0.3821 -1.9535  0.2768
 4042TIP3   OH233616   0.940   6.072   1.849 -0.2773 -0.0068  0.3479
 4042TIP3    H133617   0.909   6.020   1.776  1.8349 -1.0172  0.1274
 4042TIP3    H233618   0.952   6.160   1.813  2.8128 -0.9660 -1.1535
 4043TIP3   OH233619   4.480   1.316  11.512 -0.4222 -0.5589  0.3052
 4043TIP3    H133620   4.523   1.294  11.430 -1.7360  1.0808 -0.8621
 4043TIP3    H233621   4.551   1.338  11.572  0.4246  1.6345 -1.4378
 4044TIP3   OH233622   4.678   1.240  12.186 -0.2747  0.0269  0.0378
 4044TIP3    H133623   4.723   1.283  12.114 -0.3903 -2.2127 -1.4312
 4044TIP3    H233624   4.724   1.270  12.264  1.3419  0.7279 -1.1435
 4045TIP3   OH233625   3.223   3.780  14.266 -0.1676  0.1592 -0.4725
 4045TIP3    H133626   3.161   3.765  14.194  0.6800  2.5119 -1.7395
 4045TIP3    H233627   3.283   3.846  14.232  2.5530 -1.4817  1.0602
 4046TIP3   OH233628   3.453   6.804  15.275  0.0326  0.0234  0.4824
 4046TIP3    H133629   3.390   6.846  15.332 -2.3823 -2.1838 -0.4420
 4046TIP3    H233630   3.477   6.723  15.321  0.8286 -0.0027  0.0333
 4047TIP3   OH233631   1.292   3.764  11.794  0.3284 -0.1681  0.3801
 4047TIP3    H133632   1.280   3.818  11.716  0.3037 -0.2197  0.3472
 4047TIP3    H233633   1.215   3.707  11.796  0.4566 -0.3441  0.2990
 4048TIP3   OH233634   5.245   2.353   5.946  0.5464 -0.1513  0.4832
 4048TIP3    H133635   5.231   2.445   5.970  1.4711  0.3433 -0.7894
 4048TIP3    H233636   5.340   2.342   5.950  0.3906 -1.2292  1.2417
 4049TIP3   OH233637   3.621   5.559  15.063 -0.7232  0.6033 -0.3644
 4049TIP3    H133638   3.580   5.539  14.979 -1.1425 -2.1205  0.4491
 4049TIP3    H233639   3.576   5.502  15.126  0.6811  1.4300  1.4385
 4050TIP3   OH233640   2.960   2.799  11.763 -0.1014 -0.2350  0.2282
 4050TIP3    H133641   2.940   2.759  11.679 -0.6321 -0.5273  0.4940
 4050TIP3    H233642   2.985   2.889  11.741 -1.0866 -0.0507 -0.1645
 4051TIP3   OH233643   5.193   4.103  11.587  0.1507  0.2000 -0.0073
 4051TIP3    H133644   5.125   4.039  11.602  0.5125  0.0781  1.2105
 4051TIP3    H233645   5.162   4.155  11.513 -1.4162  0.3556  0.7345
 4052TIP3   OH233646   2.765   4.342   3.590 -0.1785  0.0583 -0.3772
 4052TIP3    H133647   2.766   4.268   3.652 -0.3446  1.1889  0.9924
 4052TIP3    H233648   2.683   4.387   3.608 -0.2463  0.3834 -1.4704
 4053TIP3   OH233649   6.096   3.313   5.167  0.0402 -0.2091 -0.4513
 4053TIP3    H133650   6.059   3.306   5.079  1.2996  1.8699 -1.1896
 4053TIP3    H233651   6.095   3.407   5.186  0.7702 -0.5364  1.3263
 4054TIP3   OH233652   1.370   2.014   5.145 -0.2134  0.1915  1.1732
 4054TIP3    H133653   1.429   2.064   5.089 -0.2134  1.4231  2.2476
 4054TIP3    H233654   1.307   2.078   5.178 -0.0280 -0.4300  2.8175
 4055TIP3   OH233655   1.940   0.711   3.563 -0.6256  0.4424 -0.0493
 4055TIP3    H133656   1.925   0.774   3.493 -1.0908  0.3592 -0.0284
 4055TIP3    H233657   1.941   0.763   3.643  1.0422  0.6832 -0.2184
 4056TIP3   OH233658   2.981   1.437  13.599 -0.4616 -0.8308  0.0927
 4056TIP3    H133659   2.951   1.483  13.678 -1.1882  0.1861 -0.7748
 4056TIP3    H233660   2.924   1.468  13.529  0.8363 -0.9592 -1.0428
 4057TIP3   OH233661   2.640   2.310   0.081 -0.1937 -0.7597 -0.1673
 4057TIP3    H133662   2.623   2.320   0.174 -2.2391 -1.3943 -0.4447
 4057TIP3    H233663   2.666   2.397   0.051 -4.0152  0.5543  0.1286
 4058TIP3   OH233664   6.512   4.862  13.507  0.2966  0.3042  0.0177
 4058TIP3    H133665   6.430   4.912  13.504  0.5925  0.8050  0.1199
 4058TIP3    H233666   6.557   4.894  13.586 -0.2110 -1.2474  0.9515
 4059TIP3   OH233667   5.367   5.251   0.686 -0.0693 -0.1921 -0.2909
 4059TIP3    H133668   5.402   5.230   0.773  0.7804 -0.9420 -0.8058
 4059TIP3    H233669   5.329   5.338   0.696  0.0514 -0.2561  0.8252
 4060TIP3   OH233670   4.111   2.533  15.313 -0.2927  0.6977  0.6216
 4060TIP3    H133671   4.064   2.612  15.286 -2.0656 -0.8350 -0.9030
 4060TIP3    H233672   4.111   2.478  15.235  0.4505 -1.0353  1.8221
 4061TIP3   OH233673   2.862   6.354  12.848 -0.1462  0.5199 -0.1663
 4061TIP3    H133674   2.883   6.442  12.818 -2.1670  1.2256  0.3762
 4061TIP3    H233675   2.902   6.347  12.934  2.0880  0.0029 -1.2099
 4062TIP3   OH233676   5.015   6.773  14.420 -0.0302  0.1419 -0.3234
 4062TIP3    H133677   5.009   6.708  14.349  1.0902  0.5462 -0.7997
 4062TIP3    H233678   5.099   6.816  14.405 -0.1442  0.7549  0.8114
 4063TIP3   OH233679   0.082   1.604  15.430  0.7394  0.2752 -0.1741
 4063TIP3    H133680  -0.001   1.646  15.451  1.1414  0.3665  1.3033
 4063TIP3    H233681   0.115   1.573  15.515  3.4860  2.6008 -0.3155
 4064TIP3   OH233682   2.174   3.350  15.678  0.5105  0.4907  0.3742
 4064TIP3    H133683   2.135   3.265  15.694  0.6461  0.6691  1.7092
 4064TIP3    H233684   2.118   3.412  15.725  1.6549  0.8921  1.2265
 4065TIP3   OH233685   2.286   3.001   6.432 -0.1459  0.7569  0.2915
 4065TIP3    H133686   2.239   2.919   6.443  0.0065  0.7224  0.6691
 4065TIP3    H233687   2.375   2.982   6.461  0.3761  0.5373 -1.3539
 4066TIP3   OH233688   5.544   3.297   2.491  0.3757  0.0047 -0.1409
 4066TIP3    H133689   5.515   3.315   2.401 -0.3146 -1.0227 -0.1346
 4066TIP3    H233690   5.601   3.221   2.482  2.5041  1.5609 -0.0520
 4067TIP3   OH233691   0.525   4.414   2.006  0.0700 -0.2310  0.2721
 4067TIP3    H133692   0.493   4.324   2.012 -2.4437  0.6722  1.3128
 4067TIP3    H233693   0.542   4.439   2.096  0.6967  0.3556 -0.0074
 4068TIP3   OH233694   1.619   0.013  12.170  0.0789 -0.4108  0.0871
 4068TIP3    H133695   1.657   0.100  12.181  0.7620 -0.4966 -1.5565
 4068TIP3    H233696   1.658  -0.039  12.241 -0.7949  0.7402  1.4590
 4069TIP3   OH233697   5.381   3.549  12.258  0.2786  0.2415  0.1362
 4069TIP3    H133698   5.400   3.484  12.190  0.5305 -1.0355  1.4026
 4069TIP3    H233699   5.292   3.580  12.238 -0.0045 -0.8008 -0.2270
 4070TIP3   OH233700   6.070   1.546  15.281 -0.3012 -0.6755  0.5080
 4070TIP3    H133701   6.124   1.482  15.235 -1.4157 -0.4771 -1.1392
 4070TIP3    H233702   6.116   1.629  15.268 -0.1520 -0.7607  0.4943
 4071TIP3   OH233703   5.430   0.641   4.894  0.5158 -0.4045  0.6841
 4071TIP3    H133704   5.492   0.580   4.934  0.7340 -1.5254 -1.3300
 4071TIP3    H233705   5.477   0.679   4.820 -0.4316  0.4474  0.5002
 4072TIP3   OH233706   0.670   1.433  16.451  0.0418 -1.1520  0.2207
 4072TIP3    H133707   0.579   1.430  16.480 -1.0307  1.3535 -2.5643
 4072TIP3    H233708   0.678   1.362  16.388 -0.7095  0.0506 -1.2755
 4073TIP3   OH233709   4.588   6.646  16.641 -0.4246  0.3282  0.0468
 4073TIP3    H133710   4.551   6.735  16.641  1.9157  1.3624 -2.4792
 4073TIP3    H233711   4.649   6.645  16.715 -1.6161  0.2859  1.0470
 4074TIP3   OH233712   3.166   4.184  15.407 -0.2764 -0.3731  0.2650
 4074TIP3    H133713   3.162   4.248  15.336 -1.4168  0.5117  1.1019
 4074TIP3    H233714   3.250   4.139  15.395 -1.1856 -1.4098 -2.6309
 4075TIP3   OH233715   5.761   5.978  13.875 -0.1165  0.3428 -0.1519
 4075TIP3    H133716   5.814   5.948  13.949 -0.0553  3.4750  1.1261
 4075TIP3    H233717   5.805   6.056  13.843  0.3621 -1.3975 -4.1502
 4076TIP3   OH233718   3.927   1.675  14.672 -0.1453 -0.1205 -0.0725
 4076TIP3    H133719   3.901   1.592  14.632  0.5039 -0.1846 -0.3821
 4076TIP3    H233720   3.885   1.675  14.758 -1.4404 -0.0398 -0.7042
 4077TIP3   OH233721   6.530   5.083  13.656 -0.0646 -0.8693 -0.0458
 4077TIP3    H133722   6.573   5.166  13.677  2.1217 -1.5335 -1.6474
 4077TIP3    H233723   6.438   5.106  13.642  0.4799  1.2532 -0.3026
 4078TIP3   OH233724   2.692   0.560   1.465 -0.2585  0.2620 -0.5847
 4078TIP3    H133725   2.618   0.500   1.471 -0.6794  0.6764 -1.5291
 4078TIP3    H233726   2.724   0.568   1.554 -1.2650 -0.0377 -0.1931
 4079TIP3   OH233727   4.789   0.881   3.947 -0.1028 -0.0336 -0.0278
 4079TIP3    H133728   4.861   0.922   3.995  0.0396 -0.2997 -0.0132
 4079TIP3    H233729   4.737   0.837   4.014  1.3089 -2.2775 -0.3199
 4080TIP3   OH233730   2.131   1.278  11.529  0.0573  0.3433 -0.2812
 4080TIP3    H133731   2.168   1.241  11.609 -1.4654  0.4644  0.5022
 4080TIP3    H233732   2.092   1.202  11.484 -0.5090  0.5321 -0.1087
 4081TIP3   OH233733   5.149   0.453  16.560 -0.0689 -0.2351 -0.3178
 4081TIP3    H133734   5.154   0.549  16.564 -0.7633 -0.2844  2.5960
 4081TIP3    H233735   5.234   0.423  16.590 -0.8021 -0.5476  1.4835
 4082TIP3   OH233736   0.496   5.144   0.388 -0.0607 -0.4834 -0.2912
 4082TIP3    H133737   0.417   5.147   0.335 -0.2746 -1.3839 -0.0306
 4082TIP3    H233738   0.467   5.171   0.475  0.2133  0.6053 -0.5230
 4083TIP3   OH233739   6.461   4.697   3.800 -0.5175  0.3064  0.3815
 4083TIP3    H133740   6.547   4.672   3.832 -0.5724  0.0634  0.3428
 4083TIP3    H233741   6.449   4.787   3.828 -0.7366 -0.0346  1.4128
 4084TIP3   OH233742   4.743   4.659  14.570 -0.5595  0.1576 -0.0122
 4084TIP3    H133743   4.736   4.668  14.665  0.5190  0.0545  0.0841
 4084TIP3    H233744   4.835   4.677  14.551 -0.2003 -2.2736 -0.7683
 4085TIP3   OH233745   3.652   5.838  13.292  0.1348  0.7950 -0.8859
 4085TIP3    H133746   3.656   5.743  13.279 -1.0921  0.8135 -1.4712
 4085TIP3    H233747   3.561   5.854  13.319  0.9539  1.5168  1.5866
 4086TIP3   OH233748   3.952   6.067   1.243 -0.2816 -0.3115 -0.2189
 4086TIP3    H133749   3.899   6.047   1.166  0.7640 -0.0390 -1.0296
 4086TIP3    H233750   3.940   5.991   1.301 -0.7540 -0.7045 -0.8231
 4087TIP3   OH233751   3.881   4.702  13.922  0.0514 -0.2723 -0.2030
 4087TIP3    H133752   3.834   4.630  13.879  0.2094  0.5233 -1.7265
 4087TIP3    H233753   3.856   4.695  14.014 -3.1332  0.1766 -0.9755
 4088TIP3   OH233754   3.337   5.848  16.367 -0.2651 -0.0749 -0.1977
 4088TIP3    H133755   3.280   5.781  16.404 -1.4336  1.9153  1.7480
 4088TIP3    H233756   3.312   5.853  16.275 -1.5292 -0.9194  0.0800
 4089TIP3   OH233757   1.938   4.612  11.608 -0.0345 -0.0495 -0.0801
 4089TIP3    H133758   1.913   4.703  11.591 -1.3201 -0.2948  0.4767
 4089TIP3    H233759   1.904   4.594  11.695  1.6972 -0.5481  0.5143
 4090TIP3   OH233760   3.854   1.041  13.454  0.3306 -0.2484 -0.2164
 4090TIP3    H133761   3.759   1.044  13.451  0.3501  0.2661 -0.5977
 4090TIP3    H233762   3.876   1.040  13.547 -0.0478 -0.4868 -0.1295
 4091TIP3   OH233763   0.197   4.839  12.511 -0.1614 -0.0481  0.2458
 4091TIP3    H133764   0.292   4.848  12.522 -0.3038  0.9993  0.7271
 4091TIP3    H233765   0.182   4.859  12.419 -0.2714  3.3276  0.9219
 4092TIP3   OH233766   1.096   1.573   2.065  0.4842  0.3863 -0.1335
 4092TIP3    H133767   1.031   1.516   2.107 -1.4712  1.9714 -0.9621
 4092TIP3    H233768   1.145   1.514   2.008 -0.8553 -0.6777 -0.2139
 4093TIP3   OH233769   1.728   6.795  16.673 -1.0928 -0.3078  0.1445
 4093TIP3    H133770   1.708   6.888  16.670  1.7661  0.3270 -0.8276
 4093TIP3    H233771   1.683   6.763  16.751  1.5792  2.8127  3.1200
 4094TIP3   OH233772   3.518   0.494  12.722  0.1204  1.0062 -0.2977
 4094TIP3    H133773   3.473   0.566  12.678 -1.4505  0.1794 -0.0831
 4094TIP3    H233774   3.547   0.531  12.805  0.1106  1.6418 -0.5743
 4095TIP3   OH233775   3.840   2.576  15.508 -0.1669 -0.2256 -0.0340
 4095TIP3    H133776   3.868   2.543  15.593 -0.2737 -0.9829 -0.2917
 4095TIP3    H233777   3.864   2.507  15.446 -1.1163 -0.1628 -0.4719
 4096TIP3   OH233778   0.763   4.173  17.227 -0.4881  0.0618 -0.4853
 4096TIP3    H133779   0.817   4.192  17.150 -0.4016 -1.8087 -0.9222
 4096TIP3    H233780   0.769   4.078  17.237 -1.4184  0.1567  1.1655
 4097TIP3   OH233781   1.121   2.791   3.275  0.7741 -0.0619  0.1593
 4097TIP3    H133782   1.207   2.756   3.251  1.5772  1.5328  0.6303
 4097TIP3    H233783   1.138   2.881   3.303 -1.2932  0.9423 -1.6092
 4098TIP3   OH233784   0.247   2.298   3.323  0.0248 -0.6378  0.6168
 4098TIP3    H133785   0.172   2.311   3.264 -0.5664 -1.2677  1.2405
 4098TIP3    H233786   0.306   2.240   3.274 -0.0593 -0.4445  0.2822
 4099TIP3   OH233787   5.258   1.035   5.284 -0.1168 -0.0637 -0.2308
 4099TIP3    H133788   5.348   1.065   5.277 -0.0593 -0.3442 -0.7189
 4099TIP3    H233789   5.225   1.074   5.365 -0.2784  1.9466 -1.2508
 4100TIP3   OH233790   0.252   3.914  13.778 -0.1862  0.2589  0.8940
 4100TIP3    H133791   0.216   3.956  13.700 -0.7176  0.6117  1.3237
 4100TIP3    H233792   0.208   3.829  13.783  2.8500 -1.5573 -1.4905
 4101TIP3   OH233793   3.557   6.203  17.164 -0.2220 -0.0891 -0.3058
 4101TIP3    H133794   3.621   6.273  17.178 -0.5693  0.2828 -0.5841
 4101TIP3    H233795   3.600   6.125  17.199  0.5684  0.0686 -0.9107
 4102TIP3   OH233796   0.345   2.092  11.636 -0.1822  0.1852 -0.6522
 4102TIP3    H133797   0.400   2.016  11.620  1.4113  1.2821 -0.4432
 4102TIP3    H233798   0.274   2.059  11.691  1.7521 -0.6918  1.3670
 4103TIP3   OH233799   0.390   5.634  17.260 -0.0473  0.0663  0.4349
 4103TIP3    H133800   0.365   5.549  17.225 -1.0294  0.1745  0.8502
 4103TIP3    H233801   0.347   5.638  17.345 -0.0203  0.9936  0.4067
 4104TIP3   OH233802   5.143   1.281  11.017  0.0932 -0.4517 -0.0622
 4104TIP3    H133803   5.101   1.200  10.987  0.2654 -0.1116 -1.2456
 4104TIP3    H233804   5.122   1.345  10.949  1.5645  0.0053 -0.1066
 4105TIP3   OH233805   1.875   4.814  15.686  0.2145 -0.2557 -0.2050
 4105TIP3    H133806   1.876   4.909  15.679 -2.1194 -0.3494 -2.1187
 4105TIP3    H233807   1.923   4.783  15.609 -0.0939 -0.6454 -0.2449
 4106TIP3   OH233808   1.914   0.353  11.119 -0.0926 -0.3477 -0.2392
 4106TIP3    H133809   1.870   0.270  11.100  0.9078 -0.9855  0.1652
 4106TIP3    H233810   2.004   0.339  11.092  1.0586 -0.8148  3.5058
 4107TIP3   OH233811   0.024   2.389   3.760  0.5449  0.3125  0.0857
 4107TIP3    H133812   0.078   2.336   3.817 -0.0774 -0.2370  0.1749
 4107TIP3    H233813  -0.057   2.339   3.750 -0.0704  1.2635  0.2107
 4108TIP3   OH233814   4.062   3.602   3.759  0.1112 -0.3207 -0.3931
 4108TIP3    H133815   4.021   3.688   3.774  1.1551  0.3980 -1.5715
 4108TIP3    H233816   4.092   3.574   3.845  1.2709  1.2829 -0.2538
 4109TIP3   OH233817   2.176   5.478  11.031  0.0472  0.1171 -0.4932
 4109TIP3    H133818   2.147   5.470  10.941 -1.8925 -0.8467  0.1941
 4109TIP3    H233819   2.254   5.422  11.037  0.7329  0.9086 -1.7692
 4110TIP3   OH233820   1.106   2.981   2.367 -0.0048 -0.1941 -0.2841
 4110TIP3    H133821   1.140   2.900   2.331  0.9423  0.3126 -0.5451
 4110TIP3    H233822   1.126   2.977   2.461 -1.0134 -0.7827 -0.0878
 4111TIP3   OH233823   6.400   0.723  11.206 -0.1166 -0.5145  0.0673
 4111TIP3    H133824   6.351   0.677  11.274  1.0087  0.3057  1.4412
 4111TIP3    H233825   6.334   0.743  11.139 -1.2200 -1.3512  0.8816
 4112TIP3   OH233826   1.460   5.290  10.537  0.6091  0.3348  0.0598
 4112TIP3    H133827   1.547   5.310  10.572  0.1234 -0.2047  1.6256
 4112TIP3    H233828   1.408   5.369  10.556  0.2098 -0.1535  1.0604
 4113TIP3   OH233829   4.819   4.412   1.718  0.4283  0.2332  0.0252
 4113TIP3    H133830   4.781   4.369   1.641 -1.2901  0.8752  0.4778
 4113TIP3    H233831   4.907   4.376   1.724 -0.6262 -2.5509 -0.1583
 4114TIP3   OH233832   3.256   0.928   4.359 -0.0929 -0.4880 -0.5938
 4114TIP3    H133833   3.338   0.932   4.310 -1.0283  0.4901 -2.1098
 4114TIP3    H233834   3.272   0.862   4.426  3.2972  2.4166  1.6797
 4115TIP3   OH233835   4.278   0.540   5.135  0.5058 -0.5892  0.3404
 4115TIP3    H133836   4.250   0.627   5.164 -2.1457 -0.8239 -1.4364
 4115TIP3    H233837   4.356   0.557   5.081  1.2318  0.4657  1.6932
 4116TIP3   OH233838   6.726   6.331  12.426 -0.1101  0.3886  0.4721
 4116TIP3    H133839   6.814   6.365  12.411 -0.2265  0.8624  0.8326
 4116TIP3    H233840   6.737   6.236  12.433  0.2254  0.3554 -0.4850
 4117TIP3   OH233841   6.677   4.887  15.910  0.0910 -0.4350 -0.1675
 4117TIP3    H133842   6.660   4.806  15.960 -1.5081  0.1885  0.3217
 4117TIP3    H233843   6.743   4.933  15.963 -2.0516  0.5192  1.7505
 4118TIP3   OH233844   0.333   3.966   2.569 -0.3743 -0.0436  0.4079
 4118TIP3    H133845   0.250   3.921   2.586  0.2320 -0.9367  0.9694
 4118TIP3    H233846   0.336   4.035   2.635 -0.0513 -0.8273  1.2099
 4119TIP3   OH233847   2.101   3.451  15.086 -0.2788  0.7751 -0.4543
 4119TIP3    H133848   2.138   3.430  15.172  0.8722 -0.2839 -1.2063
 4119TIP3    H233849   2.018   3.495  15.107 -1.6783 -2.4996  1.2023
 4120TIP3   OH233850   6.011   0.579   1.260 -0.1851  0.4148 -0.2596
 4120TIP3    H133851   6.061   0.658   1.281 -0.2240  0.2694  0.3886
 4120TIP3    H233852   5.984   0.591   1.169  1.3388  0.3273 -0.7285
 4121TIP3   OH233853   0.053   4.456  12.858  0.6356  0.5183  0.3564
 4121TIP3    H133854   0.083   4.544  12.881 -1.7058  0.6312  3.2248
 4121TIP3    H233855   0.026   4.417  12.941 -0.2979 -2.1797 -1.1472
 4122TIP3   OH233856   1.986   5.323   1.683 -0.4905  0.3751  0.3457
 4122TIP3    H133857   1.998   5.417   1.700 -1.1569  0.7992 -1.4262
 4122TIP3    H233858   1.897   5.316   1.649  0.2332 -0.6268 -1.4021
 4123TIP3   OH233859   3.437   1.938  15.580 -0.2964 -0.5678  0.1364
 4123TIP3    H133860   3.523   1.895  15.585  0.5157  1.2241  1.7400
 4123TIP3    H233861   3.437   2.002  15.651 -1.9375  1.3134 -1.4929
 4124TIP3   OH233862   5.977   2.503  11.075 -0.1934 -0.9433  0.7401
 4124TIP3    H133863   6.036   2.550  11.017 -1.1504  1.0452  1.3308
 4124TIP3    H233864   5.902   2.480  11.020 -0.0823 -1.0793  0.6455
 4125TIP3   OH233865   4.560   5.827  11.671  0.3889  0.0121 -0.1233
 4125TIP3    H133866   4.547   5.910  11.626  0.8809 -0.1071 -0.4811
 4125TIP3    H233867   4.537   5.760  11.607  1.7415 -0.1769 -0.4199
 4126TIP3   OH233868   3.918   5.680  13.326 -0.3216 -0.0802 -0.2697
 4126TIP3    H133869   3.911   5.686  13.421 -0.6841  0.3904 -0.3232
 4126TIP3    H233870   3.842   5.627  13.300 -1.6229  1.8456 -0.5083
 4127TIP3   OH233871   6.211   4.440  14.158  0.0114 -0.7804 -0.4614
 4127TIP3    H133872   6.173   4.361  14.120  1.3245 -1.1274 -1.1024
 4127TIP3    H233873   6.163   4.512  14.118 -1.5179 -1.2519  0.4871
 4128TIP3   OH233874   5.602   2.199  13.603 -0.3899 -0.8424 -0.4182
 4128TIP3    H133875   5.533   2.227  13.663  0.2047  0.7299 -0.4599
 4128TIP3    H233876   5.628   2.113  13.636  0.9361  0.5959  2.4849
 4129TIP3   OH233877   6.387   6.571   5.587  0.1854  0.1586 -0.6580
 4129TIP3    H133878   6.400   6.601   5.677  0.8183  1.2958 -1.1177
 4129TIP3    H233879   6.331   6.637   5.547 -0.0149 -0.2936 -1.1261
 4130TIP3   OH233880   2.020   1.734  13.124 -0.3988 -0.0414  0.1676
 4130TIP3    H133881   2.080   1.713  13.195  0.2982 -0.2165 -0.4676
 4130TIP3    H233882   1.988   1.822  13.144 -1.1208 -0.5532  1.3205
 4131TIP3   OH233883   4.659   0.405  15.239  0.3521  0.5945  0.1209
 4131TIP3    H133884   4.643   0.481  15.184 -0.1579 -0.9630 -1.9236
 4131TIP3    H233885   4.746   0.420  15.276  0.1187  2.3150 -0.0022
 4132TIP3   OH233886   2.025   6.630  15.095 -0.6168 -0.2154  0.3787
 4132TIP3    H133887   1.981   6.565  15.041 -1.0695 -0.4343  1.0086
 4132TIP3    H233888   1.963   6.650  15.165 -0.4566  0.8324  0.2410
 4133TIP3   OH233889   5.633   1.615   5.764  0.1550  0.2961  0.5726
 4133TIP3    H133890   5.686   1.639   5.688 -0.1815 -0.7061  0.0248
 4133TIP3    H233891   5.641   1.690   5.823 -0.8369  1.7722 -1.1117
 4134TIP3   OH233892   5.603   5.436   2.907  0.1573 -0.0650  0.1540
 4134TIP3    H133893   5.582   5.460   2.817  1.0273  0.7140  0.1518
 4134TIP3    H233894   5.675   5.374   2.900  0.0445 -0.2132  0.3001
 4135TIP3   OH233895   3.197   6.403   6.059 -0.5721  0.4241  0.1920
 4135TIP3    H133896   3.214   6.427   5.968 -3.6824 -0.2977 -0.6291
 4135TIP3    H233897   3.226   6.312   6.065 -0.1372  0.5489 -0.0195
 4136TIP3   OH233898   5.570   5.014  14.834  0.4842  0.6306 -0.6091
 4136TIP3    H133899   5.563   4.972  14.920 -0.3864  0.4793 -0.7538
 4136TIP3    H233900   5.575   4.941  14.772  0.2993  0.7419 -0.7545
 4137TIP3   OH233901   4.272   5.047   3.383  0.5178 -1.1603  0.1394
 4137TIP3    H133902   4.226   5.077   3.461  1.6637  1.0696  0.0055
 4137TIP3    H233903   4.202   5.020   3.323 -0.5306  0.5789  0.5552
 4138TIP3   OH233904   4.870   1.964   5.772 -0.2047 -0.0857  0.3137
 4138TIP3    H133905   4.825   2.026   5.715  1.1271  0.5141 -0.0958
 4138TIP3    H233906   4.839   1.985   5.860 -2.0602 -0.8361 -0.1136
 4139TIP3   OH233907   2.514   3.858  14.315 -0.0231 -0.1832 -0.0747
 4139TIP3    H133908   2.492   3.887  14.227 -0.4330  0.0655  0.1090
 4139TIP3    H233909   2.498   3.935  14.370  1.0450 -0.0735  0.1004
 4140TIP3   OH233910   1.761   0.703   6.547  0.1976 -0.0563 -0.5885
 4140TIP3    H133911   1.710   0.711   6.467 -0.6429 -1.3672 -0.1973
 4140TIP3    H233912   1.707   0.648   6.604  1.4040 -0.2613  0.3660
 4141TIP3   OH233913   4.247   6.074   4.146 -0.2725 -0.2726  0.0526
 4141TIP3    H133914   4.247   6.157   4.098  0.0008  0.7860  1.8129
 4141TIP3    H233915   4.340   6.054   4.159 -0.3285 -1.2876 -1.0739
 4142TIP3   OH233916   2.172   3.284   4.211  0.6369  0.0304  0.0465
 4142TIP3    H133917   2.087   3.246   4.236  0.4325  0.2277 -0.3376
 4142TIP3    H233918   2.205   3.323   4.292  0.1282  0.3848  0.0891
 4143TIP3   OH233919   5.383   4.106   2.086 -0.3937  0.3541 -1.1960
 4143TIP3    H133920   5.345   4.021   2.063 -0.5975  0.4933 -1.3681
 4143TIP3    H233921   5.350   4.124   2.174  0.9538 -0.5150 -0.4942
 4144TIP3   OH233922   6.161   0.573   5.074 -0.2967  0.2179 -0.0404
 4144TIP3    H133923   6.234   0.561   5.135  0.6347  0.7785 -1.0353
 4144TIP3    H233924   6.100   0.502   5.097  2.1133 -2.4352 -1.4595
 4145TIP3   OH233925   3.330   3.956  11.289  0.3043 -0.1614  0.7867
 4145TIP3    H133926   3.360   3.865  11.292 -3.0389 -1.3450  0.9968
 4145TIP3    H233927   3.291   3.965  11.202 -0.9643  0.5025  1.4083
 4146TIP3   OH233928   0.724   5.241   4.028  0.2197 -0.0774  0.2331
 4146TIP3    H133929   0.812   5.279   4.035  0.2679 -0.4881  2.0393
 4146TIP3    H233930   0.665   5.316   4.025  0.5904  0.1899 -0.4090
 4147TIP3   OH233931   2.428   0.794   3.524 -0.0403 -0.0213 -0.1542
 4147TIP3    H133932   2.459   0.704   3.523 -0.9183 -0.3205 -1.1950
 4147TIP3    H233933   2.427   0.820   3.432 -1.6489  0.4009 -0.0362
 4148TIP3   OH233934   2.544   5.340  17.182  0.5668 -0.0174  0.1936
 4148TIP3    H133935   2.591   5.360  17.263  0.6312  1.6896 -0.2610
 4148TIP3    H233936   2.549   5.244  17.176  1.3701 -0.0998  1.7146
 4149TIP3   OH233937   1.063   0.806  11.479  0.2363 -0.6570  0.6464
 4149TIP3    H133938   1.095   0.830  11.393  0.1590  0.2618  0.8710
 4149TIP3    H233939   1.038   0.889  11.520 -1.5032 -1.2574  0.8418
 4150TIP3   OH233940   0.595   5.957   1.765 -0.0626  0.2137  0.6118
 4150TIP3    H133941   0.556   6.012   1.697  1.2340  0.1888 -0.1693
 4150TIP3    H233942   0.682   5.936   1.731 -0.8074 -2.9880  0.5129
 4151TIP3   OH233943   2.371   1.887  17.210 -0.3462  0.2119 -0.4911
 4151TIP3    H133944   2.424   1.952  17.256 -0.7999  1.8904 -2.2487
 4151TIP3    H233945   2.433   1.834  17.161 -0.0513  0.1026  0.0040
 4152TIP3   OH233946   3.436   4.056   3.356  0.0086 -0.2740 -0.8818
 4152TIP3    H133947   3.373   4.019   3.294 -0.6796 -2.1054  0.8880
 4152TIP3    H233948   3.520   4.018   3.331  0.4697  2.0544 -3.1478
 4153TIP3   OH233949   3.934   2.220   6.407 -0.2894  0.1991 -0.2310
 4153TIP3    H133950   3.958   2.294   6.350 -0.3706 -0.3933 -1.0296
 4153TIP3    H233951   3.842   2.235   6.428 -0.1777  0.5822  0.0067
 4154TIP3   OH233952   3.146   5.890  11.236 -0.5722  0.8143 -0.3713
 4154TIP3    H133953   3.110   5.922  11.154 -0.5619 -0.1055 -0.7448
 4154TIP3    H233954   3.081   5.827  11.267  0.8429 -1.0986 -1.2052
 4155TIP3   OH233955   5.646   4.737   2.468  0.1637  0.4919  0.2785
 4155TIP3    H133956   5.703   4.745   2.391  0.3154 -0.3268  0.3063
 4155TIP3    H233957   5.567   4.694   2.435  0.5963 -0.6906  0.7663
 4156TIP3   OH233958   1.505   5.075  16.823 -0.8122  0.6403 -0.2376
 4156TIP3    H133959   1.441   5.021  16.868  0.0956 -0.1286  0.1662
 4156TIP3    H233960   1.479   5.071  16.731 -1.4952  0.5500 -0.0385
 4157TIP3   OH233961   2.930   4.361  13.146  0.6146 -0.0125 -0.1712
 4157TIP3    H133962   2.922   4.267  13.158 -0.2354  0.1139  0.3367
 4157TIP3    H233963   3.020   4.382  13.170  1.5267 -1.0272 -2.5585
 4158TIP3   OH233964   1.774   0.171   0.172  0.2996 -0.1257  0.1909
 4158TIP3    H133965   1.829   0.191   0.247 -2.4750 -0.3242  2.3429
 4158TIP3    H233966   1.756   0.255   0.131  1.6268 -0.0000 -0.1852
 4159TIP3   OH233967   5.215   3.598  15.938 -0.2222 -0.2102  0.2213
 4159TIP3    H133968   5.232   3.680  15.891 -2.6925  0.5823  0.6714
 4159TIP3    H233969   5.234   3.618  16.030 -1.1228 -0.0336  0.3761
 4160TIP3   OH233970   3.520   6.253   5.540 -0.2762 -0.3422 -0.4751
 4160TIP3    H133971   3.532   6.221   5.450 -1.4021  0.5845 -0.9543
 4160TIP3    H233972   3.504   6.346   5.531 -3.0598 -0.6858  0.4905
 4161TIP3   OH233973   4.976   4.693  12.781 -0.3166  0.0314 -0.2091
 4161TIP3    H133974   4.973   4.779  12.739  0.7705  1.2668  2.1342
 4161TIP3    H233975   4.887   4.678  12.812  0.1239  1.7276  2.0115
 4162TIP3   OH233976   1.953   2.519  14.843  0.2748 -0.1004  0.5705
 4162TIP3    H133977   2.020   2.558  14.787  0.0717 -0.2825  0.1977
 4162TIP3    H233978   1.887   2.587  14.853  0.4789  0.0540  0.8795
 4163TIP3   OH233979   0.009   3.104   6.096  0.1261 -0.4802  0.2072
 4163TIP3    H133980   0.061   3.030   6.127  1.9767  1.2763  1.4836
 4163TIP3    H233981  -0.037   3.135   6.174 -1.1207 -0.6409 -0.4468
 4164TIP3   OH233982   2.525   4.332   5.634  0.0250  0.6981  0.2676
 4164TIP3    H133983   2.528   4.261   5.570 -2.4025 -0.0117  0.8929
 4164TIP3    H233984   2.602   4.319   5.688 -0.1941 -1.2383  0.1325
 4165TIP3   OH233985   1.255   5.301   6.081 -0.1654  0.1727 -0.5113
 4165TIP3    H133986   1.186   5.317   6.017 -1.6198  0.1485  1.0090
 4165TIP3    H233987   1.231   5.217   6.122 -0.5191  1.2688  1.6152
 4166TIP3   OH233988   5.122   6.244   6.669 -0.0478 -0.1546 -0.1552
 4166TIP3    H133989   5.085   6.317   6.718  0.5799  0.6117 -0.7973
 4166TIP3    H233990   5.171   6.285   6.598  1.0334 -1.1726 -0.0208
 4167TIP3   OH233991   1.988   6.372   4.259 -0.8221 -0.1054  0.1782
 4167TIP3    H133992   2.064   6.391   4.203  0.1892 -2.0484  0.8233
 4167TIP3    H233993   1.956   6.457   4.287 -0.2392  0.8287 -1.9091
 4168TIP3   OH233994   1.275   3.384  13.801 -0.2811 -0.0870 -0.1269
 4168TIP3    H133995   1.351   3.385  13.743  0.2452 -1.7273  0.5047
 4168TIP3    H233996   1.205   3.425  13.749  1.3477  2.7129 -0.2148
 4169TIP3   OH233997   3.769   0.916   4.663  0.3253 -0.0523 -0.2378
 4169TIP3    H133998   3.724   0.959   4.589  0.7546 -1.1286 -1.1319
 4169TIP3    H233999   3.709   0.927   4.736 -1.6180 -1.8101 -1.5105
 4170TIP3   OH234000   4.462   4.968  14.079 -0.4098  0.1875  0.0052
 4170TIP3    H134001   4.475   5.060  14.104  1.6098  0.1741 -0.9381
 4170TIP3    H234002   4.450   4.922  14.163  0.5058  1.0272  0.6096
 4171TIP3   OH234003   3.537   6.387  12.617  0.3559  0.2319 -0.2590
 4171TIP3    H134004   3.633   6.393  12.619  0.5114  0.0205 -3.3124
 4171TIP3    H234005   3.516   6.392  12.523 -2.6288  0.3668  0.3922
 4172TIP3   OH234006   1.224   2.644   4.956 -0.4314  0.4214  0.1968
 4172TIP3    H134007   1.224   2.554   4.925 -0.9840  0.4981 -0.0241
 4172TIP3    H234008   1.182   2.694   4.886  1.0383  1.0512 -0.2686
 4173TIP3   OH234009   4.694   2.236   0.552  0.0922  0.0026 -0.3615
 4173TIP3    H134010   4.643   2.157   0.533 -0.4267  0.3367 -0.3540
 4173TIP3    H234011   4.747   2.213   0.628 -0.4373 -0.1685 -0.0439
 4174TIP3   OH234012   1.766   2.136  15.357  0.0211 -0.2095 -0.3297
 4174TIP3    H134013   1.775   2.113  15.450  1.2445  0.8310 -0.1684
 4174TIP3    H234014   1.838   2.197  15.341 -1.8233  1.7800 -1.2919
 4175TIP3   OH234015   3.068   4.474  11.639 -0.3205  0.9928 -0.7299
 4175TIP3    H134016   3.069   4.495  11.546 -0.6944  1.7866 -0.5511
 4175TIP3    H234017   3.136   4.407  11.649  0.5019  1.7357 -1.3684
 4176TIP3   OH234018   3.961   0.172  13.637 -0.6114 -0.3205 -0.4223
 4176TIP3    H134019   3.931   0.085  13.613 -4.6402  0.4540  1.3499
 4176TIP3    H234020   3.999   0.162  13.724 -0.1000 -0.4907 -0.6657
 4177TIP3   OH234021   3.579   6.554  14.986 -0.2142  0.3363 -0.4179
 4177TIP3    H134022   3.556   6.501  15.062  2.5288  1.5859  1.3585
 4177TIP3    H234023   3.495   6.585  14.952 -1.4516  0.1575  2.3971
 4178TIP3   OH234024   4.169   5.549   5.936 -0.5947  0.0011  0.6392
 4178TIP3    H134025   4.196   5.639   5.952 -0.5463  0.1810 -0.3891
 4178TIP3    H234026   4.076   5.556   5.913 -0.4212 -0.1224 -0.1286
 4179TIP3   OH234027   6.125   4.224   1.922  0.2783  0.6327 -0.2351
 4179TIP3    H134028   6.139   4.183   1.836  1.9237  1.7193 -0.4950
 4179TIP3    H234029   6.177   4.304   1.919 -1.5630  1.8930  0.9046
 4180TIP3   OH234030   5.718   5.464   2.041 -0.2759 -0.0120  0.6180
 4180TIP3    H134031   5.697   5.450   1.949 -0.2208  1.8029  0.3208
 4180TIP3    H234032   5.635   5.447   2.087 -0.5914  0.1764  0.1263
 4181TIP3   OH234033   0.601   5.961  11.050  0.1203 -0.1546 -0.5982
 4181TIP3    H134034   0.507   5.954  11.033  0.4543 -3.9599 -1.4835
 4181TIP3    H234035   0.643   5.929  10.970  2.1797  1.1856 -0.1023
 4182TIP3   OH234036   4.362   2.406  14.323  0.0674  0.2751 -0.3367
 4182TIP3    H134037   4.426   2.435  14.258  0.2187 -0.5140 -0.5352
 4182TIP3    H234038   4.279   2.440  14.292  0.1532 -0.0222 -0.8922
 4183TIP3   OH234039   6.053   6.394  11.213 -0.1075  0.6141 -0.5487
 4183TIP3    H134040   6.146   6.415  11.205  0.3479 -1.5856 -1.3600
 4183TIP3    H234041   6.010   6.455  11.153  0.5857  2.8700  1.1521
 4184TIP3   OH234042   6.298   0.192   2.054 -0.0349 -0.1524 -0.5889
 4184TIP3    H134043   6.272   0.142   2.131  1.6438 -1.9267 -1.1139
 4184TIP3    H234044   6.216   0.210   2.008 -0.9168 -0.2050  0.9470
 4185TIP3   OH234045   6.527   3.587   5.125  0.5125  0.3771 -0.2175
 4185TIP3    H134046   6.436   3.571   5.150  0.1262  1.1880 -1.0713
 4185TIP3    H234047   6.578   3.561   5.202 -0.3729 -0.9237 -0.0543
 4186TIP3   OH234048   2.763   5.568  12.006 -0.4907 -0.5685 -0.0918
 4186TIP3    H134049   2.839   5.523  11.967 -0.0208 -0.9393  1.2303
 4186TIP3    H234050   2.793   5.657  12.020 -1.0787 -0.0959 -1.7363
 4187TIP3   OH234051   1.293   4.206   5.928 -0.4210  0.0057  0.0863
 4187TIP3    H134052   1.314   4.240   6.015  0.5418  0.9651 -0.5008
 4187TIP3    H234053   1.370   4.227   5.876 -0.9209 -0.7245 -0.9580
 4188TIP3   OH234054   6.177   6.494  13.458  0.2375 -0.2143 -0.2203
 4188TIP3    H134055   6.182   6.582  13.421 -0.2220 -0.2891 -0.4663
 4188TIP3    H234056   6.206   6.504  13.549  1.3755 -0.0299 -0.6030
 4189TIP3   OH234057   1.883   6.600  12.035  0.4031  0.5357  0.0765
 4189TIP3    H134058   1.977   6.617  12.027  0.3393  0.2485 -1.5268
 4189TIP3    H234059   1.876   6.532  12.102  1.3337  0.6508  0.2956
 4190TIP3   OH234060   5.212   0.904   3.901  0.0951 -0.1739 -0.4438
 4190TIP3    H134061   5.228   0.810   3.897 -0.7181 -0.3531  0.4352
 4190TIP3    H234062   5.167   0.917   3.985 -1.4859  0.7487 -1.4193
 4191TIP3   OH234063   5.262   0.209  13.407  0.0465  0.5189 -0.2756
 4191TIP3    H134064   5.319   0.197  13.483  0.5020  1.1959 -0.5173
 4191TIP3    H234065   5.314   0.258  13.344 -1.0081  1.6698 -0.2569
 4192TIP3   OH234066   5.663   3.078   4.635 -0.2483  0.4389 -0.4387
 4192TIP3    H134067   5.644   3.057   4.726 -1.0830 -1.4111 -1.0022
 4192TIP3    H234068   5.740   3.134   4.638 -0.5699  0.8125  1.4182
 4193TIP3   OH234069   6.099   6.470   2.649 -0.1880 -0.0148 -0.2814
 4193TIP3    H134070   6.138   6.395   2.694 -1.9700 -1.6217 -1.3527
 4193TIP3    H234071   6.167   6.500   2.589  1.0501  0.1494  1.1743
 4194TIP3   OH234072   0.621   3.054  13.578 -0.0589 -0.0381  0.0579
 4194TIP3    H134073   0.653   3.000  13.650 -0.1990 -0.1845  0.0098
 4194TIP3    H234074   0.535   3.084  13.606  0.5839  1.2649  0.6618
 4195TIP3   OH234075   3.814   3.123   1.098 -0.2937  0.4235  0.2611
 4195TIP3    H134076   3.752   3.056   1.124  1.9308 -1.8333 -0.0404
 4195TIP3    H234077   3.844   3.161   1.181 -1.8655  1.3495  0.4126
 4196TIP3   OH234078   1.405   1.461  16.125 -0.1557  0.3981  0.7905
 4196TIP3    H134079   1.427   1.505  16.043  0.2808  0.3086  0.8538
 4196TIP3    H234080   1.346   1.390  16.099 -0.1078  0.4386  0.5661
 4197TIP3   OH234081   1.629   3.361  17.015 -0.2982 -0.1101 -0.7401
 4197TIP3    H134082   1.605   3.274  17.046  0.6389  0.0409  0.4595
 4197TIP3    H234083   1.602   3.420  17.085 -0.4720  0.5211 -1.3282
 4198TIP3   OH234084   5.421   3.393  13.102 -0.2743 -0.3630 -0.2197
 4198TIP3    H134085   5.332   3.418  13.082 -0.5204 -0.7454  0.3719
 4198TIP3    H234086   5.417   3.356  13.191  0.4633 -0.3824 -0.1836
 4199TIP3   OH234087   0.807   6.189   4.943  0.4707 -0.5536 -0.1006
 4199TIP3    H134088   0.732   6.248   4.950  1.3835  0.6992 -0.7663
 4199TIP3    H234089   0.806   6.161   4.851 -1.4858 -3.6480  0.7847
 4200TIP3   OH234090   3.685   2.094   6.088  0.5931 -0.1497 -0.4207
 4200TIP3    H134091   3.669   2.005   6.057 -1.2408  1.0450 -3.1316
 4200TIP3    H234092   3.606   2.117   6.137  0.0133  0.7698 -1.7399
 4201TIP3   OH234093   1.251   0.143  17.222 -0.2364 -0.3471 -0.1808
 4201TIP3    H134094   1.261   0.088  17.299  0.5408 -0.0463 -0.0608
 4201TIP3    H234095   1.181   0.102  17.172  0.6804 -1.7384 -0.3505
 4202TIP3   OH234096   4.024   0.606   2.733 -0.1346  0.1893 -0.1945
 4202TIP3    H134097   4.088   0.654   2.681 -0.7325  0.4744 -0.6707
 4202TIP3    H234098   3.973   0.674   2.777  0.8175 -0.0491  1.3401
 4203TIP3   OH234099   4.900   4.653   2.399 -0.1665 -0.4292 -0.0811
 4203TIP3    H134100   4.976   4.670   2.343  0.9916 -0.4212  1.4508
 4203TIP3    H234101   4.832   4.711   2.365  0.0732 -1.3967 -2.3101
 4204TIP3   OH234102   5.942   6.797  13.940 -0.5960 -0.0211 -0.0226
 4204TIP3    H134103   5.869   6.818  13.882 -1.1582 -0.4635  0.5210
 4204TIP3    H234104   6.020   6.812  13.886 -1.1021 -0.0964 -0.7869
 4205TIP3   OH234105   2.519   2.891  13.898 -0.6746  0.0271 -0.1486
 4205TIP3    H134106   2.497   2.983  13.907  0.0438  0.0722  1.2775
 4205TIP3    H234107   2.590   2.890  13.834  1.3202  0.7894  1.9790
 4206TIP3   OH234108   6.607   5.931   1.622  0.5856  0.2446 -0.1222
 4206TIP3    H134109   6.615   5.984   1.543  1.8444  0.6090  0.2422
 4206TIP3    H234110   6.574   5.992   1.688  0.7831  0.2546 -0.0337
 4207TIP3   OH234111   5.490   5.538   1.007  0.2395 -0.1294  0.2409
 4207TIP3    H134112   5.577   5.542   0.966  0.3753  0.5213  0.5872
 4207TIP3    H234113   5.503   5.577   1.094 -0.1329 -1.1362  0.7590
 4208TIP3   OH234114   3.840   5.594  16.269 -0.2642  0.2607  0.0268
 4208TIP3    H134115   3.829   5.687  16.252 -0.8476  0.5407  1.8111
 4208TIP3    H234116   3.840   5.553  16.183  1.0782  2.0156 -0.8425
 4209TIP3   OH234117   6.818   6.735   1.726 -0.5666  0.1600  0.8001
 4209TIP3    H134118   6.852   6.660   1.677  1.3524  0.3881  1.7435
 4209TIP3    H234119   6.723   6.731   1.714 -0.3633 -1.6033 -0.3105
 4210TIP3   OH234120   4.479   5.620  10.845  0.3287 -0.0284 -0.3800
 4210TIP3    H134121   4.493   5.618  10.750  0.7664 -0.4760 -0.3112
 4210TIP3    H234122   4.413   5.553  10.861  1.1992 -0.8531 -0.2208
 4211TIP3   OH234123   1.217   4.170  16.362 -0.2594  0.4006 -0.3798
 4211TIP3    H134124   1.308   4.177  16.333 -0.0452  2.1996  0.6452
 4211TIP3    H234125   1.208   4.238  16.429 -1.8766 -0.9429  0.8106
 4212TIP3   OH234126   2.660   1.351   0.552 -0.2254  0.1439  0.6099
 4212TIP3    H134127   2.573   1.321   0.576  0.4468 -0.3348  2.6390
 4212TIP3    H234128   2.672   1.323   0.461 -1.7405 -0.8092  0.6907
 4213TIP3   OH234129   4.623   0.062  13.760  0.4850 -0.1962  0.2706
 4213TIP3    H134130   4.619   0.139  13.817  1.3987  0.5931 -0.7191
 4213TIP3    H234131   4.672   0.091  13.684  0.6469 -1.7074 -0.2159
 4214TIP3   OH234132   2.950   6.043   1.411 -0.5465 -0.1129  0.5680
 4214TIP3    H134133   2.995   6.040   1.326 -1.5011  0.7098  0.0285
 4214TIP3    H234134   3.012   6.089   1.468 -0.3930  0.3937  0.0069
 4215TIP3   OH234135   3.508   3.525  12.864 -0.0613 -0.4625 -0.5720
 4215TIP3    H134136   3.416   3.535  12.838 -1.0245 -0.8943  2.4470
 4215TIP3    H234137   3.526   3.432  12.851 -0.1534 -0.4312 -0.9173
 4216TIP3   OH234138   5.214   0.800  15.246 -0.5107 -0.3009 -0.4069
 4216TIP3    H134139   5.143   0.748  15.286  2.2931 -3.4402  0.7228
 4216TIP3    H234140   5.257   0.843  15.320 -1.3592  1.8620 -1.1241
 4217TIP3   OH234141   1.066   4.471   3.259 -0.1561  0.4096 -0.1624
 4217TIP3    H134142   1.079   4.565   3.244 -0.4805  0.7465  1.4950
 4217TIP3    H234143   1.075   4.431   3.173  0.8873  1.8626 -0.7461
 4218TIP3   OH234144   3.545   1.775  13.342 -0.3372  0.7088  0.2979
 4218TIP3    H134145   3.494   1.836  13.288 -1.6167  0.7647  1.5307
 4218TIP3    H234146   3.608   1.736  13.281 -2.5641 -0.1634 -1.5320
 4219TIP3   OH234147   5.640   4.481  10.343  0.2826  0.3405  0.8258
 4219TIP3    H134148   5.552   4.466  10.378  0.0028  2.3633  1.0745
 4219TIP3    H234149   5.644   4.576  10.329  2.3881  0.2617  0.6994
 4220TIP3   OH234150   2.872   4.130   4.568 -0.0541 -0.1177 -0.5224
 4220TIP3    H134151   2.951   4.181   4.586 -1.1289  1.4972 -0.2384
 4220TIP3    H234152   2.903   4.041   4.555  2.1607  0.9480 -3.1965
 4221TIP3   OH234153   2.044   6.609   6.735  0.3632  0.5652  0.6393
 4221TIP3    H134154   2.016   6.542   6.672  1.3840  2.3278 -1.7480
 4221TIP3    H234155   2.140   6.605   6.734  0.3961  0.7751  1.9248
 4222TIP3   OH234156   1.240   1.557  16.596  0.2175  0.0059  0.4188
 4222TIP3    H134157   1.235   1.558  16.500 -1.5370  0.4346  0.4870
 4222TIP3    H234158   1.328   1.588  16.616 -0.0959  1.9272 -1.0271
 4223TIP3   OH234159   2.399   3.613   3.300  0.1312  0.3371 -0.6208
 4223TIP3    H134160   2.327   3.642   3.244 -0.5974  1.6812  0.9686
 4223TIP3    H234161   2.469   3.676   3.284 -0.1702  0.8743  0.1685
 4224TIP3   OH234162   0.115   2.152   1.546  0.6861 -0.2893  0.1449
 4224TIP3    H134163   0.127   2.063   1.580  2.5318 -0.1597 -0.1314
 4224TIP3    H234164   0.087   2.140   1.455  1.8542 -0.5869 -0.1799
 4225TIP3   OH234165   5.691   4.497   2.235  0.2238 -0.1888 -0.2369
 4225TIP3    H134166   5.739   4.417   2.213 -0.9532 -0.4374 -1.9878
 4225TIP3    H234167   5.599   4.469   2.239  0.1043  0.4955  2.0196
 4226TIP3   OH234168   5.310   6.359  11.175 -0.3714  0.5825 -0.2193
 4226TIP3    H134169   5.340   6.443  11.210 -1.2428 -0.1734  2.4656
 4226TIP3    H234170   5.233   6.380  11.123  1.7870  1.9132 -3.0346
 4227TIP3   OH234171   2.899   2.842   4.199  0.0145  0.1136  0.2554
 4227TIP3    H134172   2.814   2.852   4.243 -1.0545 -1.0554 -1.4849
 4227TIP3    H234173   2.883   2.874   4.110  0.7477 -2.3771 -0.7971
 4228TIP3   OH234174   5.987   6.704  12.299  0.1311  0.3575 -0.3449
 4228TIP3    H134175   5.982   6.795  12.270 -1.9321  0.1791 -0.5827
 4228TIP3    H234176   5.933   6.701  12.378 -0.8843 -0.9506 -1.0772
 4229TIP3   OH234177   1.163   4.922   4.676 -0.2236  0.0184 -0.2085
 4229TIP3    H134178   1.230   4.985   4.649 -0.1640 -0.3162 -0.8407
 4229TIP3    H234179   1.100   4.975   4.725 -0.3087  0.6328 -0.9624
 4230TIP3   OH234180   1.222   5.039   3.514  0.1791 -0.0654  0.0805
 4230TIP3    H134181   1.250   5.040   3.606 -2.0120  1.0531  0.7673
 4230TIP3    H234182   1.187   4.951   3.500 -2.4065  0.7192  1.2781
 4231TIP3   OH234183   2.134   2.804  15.712  0.1495  0.1813  0.0461
 4231TIP3    H134184   2.140   2.714  15.681  0.3007  0.4524 -0.7004
 4231TIP3    H234185   2.167   2.858  15.640  0.8615  0.7834  0.8021
 4232TIP3   OH234186   4.655   5.233  14.598  0.0375 -0.0277 -0.4115
 4232TIP3    H134187   4.655   5.312  14.652 -0.7725 -0.4069  0.1560
 4232TIP3    H234188   4.581   5.182  14.631  0.8178 -1.2182 -0.4963
 4233TIP3   OH234189   6.258   2.655  15.079  0.3818  0.0133  0.2653
 4233TIP3    H134190   6.277   2.600  15.003 -0.8623  0.6841 -0.5440
 4233TIP3    H234191   6.306   2.613  15.151  1.1045 -0.9545 -0.7575
 4234TIP3   OH234192   1.356   6.643  14.718 -0.2110 -0.1994  0.2740
 4234TIP3    H134193   1.442   6.680  14.697  0.4043 -1.0032  1.3632
 4234TIP3    H234194   1.351   6.645  14.813 -0.6262 -1.8776  0.3088
 4235TIP3   OH234195   6.139   2.546   2.879  0.7626 -0.2157 -0.0506
 4235TIP3    H134196   6.213   2.508   2.927  0.5812 -0.9403 -0.3363
 4235TIP3    H234197   6.163   2.537   2.787 -0.4728 -2.1477 -0.2126
 4236TIP3   OH234198   5.393   1.118   5.783  0.2503  0.1450 -0.3883
 4236TIP3    H134199   5.448   1.064   5.840  1.9943  1.8998 -0.3100
 4236TIP3    H234200   5.343   1.173   5.844  0.2818  0.2945 -0.4974
 4237TIP3   OH234201   4.538   0.674  16.433  0.4689 -0.1744 -0.2415
 4237TIP3    H134202   4.505   0.618  16.503 -1.2103  0.7756 -0.2325
 4237TIP3    H234203   4.541   0.762  16.473  1.0474  0.1007 -0.8798
 4238TIP3   OH234204   1.775   1.941   6.292  0.4650 -0.2606 -0.2505
 4238TIP3    H134205   1.686   1.963   6.265  1.0308  0.5847 -1.4617
 4238TIP3    H234206   1.788   1.986   6.375 -0.1219 -0.1111 -0.2437
 4239TIP3   OH234207   0.909   5.622  13.404  0.1344 -0.2702 -0.1414
 4239TIP3    H134208   0.843   5.688  13.423  1.2632  1.1660 -1.0021
 4239TIP3    H234209   0.992   5.666  13.422  0.8641 -1.9868  0.7736
 4240TIP3   OH234210   0.373   3.384   2.798  0.5440 -0.1510  0.2473
 4240TIP3    H134211   0.338   3.346   2.879 -0.4768 -1.0298 -0.5989
 4240TIP3    H234212   0.303   3.441   2.766  0.2944 -1.0742 -0.8776
 4241TIP3   OH234213   4.440   1.485  13.829  0.1289  0.3581  0.1421
 4241TIP3    H134214   4.354   1.510  13.861 -0.6437  0.0610 -1.6290
 4241TIP3    H234215   4.497   1.558  13.854 -0.9256  1.2209  0.0949
 4242TIP3   OH234216   1.508   0.114   2.249  0.3809 -0.3967 -0.5414
 4242TIP3    H134217   1.511   0.047   2.180 -1.6128 -0.9653 -0.1049
 4242TIP3    H234218   1.560   0.077   2.320  0.6648 -0.7542 -0.9292
 4243TIP3   OH234219   6.620   5.393   2.194  0.2216 -0.4895 -0.4791
 4243TIP3    H134220   6.548   5.451   2.170  0.8031 -0.3813 -2.0111
 4243TIP3    H234221   6.679   5.448   2.246  0.2541  0.0095 -1.0394
 4244TIP3   OH234222   5.852   2.977   5.814  0.1808 -0.9374  0.1421
 4244TIP3    H134223   5.798   2.920   5.760 -0.6978  1.0258 -1.1187
 4244TIP3    H234224   5.804   2.985   5.896  0.8665 -2.8727  0.7538
 4245TIP3   OH234225   6.334   4.274  15.128  0.3321 -0.1054  0.0760
 4245TIP3    H134226   6.411   4.253  15.181 -0.7747 -3.1820  0.6193
 4245TIP3    H234227   6.259   4.251  15.184 -0.8921 -1.2173 -1.9439
 4246TIP3   OH234228   3.910   4.831   5.614  0.0304 -0.1571  0.0404
 4246TIP3    H134229   3.893   4.823   5.520  0.2035 -1.1948  0.0936
 4246TIP3    H234230   3.824   4.825   5.654 -0.2758  2.3768 -0.1680
 4247TIP3   OH234231   4.192   0.407   4.687 -0.2619 -0.2092 -0.2067
 4247TIP3    H134232   4.209   0.498   4.712  0.6065 -0.3618 -0.2315
 4247TIP3    H234233   4.269   0.381   4.636 -2.2227  0.2682 -3.5919
 4248TIP3   OH234234   3.072   5.877   5.569  0.2546  0.5044 -0.0092
 4248TIP3    H134235   3.018   5.890   5.491  0.3411  0.5160 -0.0675
 4248TIP3    H234236   3.056   5.786   5.594  0.1603  0.5266  0.0115
 4249TIP3   OH234237   6.082   6.290  11.472  0.0636 -0.1282  0.4454
 4249TIP3    H134238   6.031   6.326  11.399 -1.8894  1.4279  2.5199
 4249TIP3    H234239   6.159   6.346  11.476 -0.2352  0.3168  0.1155
 4250TIP3   OH234240   6.347   2.541  11.224 -0.2541 -0.1771 -0.0641
 4250TIP3    H134241   6.335   2.457  11.268  2.2861 -0.7699 -0.4273
 4250TIP3    H234242   6.355   2.519  11.131 -0.4085  0.5679 -0.2593
 4251TIP3   OH234243   5.417   2.713  12.730 -0.1194 -0.0568  0.2394
 4251TIP3    H134244   5.333   2.675  12.705  0.0987 -0.1027 -0.4266
 4251TIP3    H234245   5.451   2.751  12.649 -0.5556  1.9825  0.9747
 4252TIP3   OH234246   1.764   1.552   3.128  0.3687 -0.2045 -0.6963
 4252TIP3    H134247   1.858   1.548   3.143  0.3532  0.9055 -0.2919
 4252TIP3    H234248   1.742   1.467   3.089  1.4414 -0.6674 -0.2851
 4253TIP3   OH234249   4.286   5.912  17.162  0.0511 -0.5023  0.1654
 4253TIP3    H134250   4.254   5.980  17.221  1.8689 -0.3094  0.9905
 4253TIP3    H234251   4.349   5.957  17.106  1.3464 -1.4900  0.7800
 4254TIP3   OH234252   3.578   2.882  11.886  0.5041  0.3891  0.4377
 4254TIP3    H134253   3.581   2.868  11.981 -2.1246 -1.9813  0.2456
 4254TIP3    H234254   3.545   2.971  11.876  3.1191  1.5542  1.7149
 4255TIP3   OH234255   3.436   5.921  12.332 -0.1793  0.5860  0.5589
 4255TIP3    H134256   3.456   5.828  12.322 -0.0066  0.6117  0.6598
 4255TIP3    H234257   3.357   5.935  12.279  0.9051  0.7929 -1.0342
 4256TIP3   OH234258   6.819   3.006  12.660 -0.2931 -0.4632  0.9931
 4256TIP3    H134259   6.814   3.099  12.636  1.3416 -0.3258  1.1599
 4256TIP3    H234260   6.901   2.998  12.708 -1.5727 -1.5360  3.0630
 4257TIP3   OH234261   0.890   5.063   2.117 -0.3106 -0.1604  0.4079
 4257TIP3    H134262   0.925   5.055   2.029 -2.4685 -0.6093 -0.4363
 4257TIP3    H234263   0.819   4.999   2.120 -0.1471 -0.2818  2.5428
 4258TIP3   OH234264   1.991   5.693   4.104 -0.0705  0.1726 -0.0720
 4258TIP3    H134265   1.906   5.678   4.145  0.1966  0.1298  0.4602
 4258TIP3    H234266   1.990   5.636   4.026 -0.0906 -0.6592  0.5326
 4259TIP3   OH234267   6.082   6.336  12.373  0.2604 -0.5816 -0.1371
 4259TIP3    H134268   6.070   6.241  12.384  0.8585 -0.6003  0.3781
 4259TIP3    H234269   6.129   6.363  12.452  0.0481  0.1557 -0.2662
 4260TIP3   OH234270   0.386   0.860   5.728  0.1761 -0.0782 -0.3823
 4260TIP3    H134271   0.384   0.865   5.824  0.1700 -0.4319 -0.3622
 4260TIP3    H234272   0.293   0.861   5.702  0.1413 -1.0648 -0.3205
 4261TIP3   OH234273   5.039   0.310   5.320 -0.2206 -0.5928  0.5144
 4261TIP3    H134274   4.944   0.296   5.314 -0.3665  0.4442  0.3129
 4261TIP3    H234275   5.050   0.368   5.395  0.2602 -0.6935  0.5219
 4262TIP3   OH234276   0.862   0.652   0.180 -0.1552  0.0801  0.0090
 4262TIP3    H134277   0.943   0.678   0.225  0.5020 -0.9677 -0.5538
 4262TIP3    H234278   0.863   0.703   0.098  0.4720 -0.7279 -0.4882
 4263TIP3   OH234279   1.607   0.003   2.488 -0.3672 -0.3686  0.2424
 4263TIP3    H134280   1.681   0.059   2.512 -0.8623  0.0482  0.8015
 4263TIP3    H234281   1.642  -0.086   2.491  0.6487 -0.0522 -1.4544
 4264TIP3   OH234282   0.368   6.751   2.459 -0.2445  0.4086  0.3289
 4264TIP3    H134283   0.435   6.800   2.412  0.5600  1.2315  2.2949
 4264TIP3    H234284   0.367   6.665   2.416  0.1946  1.2425 -1.4097
 4265TIP3   OH234285   5.238   6.218  15.640  0.1229  0.0188  0.0350
 4265TIP3    H134286   5.231   6.187  15.549 -0.1510  2.0455 -0.6574
 4265TIP3    H234287   5.333   6.226  15.654  0.1429  0.9491 -0.5369
 4266TIP3   OH234288   6.272   1.364   3.091  0.1675  0.5645  0.4929
 4266TIP3    H134289   6.233   1.413   3.018  0.4496  0.1742  0.0801
 4266TIP3    H234290   6.366   1.373   3.079  0.2185  0.1382  0.5673
 4267TIP3   OH234291   3.607   4.659  11.397 -0.7447 -0.0090  0.4798
 4267TIP3    H134292   3.511   4.655  11.398 -0.7791  0.6111  1.8963
 4267TIP3    H234293   3.629   4.697  11.482  0.7346  0.4038 -0.0813
 4268TIP3   OH234294   6.383   5.615   3.207  0.5185  0.2075  0.0913
 4268TIP3    H134295   6.438   5.681   3.166 -0.9667  0.5061 -1.4620
 4268TIP3    H234296   6.348   5.658   3.285  1.1082  0.5832  0.1524
 4269TIP3   OH234297   4.987   4.173   2.420  0.7527  0.2610 -0.5082
 4269TIP3    H134298   4.929   4.198   2.349  0.0614  1.0500  0.3115
 4269TIP3    H234299   4.956   4.087   2.448  0.7426  0.1481 -0.8648
 4270TIP3   OH234300   5.807   2.780   0.931  0.0104 -0.0298 -0.0890
 4270TIP3    H134301   5.847   2.694   0.918  1.4009  0.7099 -0.7855
 4270TIP3    H234302   5.714   2.766   0.911  0.2038 -1.3818 -0.1236
 4271TIP3   OH234303   5.242   4.854  15.295  0.8439  0.1273  0.3131
 4271TIP3    H134304   5.337   4.847  15.287  0.6567 -1.7899 -0.3504
 4271TIP3    H234305   5.217   4.785  15.356 -0.1118  0.8277  0.7423
 4272TIP3   OH234306   3.094   3.800  15.066  0.1086 -0.2186  0.3782
 4272TIP3    H134307   3.100   3.767  15.156 -1.7715  0.6954  0.8645
 4272TIP3    H234308   3.021   3.752  15.028  1.1753 -0.9122 -0.8257
 4273TIP3   OH234309   0.621   1.800  13.692 -0.2090 -0.1035 -0.6386
 4273TIP3    H134310   0.688   1.737  13.719  2.0141  3.4652  2.5905
 4273TIP3    H234311   0.658   1.844  13.616 -1.5443 -2.2345 -2.5778
 4274TIP3   OH234312   5.968   3.766   1.505 -0.2678  0.3152  0.7337
 4274TIP3    H134313   6.011   3.690   1.467  0.1720  0.0701  1.7018
 4274TIP3    H234314   5.878   3.762   1.472  0.1013  0.1041 -0.2466
 4275TIP3   OH234315   0.033   2.101  14.086 -0.0726 -0.3162 -0.6876
 4275TIP3    H134316   0.001   2.011  14.084  2.2625 -1.1864 -0.5998
 4275TIP3    H234317   0.049   2.119  14.179  1.1771 -0.4719 -0.8585
 4276TIP3   OH234318   1.572   4.872   5.086 -0.5211 -0.2420 -0.3767
 4276TIP3    H134319   1.527   4.956   5.076  0.0257  0.0658 -0.2865
 4276TIP3    H234320   1.550   4.844   5.175 -0.1314  0.1517 -0.1514
 4277TIP3   OH234321   0.797   5.400  15.088  0.1985  0.7054 -0.6092
 4277TIP3    H134322   0.768   5.484  15.052 -0.4526  1.5167  1.7138
 4277TIP3    H234323   0.724   5.340  15.070 -0.2526  1.1806 -0.3934
 4278TIP3   OH234324   4.587   4.000  16.445 -0.0822 -0.4636  0.0735
 4278TIP3    H134325   4.571   3.906  16.458 -0.9022 -0.0372  2.4284
 4278TIP3    H234326   4.679   4.012  16.466  0.3728 -0.9484 -1.5829
 4279TIP3   OH234327   2.622   1.298   0.279  0.4157 -0.2933 -0.0034
 4279TIP3    H134328   2.613   1.391   0.261  0.8419  0.1930  2.1451
 4279TIP3    H234329   2.592   1.255   0.199 -0.0358  1.6708 -0.9208
 4280TIP3   OH234330   3.911   6.409  12.817  0.6397 -0.0131  0.3431
 4280TIP3    H134331   3.874   6.488  12.778  0.6795 -0.0522  0.2264
 4280TIP3    H234332   3.909   6.426  12.911 -0.1388 -0.2194  0.3647
 4281TIP3   OH234333   6.454   0.230   1.818  0.5342  0.0498  0.0090
 4281TIP3    H134334   6.393   0.193   1.754  1.8245 -0.9213 -0.7126
 4281TIP3    H234335   6.404   0.235   1.899 -0.3029 -1.3951 -0.3866
 4282TIP3   OH234336   3.670   5.007   5.506 -0.0581  0.1753  0.0031
 4282TIP3    H134337   3.579   5.034   5.519 -1.0455 -3.3445  1.0144
 4282TIP3    H234338   3.707   5.003   5.594  1.0578  1.4627 -0.3960
 4283TIP3   OH234339   5.452   3.962  10.617 -0.5288  0.2335 -0.2245
 4283TIP3    H134340   5.405   3.910  10.682 -1.3923  2.2705  0.8355
 4283TIP3    H234341   5.447   4.052  10.650  0.3189  1.0996 -2.3547
 4284TIP3   OH234342   1.323   4.229   3.320 -0.2661  0.2680  0.3118
 4284TIP3    H134343   1.342   4.289   3.392  1.9654 -1.2865  1.0808
 4284TIP3    H234344   1.302   4.146   3.363  1.1595 -0.6939 -0.7888
 4285TIP3   OH234345   6.273   4.522  11.614  0.3450 -0.5826  0.4671
 4285TIP3    H134346   6.192   4.500  11.660  0.0367  1.0436  0.7275
 4285TIP3    H234347   6.254   4.505  11.522 -0.7613  1.0353  0.3668
 4286TIP3   OH234348   2.848   6.652   4.588 -0.0630  0.2767 -0.2023
 4286TIP3    H134349   2.757   6.656   4.617 -0.4292  0.4526 -1.3450
 4286TIP3    H234350   2.849   6.585   4.519  0.9572 -0.7360  0.7783
 4287TIP3   OH234351   5.936   0.798  12.022  0.5725 -0.1554 -0.2530
 4287TIP3    H134352   5.897   0.793  11.934  0.5216  1.6317 -0.3665
 4287TIP3    H234353   6.006   0.734  12.021  0.8441  0.1386 -1.7634
 4288TIP3   OH234354   4.474   4.104   4.814  0.0859 -0.1751  0.5444
 4288TIP3    H134355   4.567   4.120   4.795 -0.0287  0.5775  0.6213
 4288TIP3    H234356   4.435   4.092   4.727  0.5164 -2.0064  0.5719
 4289TIP3   OH234357   3.542   2.666   3.051  0.3126  0.0037 -0.1063
 4289TIP3    H134358   3.487   2.589   3.062  1.3831 -0.8704 -0.8615
 4289TIP3    H234359   3.503   2.713   2.977 -0.7946  0.6115  0.8326
 4290TIP3   OH234360   6.591   2.876   2.645  0.0399  0.1308 -0.1046
 4290TIP3    H134361   6.616   2.785   2.631 -2.8506 -0.5795 -0.7986
 4290TIP3    H234362   6.567   2.881   2.737 -0.2039  0.1110 -0.1686
 4291TIP3   OH234363   5.008   2.564   2.678 -0.6330  0.0488 -0.0988
 4291TIP3    H134364   5.071   2.563   2.606  1.1178  0.1829  1.3867
 4291TIP3    H234365   4.981   2.656   2.686 -0.2010  0.1722 -0.0630
 4292TIP3   OH234366   2.229   5.462  17.023  0.2750 -0.0115  0.0902
 4292TIP3    H134367   2.255   5.554  17.013 -1.5759  0.3761 -1.6186
 4292TIP3    H234368   2.134   5.465  17.033  0.0160 -1.8135 -1.4093
 4293TIP3   OH234369   4.532   1.010   1.940  0.4923 -0.4988  0.1290
 4293TIP3    H134370   4.622   1.041   1.933 -0.5954  2.7904 -0.0840
 4293TIP3    H234371   4.487   1.048   1.864 -1.0729 -2.1319  0.1968
 4294TIP3   OH234372   2.762   4.161   3.132 -0.2082 -0.2992 -0.0759
 4294TIP3    H134373   2.706   4.119   3.066 -1.2712  1.7759 -0.5365
 4294TIP3    H234374   2.745   4.254   3.122  2.0982  0.2665  0.9413
 4295TIP3   OH234375   0.638   3.900  12.517 -0.8043 -0.3787  0.7197
 4295TIP3    H134376   0.699   3.889  12.443 -0.7403  1.1698  0.5387
 4295TIP3    H234377   0.646   3.818  12.565  0.5024 -0.7029  0.0029
 4296TIP3   OH234378   5.505   4.880  15.349 -0.1493  0.5243  0.1260
 4296TIP3    H134379   5.474   4.963  15.313 -1.5292  0.8265  1.9736
 4296TIP3    H234380   5.579   4.904  15.405 -1.0339  0.6288  1.2771
 4297TIP3   OH234381   4.388   1.008  10.696 -0.2589  0.2830  0.5574
 4297TIP3    H134382   4.481   0.987  10.705  0.4835  2.5580 -1.1359
 4297TIP3    H234383   4.364   0.973  10.610 -0.6050  0.9476  0.3830
 4298TIP3   OH234384   1.509   5.252  17.068 -0.3181  0.0540 -0.4969
 4298TIP3    H134385   1.582   5.203  17.031 -0.0016 -0.0510  0.2527
 4298TIP3    H234386   1.497   5.215  17.155  0.1540  1.5150  0.2162
 4299TIP3   OH234387   1.414   2.878   1.906  0.2497 -0.2992  0.5602
 4299TIP3    H134388   1.418   2.862   2.001  2.6656  0.8312  0.6743
 4299TIP3    H234389   1.490   2.832   1.870 -0.2385 -0.1001 -0.7526
 4300TIP3   OH234390   4.982   1.850  14.435  0.1289 -0.6087  0.0105
 4300TIP3    H134391   4.984   1.766  14.390 -0.8980 -1.7114  2.0025
 4300TIP3    H234392   4.946   1.831  14.521  1.5172  1.5836  1.1216
 4301TIP3   OH234393   0.704   4.724  12.421 -0.5112  0.9901  0.0972
 4301TIP3    H134394   0.772   4.786  12.449  0.3709  0.3036 -0.5052
 4301TIP3    H234395   0.707   4.653  12.485  1.7002 -0.7194 -1.8322
 4302TIP3   OH234396   4.739   3.486   2.067  0.0589  0.2005  0.0119
 4302TIP3    H134397   4.715   3.458   1.979  0.6835 -0.3081 -0.0028
 4302TIP3    H234398   4.682   3.436   2.125  1.7671 -1.7984  0.0284
 4303TIP3   OH234399   5.305   0.340   2.246 -0.0617  0.7384  0.4569
 4303TIP3    H134400   5.264   0.260   2.281  1.4364 -0.0647  0.4526
 4303TIP3    H234401   5.367   0.366   2.314  0.0479  1.4216  0.0930
 4304TIP3   OH234402   5.005   2.038   2.805 -0.3312 -0.2031  0.4489
 4304TIP3    H134403   4.968   1.963   2.851 -2.6859  1.2343  1.0481
 4304TIP3    H234404   4.958   2.041   2.722 -0.3767  0.6662  0.4938
 4305TIP3   OH234405   1.794   6.404  11.258  0.4597  0.6397  0.0396
 4305TIP3    H134406   1.838   6.345  11.319 -0.9267  0.5325  0.9526
 4305TIP3    H234407   1.821   6.373  11.171 -0.2192 -1.3206  0.5022
 4306TIP3   OH234408   4.971   1.994  13.684  0.0962 -0.3140  0.3827
 4306TIP3    H134409   5.001   1.931  13.619  0.3263  1.1353 -0.9603
 4306TIP3    H234410   4.958   1.943  13.764 -2.0613 -2.4805 -1.2891
 4307TIP3   OH234411   0.598   2.698  15.862 -0.1196  0.4131  0.8706
 4307TIP3    H134412   0.675   2.743  15.826  0.8529 -1.9262 -0.0644
 4307TIP3    H234413   0.633   2.642  15.931 -1.0758 -0.1854  0.8800
 4308TIP3   OH234414   4.818   5.877  12.445  0.0214  0.7769  0.0752
 4308TIP3    H134415   4.730   5.911  12.462  0.4122  2.1736 -0.6213
 4308TIP3    H234416   4.834   5.895  12.352  0.1788 -1.5077 -0.3744
 4309TIP3   OH234417   1.731   5.656   4.927  0.0738  0.4661  0.6435
 4309TIP3    H134418   1.755   5.593   4.996  1.7302  0.8917  0.4928
 4309TIP3    H234419   1.761   5.615   4.846 -0.2840  0.7459  0.3682
 4310TIP3   OH234420   4.594   2.427   0.892 -0.4096  0.3818  0.5064
 4310TIP3    H134421   4.592   2.473   0.808  1.7546 -0.6250 -0.1339
 4310TIP3    H234422   4.537   2.352   0.880  1.6400 -0.9986 -0.8478
 4311TIP3   OH234423   1.372   3.598   0.353  0.4335  0.8281  0.0416
 4311TIP3    H134424   1.336   3.521   0.398  0.1533 -0.1982 -1.9035
 4311TIP3    H234425   1.440   3.631   0.413  0.2312 -0.6360  1.1103
 4312TIP3   OH234426   2.600   1.865   4.921 -0.8563 -0.5747 -0.4165
 4312TIP3    H134427   2.555   1.844   4.839  0.4698 -0.0547 -1.3086
 4312TIP3    H234428   2.636   1.953   4.906  0.1639 -0.8519  0.3768
 4313TIP3   OH234429   5.445   1.975  12.528  0.1751  0.6598 -0.8016
 4313TIP3    H134430   5.374   2.013  12.475 -0.6709  0.2903  0.0526
 4313TIP3    H234431   5.525   2.014  12.492 -0.4036  0.6081 -2.1875
 4314TIP3   OH234432   3.007   6.591   2.979  0.2384 -0.6816 -0.2231
 4314TIP3    H134433   3.039   6.658   3.038 -1.2402 -0.8414  0.7960
 4314TIP3    H234434   2.951   6.535   3.033  0.4067 -1.9762 -1.3369
 4315TIP3   OH234435   0.385   6.231   1.845 -0.0602  0.4633  0.0328
 4315TIP3    H134436   0.396   6.214   1.752 -1.3887  0.8605 -0.2128
 4315TIP3    H234437   0.367   6.145   1.884 -2.6514  0.6791 -0.5780
 4316TIP3   OH234438   1.856   5.327   0.143 -0.5307 -0.1025  0.2893
 4316TIP3    H134439   1.892   5.410   0.176  0.3461 -1.6834  3.5209
 4316TIP3    H234440   1.928   5.265   0.150 -2.0076 -1.8039  0.6176
 4317TIP3   OH234441   5.565   4.399  16.230  0.3667  0.5887 -0.1464
 4317TIP3    H134442   5.536   4.326  16.176  1.2688 -0.3327  0.6040
 4317TIP3    H234443   5.508   4.396  16.307  1.1201  0.0055  0.3920
 4318TIP3   OH234444   2.020   3.844   3.939 -0.4556  0.2255  0.2085
 4318TIP3    H134445   1.947   3.810   3.991  0.6379 -0.6630  1.1950
 4318TIP3    H234446   2.093   3.851   4.001  0.8819 -0.8572 -1.1646
 4319TIP3   OH234447   0.251   1.152  15.609  0.3712  0.1577  0.2237
 4319TIP3    H134448   0.266   1.244  15.631 -1.8115  1.3825 -2.9539
 4319TIP3    H234449   0.297   1.139  15.527 -0.6394 -1.1131 -0.1636
 4320TIP3   OH234450   5.191   5.305  10.800 -0.1432 -0.5581 -0.1275
 4320TIP3    H134451   5.163   5.369  10.865  0.7913  0.3451 -0.6075
 4320TIP3    H234452   5.129   5.232  10.811  0.3112 -0.6587  2.1211
 4321TIP3   OH234453   0.739   4.269  16.449  0.2339  0.5036  0.0163
 4321TIP3    H134454   0.709   4.219  16.373  2.1100  0.4608 -0.7043
 4321TIP3    H234455   0.666   4.327  16.469 -0.6326 -0.1255 -1.2404
 4322TIP3   OH234456   5.661   5.688  11.508  0.1111 -0.0791  0.3104
 4322TIP3    H134457   5.731   5.710  11.446 -1.1023  1.0737 -0.6820
 4322TIP3    H234458   5.590   5.748  11.486 -0.7358 -0.3849  2.1345
 4323TIP3   OH234459   0.158   6.007   1.538  0.4880 -0.1686  0.7342
 4323TIP3    H134460   0.239   5.984   1.584  1.5965  0.7730 -0.7083
 4323TIP3    H234461   0.156   5.947   1.463 -0.0392 -0.0533  0.6577
 4324TIP3   OH234462   6.263   1.169   1.191 -0.2791 -0.1225 -0.2057
 4324TIP3    H134463   6.287   1.148   1.281  0.4546  0.4219 -0.2620
 4324TIP3    H234464   6.213   1.250   1.198  1.4367  0.9935 -0.4384
 4325TIP3   OH234465   3.899   2.145   2.971 -0.0869 -0.3276  0.1620
 4325TIP3    H134466   3.929   2.150   2.880  1.9700 -0.2700  0.8374
 4325TIP3    H234467   3.891   2.051   2.988  0.2643 -0.3527  0.1765
 4326TIP3   OH234468   1.068   4.055   2.369 -0.3100  0.3589  0.2302
 4326TIP3    H134469   1.055   4.034   2.462  2.2288  0.7154  0.7133
 4326TIP3    H234470   1.082   3.970   2.327 -0.9704  0.2369  0.2565
 4327TIP3   OH234471   0.265   4.905   3.696 -0.2434  0.2432  0.0647
 4327TIP3    H134472   0.291   4.957   3.772 -0.8839  0.0246  0.4344
 4327TIP3    H234473   0.348   4.884   3.652  0.3374 -1.5198  1.9340
 4328TIP3   OH234474   2.011   2.139  15.660 -0.0178  0.1058 -0.2203
 4328TIP3    H134475   2.018   2.058  15.711 -1.6763  0.8550  1.2280
 4328TIP3    H234476   2.100   2.155  15.629  0.8281 -0.9149  1.6091
 4329TIP3   OH234477   0.485   0.722   6.360  0.0985  0.1559  0.0627
 4329TIP3    H134478   0.518   0.788   6.422 -1.7440 -0.2833  1.5399
 4329TIP3    H234479   0.432   0.772   6.299  0.7156  0.3782 -0.3002
 4330TIP3   OH234480   4.848   6.348  16.640  0.1140  0.3295  0.7062
 4330TIP3    H134481   4.930   6.377  16.679  1.2345  1.2547 -2.2088
 4330TIP3    H234482   4.872   6.273  16.586 -1.5860 -1.6367  2.5653
 4331TIP3   OH234483   0.641   4.319  11.269 -0.2772 -0.0252 -0.5421
 4331TIP3    H134484   0.719   4.360  11.231  0.3118 -0.4074  0.2373
 4331TIP3    H234485   0.575   4.389  11.268  1.3148  1.6624  2.6902
 4332TIP3   OH234486   3.591   2.392  12.734  0.0861 -0.0935 -0.1758
 4332TIP3    H134487   3.511   2.383  12.682  0.7251  2.5136 -1.7072
 4332TIP3    H234488   3.658   2.348  12.681 -0.1460 -1.4669  0.6626
 4333TIP3   OH234489   0.108   3.879  14.171 -0.5841 -0.1628  0.0743
 4333TIP3    H134490   0.091   3.786  14.183 -0.6675 -0.2346 -0.5774
 4333TIP3    H234491   0.087   3.896  14.079 -1.0802  0.6077  0.3190
 4334TIP3   OH234492   5.556   0.817   1.204  0.1243 -0.6232 -0.0170
 4334TIP3    H134493   5.469   0.853   1.187  0.7487 -0.1884 -2.5034
 4334TIP3    H234494   5.541   0.723   1.217 -0.8880 -0.3030  1.1345
 4335TIP3   OH234495   0.443   5.872  15.945 -0.9871  0.5545 -0.2268
 4335TIP3    H134496   0.453   5.814  16.021  0.8714  1.2376  0.0662
 4335TIP3    H234497   0.405   5.952  15.981 -2.2535  0.0498 -0.4090
 4336TIP3   OH234498   0.388   4.182   1.210 -0.4390  0.5072 -0.0528
 4336TIP3    H134499   0.420   4.156   1.296  0.3601 -0.2823 -0.5821
 4336TIP3    H234500   0.341   4.264   1.226 -1.1575 -0.1444  1.2868
 4337TIP3   OH234501   5.664   1.856  17.053  0.0148  0.4110  0.2199
 4337TIP3    H134502   5.746   1.854  17.004  0.1407 -0.4884  0.4505
 4337TIP3    H234503   5.627   1.768  17.042 -1.0629  0.8947 -0.1233
 4338TIP3   OH234504   1.558   0.735   3.037 -0.2462 -0.1183 -0.1224
 4338TIP3    H134505   1.614   0.731   3.115 -1.0017 -0.6726  0.4013
 4338TIP3    H234506   1.618   0.718   2.964  0.1437 -1.5516  0.5038
 4339TIP3   OH234507   4.233   3.871  14.219 -0.7716  0.1634 -0.4125
 4339TIP3    H134508   4.213   3.944  14.161 -0.1840 -1.3197 -2.5693
 4339TIP3    H234509   4.169   3.803  14.194 -1.0002 -0.2306  1.2049
 4340TIP3   OH234510   3.009   3.030   6.070 -0.1555  0.2917  0.5776
 4340TIP3    H134511   2.998   3.065   6.159  0.7196  0.7183  0.5250
 4340TIP3    H234512   3.082   2.967   6.078 -1.2475 -0.9982  0.5245
 4341TIP3   OH234513   3.088   4.841  11.455 -0.0216  0.1414 -0.3945
 4341TIP3    H134514   3.058   4.847  11.364 -0.1569  0.0323 -0.3580
 4341TIP3    H234515   3.150   4.768  11.455 -0.3926 -0.1761 -0.3016
 4342TIP3   OH234516   3.543   5.992  11.194 -0.2138  0.1739  0.0249
 4342TIP3    H134517   3.501   6.012  11.111  1.1580  0.1176 -0.6956
 4342TIP3    H234518   3.504   5.909  11.222 -0.1045 -0.2048 -0.9516
 4343TIP3   OH234519   6.482   2.032   6.478  0.7294 -0.2093 -0.3282
 4343TIP3    H134520   6.515   2.035   6.568  0.2781  1.4012 -0.1948
 4343TIP3    H234521   6.425   2.108   6.471 -1.9962 -2.2389 -0.9437
 4344TIP3   OH234522   5.850   0.928   4.188  0.2320  0.5609 -0.0456
 4344TIP3    H134523   5.934   0.973   4.195 -0.0445  1.1126 -0.2452
 4344TIP3    H234524   5.860   0.870   4.112  0.2650  0.9874 -0.3678
 4345TIP3   OH234525   6.273   6.379   2.861  0.2321  0.2108 -0.4341
 4345TIP3    H134526   6.321   6.363   2.779  0.9769 -0.2245  0.0758
 4345TIP3    H234527   6.246   6.292   2.890 -0.1685  0.3816 -0.2950
 4346TIP3   OH234528   5.568   4.285  14.761 -0.5657 -0.1322 -0.2800
 4346TIP3    H134529   5.545   4.344  14.690 -1.0389  1.6863  1.3196
 4346TIP3    H234530   5.639   4.230  14.726 -0.9556  0.5650 -2.1905
 4347TIP3   OH234531   5.385   6.623  15.610 -0.8054  0.6420 -0.0486
 4347TIP3    H134532   5.430   6.679  15.547  0.2188 -1.2108 -1.0062
 4347TIP3    H234533   5.455   6.573  15.652 -1.8046 -1.1622 -0.4575
 4348TIP3   OH234534   4.228   1.353  16.486 -0.3560 -0.2901 -0.3854
 4348TIP3    H134535   4.245   1.405  16.407  0.1566 -0.9964 -0.7462
 4348TIP3    H234536   4.192   1.415  16.549  1.5140  0.7806 -0.3577
 4349TIP3   OH234537   3.758   1.141   1.047  0.4150 -0.5114  0.2272
 4349TIP3    H134538   3.771   1.080   0.975 -1.0213 -0.8264  0.2227
 4349TIP3    H234539   3.668   1.126   1.076 -0.5974  2.8994 -0.9952
 4350TIP3   OH234540   4.996   1.373   3.643 -0.3655  0.8158 -0.0120
 4350TIP3    H134541   5.084   1.412   3.640 -0.4242  0.8770 -1.6377
 4350TIP3    H234542   4.995   1.322   3.724  1.0347  1.1444  0.2312
 4351TIP3   OH234543   3.155   0.774   2.918  0.1439  0.1084 -0.4230
 4351TIP3    H134544   3.219   0.707   2.893  0.2351 -0.0133  0.1226
 4351TIP3    H234545   3.126   0.812   2.835  1.5054  0.7145 -0.6329
 4352TIP3   OH234546   6.329   6.495   1.362  0.6147 -0.1500 -0.1642
 4352TIP3    H134547   6.306   6.527   1.274 -2.5223  0.2142  0.7067
 4352TIP3    H234548   6.287   6.409   1.368 -0.5562  0.5039  1.4968
 4353TIP3   OH234549   4.170   4.504   2.797 -0.0309 -0.1100  0.3877
 4353TIP3    H134550   4.165   4.516   2.892  1.5288 -0.0548  0.4872
 4353TIP3    H234551   4.120   4.577   2.761 -1.3851 -0.6397  1.1768
 4354TIP3   OH234552   0.219   0.039  16.849 -0.4606  0.0364 -0.0642
 4354TIP3    H134553   0.131   0.069  16.872  0.8735  2.0310  2.7296
 4354TIP3    H234554   0.247   0.097  16.778 -0.6988  0.6123  0.3122
 4355TIP3   OH234555   2.798   2.697  11.540  0.2125  0.4997  0.0020
 4355TIP3    H134556   2.739   2.722  11.469 -1.8174 -1.2475  1.0246
 4355TIP3    H234557   2.851   2.626  11.505 -1.6673 -1.2259  0.6172
 4356TIP3   OH234558   4.315   2.945   2.323 -0.2992 -0.0738 -0.0147
 4356TIP3    H134559   4.375   3.018   2.308 -1.7505  1.1068 -0.1281
 4356TIP3    H234560   4.286   2.955   2.413 -1.9166  0.5722 -0.5859
 4357TIP3   OH234561   2.975   2.012   0.611  0.1184 -0.1314  0.2549
 4357TIP3    H134562   3.024   2.002   0.529  0.3374 -2.3058  0.6134
 4357TIP3    H234563   2.885   1.988   0.588 -0.1937  1.0126  0.2570
 4358TIP3   OH234564   5.006   5.359   4.073 -0.1967  0.7694  0.3575
 4358TIP3    H134565   5.025   5.441   4.119 -0.7028  0.8550  0.4083
 4358TIP3    H234566   5.090   5.312   4.073 -0.6982 -0.2509  3.3915
 4359TIP3   OH234567   5.159   1.277   0.066 -0.0648 -0.4155 -0.0141
 4359TIP3    H134568   5.164   1.371   0.053 -1.0415 -0.4109 -0.4114
 4359TIP3    H234569   5.245   1.252   0.100  0.6694  0.4152 -1.2210
 4360TIP3   OH234570   4.320   1.008  14.602  0.4392 -0.1761 -0.8637
 4360TIP3    H134571   4.267   0.989  14.524  1.9598 -1.3848 -1.6408
 4360TIP3    H234572   4.316   0.927  14.653  0.2014  0.3005 -0.1235
 4361TIP3   OH234573   2.639   3.858   4.669 -0.6157 -0.3505  0.3724
 4361TIP3    H134574   2.595   3.858   4.754  0.2192 -0.7324  0.8084
 4361TIP3    H234575   2.700   3.784   4.674  1.0823  1.0092  0.2901
 4362TIP3   OH234576   1.137   1.138   6.225 -0.2996 -0.7968 -0.3113
 4362TIP3    H134577   1.097   1.057   6.255  0.6775 -0.9058  0.7337
 4362TIP3    H234578   1.133   1.197   6.300  1.8609 -0.9666 -0.0103
 4363TIP3   OH234579   4.932   4.849   3.008  0.1057 -0.0441 -0.2466
 4363TIP3    H134580   4.916   4.866   3.101  1.1159  0.7994 -0.2240
 4363TIP3    H234581   5.026   4.834   3.002  0.2307  1.1286 -1.3355
 4364TIP3   OH234582   3.025   6.363   0.784  0.0342  0.2850  0.0655
 4364TIP3    H134583   3.071   6.444   0.762 -1.0333  1.0447  0.5879
 4364TIP3    H234584   3.080   6.323   0.852  0.6692  0.4638 -0.3359
 4365TIP3   OH234585   3.402   5.782   0.919 -0.3415  0.8182  0.0802
 4365TIP3    H134586   3.380   5.874   0.903  0.8263  0.9674 -0.7311
 4365TIP3    H234587   3.465   5.761   0.850  0.1340 -0.3081  0.8629
 4366TIP3   OH234588   3.322   3.322  12.767  0.6746  0.2838  0.2940
 4366TIP3    H134589   3.377   3.243  12.774 -0.7327 -0.8817 -1.2936
 4366TIP3    H234590   3.279   3.313  12.682 -2.1836  1.0049  1.6178
 4367TIP3   OH234591   4.170   0.350   2.584  0.1752 -0.2986  0.1364
 4367TIP3    H134592   4.228   0.307   2.647 -0.1343  0.9003  1.2641
 4367TIP3    H234593   4.083   0.318   2.607  0.2893 -1.5167 -1.0744
 4368TIP3   OH234594   6.095   6.636  15.941 -0.1544  0.5533 -0.2077
 4368TIP3    H134595   6.081   6.730  15.954  2.0970  0.8010  0.6636
 4368TIP3    H234596   6.127   6.605  16.026 -1.4202 -1.1436 -0.3189
 4369TIP3   OH234597   4.336   4.014   6.108 -0.2871  0.0738  0.4620
 4369TIP3    H134598   4.264   4.064   6.070  0.2405  0.4483 -0.0491
 4369TIP3    H234599   4.377   4.073   6.170 -0.8491 -0.3777  1.2737
 4370TIP3   OH234600   4.815   5.155  16.037 -0.0779  0.1383 -0.0084
 4370TIP3    H134601   4.810   5.074  15.986 -1.6773 -0.4158  1.0177
 4370TIP3    H234602   4.724   5.184  16.047  0.4852  2.2299 -0.6130
 4371TIP3   OH234603   3.907   6.065  11.462  0.1526  0.0332  0.6993
 4371TIP3    H134604   3.859   5.985  11.440 -0.9966  0.7238  0.6643
 4371TIP3    H234605   3.895   6.122  11.386 -1.3670  1.3028  1.8660
 4372TIP3   OH234606   2.350   5.066   3.598 -0.3713 -0.2475  0.4943
 4372TIP3    H134607   2.284   5.000   3.620  0.9776 -1.6670  0.3628
 4372TIP3    H234608   2.300   5.136   3.555 -1.5580 -2.0346 -1.1078
 4373TIP3   OH234609   6.439   6.380   1.747 -0.2037  0.8788 -0.0178
 4373TIP3    H134610   6.532   6.402   1.758 -0.1387 -0.1045  1.5419
 4373TIP3    H234611   6.438   6.314   1.678  0.3359  0.4261  0.3949
 4374TIP3   OH234612   2.723   4.841  17.076  0.0445  0.0698 -0.2537
 4374TIP3    H134613   2.754   4.755  17.047  0.3956  0.6717 -1.7112
 4374TIP3    H234614   2.780   4.903  17.032  1.1120  1.0287  2.3927
 4375TIP3   OH234615   1.098   4.052  11.855 -0.5010 -0.0829 -0.4237
 4375TIP3    H134616   1.050   4.059  11.772 -2.4314  0.6204  0.7236
 4375TIP3    H234617   1.176   4.001  11.833 -0.7237  0.5184 -2.7819
 4376TIP3   OH234618   6.464   4.063  12.105  0.1773  0.6560  0.0685
 4376TIP3    H134619   6.452   4.032  12.016 -1.4815  0.0531  0.4828
 4376TIP3    H234620   6.484   3.985  12.156 -3.1274  0.2950  0.9520
 4377TIP3   OH234621   2.636   5.379   2.346 -0.0912 -0.1835 -0.5243
 4377TIP3    H134622   2.698   5.322   2.301 -1.0062 -1.6807  0.0588
 4377TIP3    H234623   2.597   5.323   2.413 -1.0389  1.1362  0.0440
 4378TIP3   OH234624   4.929   6.113   3.323  0.2029 -0.4492 -0.1539
 4378TIP3    H134625   4.956   6.065   3.245 -0.6268  0.0404 -0.7557
 4378TIP3    H234626   4.918   6.203   3.293  0.0406 -0.2276  0.5665
 4379TIP3   OH234627   1.784   4.819   6.360 -0.1346 -0.4214  0.7967
 4379TIP3    H134628   1.870   4.779   6.349  0.3877  0.3422  2.0300
 4379TIP3    H234629   1.744   4.770   6.432 -0.9182 -1.0411 -0.0332
 4380TIP3   OH234630   4.497   0.294   6.903  0.1971  0.3697  0.4791
 4380TIP3    H134631   4.427   0.286   6.967 -0.2819 -0.7581 -0.1764
 4380TIP3    H234632   4.478   0.375   6.856 -0.9690 -0.2053 -0.0500
 4381TIP3   OH234633   1.995   4.841  11.864  0.0465  0.4022 -0.5485
 4381TIP3    H134634   1.967   4.926  11.897  0.1983 -0.1654  1.0938
 4381TIP3    H234635   1.914   4.793  11.847 -0.0356  0.7488 -1.1240
 4382TIP3   OH234636   4.954   5.892  14.140  0.3572  0.4765  0.4937
 4382TIP3    H134637   4.894   5.852  14.203  0.4809 -0.3917  0.0653
 4382TIP3    H234638   4.986   5.971  14.185 -1.3405  1.1314  0.5885
 4383TIP3   OH234639   3.522   4.092  16.827 -0.5666 -0.1241  0.2541
 4383TIP3    H134640   3.553   4.066  16.914 -2.3957  2.0313  1.5881
 4383TIP3    H234641   3.437   4.048  16.818 -0.4426 -0.2324 -0.4065
 4384TIP3   OH234642   2.509   0.182   4.328  0.1126 -0.0425  0.5915
 4384TIP3    H134643   2.554   0.246   4.272  2.1761 -1.8021  0.1551
 4384TIP3    H234644   2.439   0.146   4.274  0.2994  0.3119  0.1151
 4385TIP3   OH234645   5.368   2.513  14.654  0.4569  0.2912 -0.4257
 4385TIP3    H134646   5.391   2.585  14.712  0.8852  0.5318 -0.8961
 4385TIP3    H234647   5.361   2.553  14.568 -0.4454 -0.0149 -0.5044
 4386TIP3   OH234648   6.346   0.855  12.786 -0.3922  0.1606 -0.4259
 4386TIP3    H134649   6.378   0.886  12.871 -0.9135  0.9240 -0.5073
 4386TIP3    H234650   6.411   0.887  12.723 -0.1117 -0.2345 -0.3380
 4387TIP3   OH234651   5.249   4.334   2.956 -0.0604  0.2564 -0.3251
 4387TIP3    H134652   5.265   4.365   3.045 -1.1980 -2.2237  0.8147
 4387TIP3    H234653   5.158   4.356   2.938  0.4358  1.6173 -1.2879
 4388TIP3   OH234654   5.573   5.110   2.179 -0.2687 -0.1218 -0.7007
 4388TIP3    H134655   5.511   5.077   2.114 -0.0135  0.3263 -1.1766
 4388TIP3    H234656   5.651   5.056   2.168 -0.7419 -1.0211  0.2410
 4389TIP3   OH234657   0.607   2.736   4.722 -0.0635 -0.0805  0.8039
 4389TIP3    H134658   0.553   2.769   4.793 -0.0209  2.3022 -0.2242
 4389TIP3    H234659   0.688   2.787   4.727  0.1125 -0.1796 -0.6692
 4390TIP3   OH234660   3.702   0.905   3.256  0.0302 -0.1081  0.3555
 4390TIP3    H134661   3.697   0.999   3.272 -0.7349 -0.1650  0.4705
 4390TIP3    H234662   3.708   0.866   3.343 -1.8596 -0.2864  0.4254
 4391TIP3   OH234663   5.790   5.932  16.123 -0.2068  0.1465 -0.7172
 4391TIP3    H134664   5.832   5.956  16.040 -1.3883  0.7549 -1.1600
 4391TIP3    H234665   5.733   5.858  16.100 -1.0277  0.7363 -0.5924
 4392TIP3   OH234666   0.230   2.632   3.929  0.1816  0.3827 -0.3408
 4392TIP3    H134667   0.203   2.668   3.845 -0.6151 -0.0937 -0.2901
 4392TIP3    H234668   0.150   2.623   3.979  0.6231  0.4201  0.3798
 4393TIP3   OH234669   0.258   0.212  13.161 -0.2989  0.0926  0.0839
 4393TIP3    H134670   0.319   0.214  13.087  0.8716  1.2438  1.0567
 4393TIP3    H234671   0.278   0.130  13.206 -1.4004 -0.8887 -1.1700
 4394TIP3   OH234672   2.752   1.729  15.053  0.2094  0.1987 -0.0976
 4394TIP3    H134673   2.690   1.726  14.980  0.1501 -0.1577 -0.0344
 4394TIP3    H234674   2.716   1.796  15.112  0.4326  0.7182 -0.5494
 4395TIP3   OH234675   1.664   0.746  12.182 -0.1540 -0.7594 -0.4102
 4395TIP3    H134676   1.700   0.674  12.234  0.1388 -0.5860 -0.3770
 4395TIP3    H234677   1.569   0.731  12.184 -0.2251 -0.1650  1.0410
 4396TIP3   OH234678   4.871   0.240  14.103  0.4227  0.0894  0.1709
 4396TIP3    H134679   4.826   0.233  14.187 -1.5286  0.0526 -0.8519
 4396TIP3    H234680   4.866   0.152  14.065  0.6933  0.2689 -0.2870
 4397TIP3   OH234681   0.402   5.292   0.596  0.1170 -0.3356  0.0056
 4397TIP3    H134682   0.371   5.381   0.576  1.2475  0.0447 -0.1124
 4397TIP3    H234683   0.379   5.279   0.688 -1.4102 -0.5020 -0.3943
 4398TIP3   OH234684   6.142   5.391   1.703 -0.6567  0.7638 -0.4031
 4398TIP3    H134685   6.145   5.361   1.612 -1.8256  0.6192 -0.3987
 4398TIP3    H234686   6.175   5.317   1.754 -1.1522  0.4011 -0.6050
 4399TIP3   OH234687   3.345   0.076   0.673  0.0228 -0.0953 -0.2842
 4399TIP3    H134688   3.322  -0.016   0.689  0.0703 -0.3449 -1.6061
 4399TIP3    H234689   3.373   0.078   0.582  0.1067  1.2289 -0.2354
 4400TIP3   OH234690   5.302   3.725   6.704  0.1832 -0.3897  0.1693
 4400TIP3    H134691   5.361   3.651   6.692 -1.8882 -1.7781 -1.8384
 4400TIP3    H234692   5.252   3.703   6.783 -0.7705 -1.4041 -0.7003
 4401TIP3   OH234693   5.055   1.175   4.698 -0.4520 -0.2775  0.0574
 4401TIP3    H134694   5.049   1.099   4.756  1.8237 -1.4256 -1.1495
 4401TIP3    H234695   4.967   1.185   4.662 -0.0663 -4.5434 -2.4373
 4402TIP3   OH234696   0.210   6.167  13.715  0.2319  0.4482  0.7153
 4402TIP3    H134697   0.115   6.163  13.707  0.3202  0.5908 -0.4241
 4402TIP3    H234698   0.227   6.246  13.767 -0.1578  1.9628 -1.3972
 4403TIP3   OH234699   5.003   3.414   4.481 -0.6943 -0.4119  0.0133
 4403TIP3    H134700   5.024   3.349   4.414  0.3277  0.9981 -1.0867
 4403TIP3    H234701   4.917   3.389   4.514 -1.9660 -0.2182 -3.0177
 4404TIP3   OH234702   6.094   2.775   3.465  0.7257  0.6936  0.1002
 4404TIP3    H134703   6.021   2.773   3.527  1.2815  0.2876  0.7482
 4404TIP3    H234704   6.131   2.687   3.468  1.0089  0.7838 -0.5187
 4405TIP3   OH234705   3.101   3.347   3.025  0.2946 -0.6304 -0.6549
 4405TIP3    H134706   3.049   3.273   3.055  0.4947 -0.9715 -1.1383
 4405TIP3    H234707   3.192   3.318   3.036  0.3726 -0.5009 -0.9502
 4406TIP3   OH234708   3.940   5.456  14.556 -0.3437 -0.3837 -0.6883
 4406TIP3    H134709   3.898   5.535  14.590 -0.8344 -1.6573  1.7475
 4406TIP3    H234710   3.869   5.406  14.517  0.2001  1.0238 -3.6882
 4407TIP3   OH234711   1.702   2.436   4.395  0.4736  0.0609  0.8901
 4407TIP3    H134712   1.735   2.426   4.484  1.7680 -2.2290  0.2027
 4407TIP3    H234713   1.622   2.384   4.393 -0.2900  1.2096  1.0633
 4408TIP3   OH234714   4.034   1.469   1.983  0.2861  0.4579 -0.2468
 4408TIP3    H134715   4.110   1.477   2.040  0.3194  0.8579 -0.3455
 4408TIP3    H234716   4.032   1.377   1.959  0.2866  0.2868  0.3831
 4409TIP3   OH234717   1.368   3.307   0.559  0.7073  0.0378  0.0804
 4409TIP3    H134718   1.399   3.217   0.574  0.5778 -0.3625 -1.8673
 4409TIP3    H234719   1.309   3.299   0.484  1.2733  1.8698 -0.5783
 4410TIP3   OH234720   3.873   5.104  12.600 -0.2181 -0.3643 -0.6943
 4410TIP3    H134721   3.954   5.094  12.550  0.1533 -0.0728 -0.1477
 4410TIP3    H234722   3.835   5.016  12.602 -0.0172 -0.4621 -1.1207
 4411TIP3   OH234723   1.629   5.456  16.370 -0.6319 -0.2618 -0.0712
 4411TIP3    H134724   1.660   5.445  16.460  0.5917 -1.0101 -0.5860
 4411TIP3    H234725   1.582   5.375  16.351 -1.8405  0.3457  0.2627
 4412TIP3   OH234726   2.462   2.925   0.342  0.0917  0.2968 -0.0225
 4412TIP3    H134727   2.552   2.948   0.364  0.8356  0.2897 -2.9080
 4412TIP3    H234728   2.426   2.888   0.423  2.3360  1.2438  1.4467
 4413TIP3   OH234729   1.925   3.934  14.125  0.1107 -0.1659  0.1148
 4413TIP3    H134730   1.970   4.018  14.118 -0.1647 -0.0509 -0.3098
 4413TIP3    H234731   1.832   3.957  14.127 -0.0315 -0.5453 -1.5203
 4414TIP3   OH234732   5.537   6.373  17.264  0.2110 -0.2011  0.4532
 4414TIP3    H134733   5.629   6.357  17.244  0.5402  2.5403 -0.4601
 4414TIP3    H234734   5.490   6.302  17.220  1.8993 -2.1203  1.6494
 4415TIP3   OH234735   6.241   3.882  14.576 -0.1633  0.0364 -0.1575
 4415TIP3    H134736   6.308   3.868  14.643 -0.6373  1.3097  0.6035
 4415TIP3    H234737   6.185   3.804  14.581  0.7826 -0.6471 -0.2364
 4416TIP3   OH234738   5.627   2.488  17.139  0.0441  0.3426  0.2804
 4416TIP3    H134739   5.603   2.505  17.230 -1.3607 -1.0920  0.1895
 4416TIP3    H234740   5.676   2.406  17.141  1.4312  1.1433 -0.0664
 4417TIP3   OH234741   0.760   5.429  16.064 -0.4596 -0.4777 -0.1406
 4417TIP3    H134742   0.783   5.435  15.971 -1.2966 -0.3315 -0.3444
 4417TIP3    H234743   0.772   5.517  16.097 -0.7040 -0.4080 -0.2378
 4418TIP3   OH234744   1.468   0.405   0.773  0.0909 -0.3074  0.0771
 4418TIP3    H134745   1.486   0.496   0.796  2.1231  0.1157 -2.8530
 4418TIP3    H234746   1.537   0.355   0.816  0.4225 -0.1740 -0.2954
 4419TIP3   OH234747   5.649   4.867  12.698  1.1242 -0.4025  0.4424
 4419TIP3    H134748   5.603   4.941  12.738 -0.5110 -1.2665  0.1913
 4419TIP3    H234749   5.733   4.904  12.670  0.2504  1.4215  0.1107
 4420TIP3   OH234750   6.173   3.771   2.130  0.6074  0.3091 -0.3107
 4420TIP3    H134751   6.081   3.744   2.123  0.8676 -0.3654 -1.1950
 4420TIP3    H234752   6.220   3.691   2.153  1.0625  0.5204 -0.4968
 4421TIP3   OH234753   2.898   5.138  11.181  0.5248  0.1584 -0.0087
 4421TIP3    H134754   2.823   5.142  11.122 -0.1821  0.6453  0.8991
 4421TIP3    H234755   2.974   5.129  11.124 -0.1410  0.6438 -0.9795
 4422TIP3   OH234756   5.375   4.309   5.041  0.0473 -0.6904 -0.0720
 4422TIP3    H134757   5.453   4.256   5.030  0.7162  0.4307 -0.8301
 4422TIP3    H234758   5.400   4.396   5.012 -0.6740  0.3475  2.2248
 4423TIP3   OH234759   5.430   5.002   0.591  0.0992  0.1403  0.2186
 4423TIP3    H134760   5.408   5.086   0.631  0.0660  1.1397 -1.8263
 4423TIP3    H234761   5.346   4.966   0.563  0.2149 -0.0715  0.1403
 4424TIP3   OH234762   4.461   5.703  17.157  0.0964  0.3818  0.1556
 4424TIP3    H134763   4.505   5.708  17.072 -0.5563  2.2332 -0.1017
 4424TIP3    H234764   4.398   5.775  17.155  0.1815  0.5331  2.2899
 4425TIP3   OH234765   3.027   0.741  16.744 -0.4005  0.5736  0.1327
 4425TIP3    H134766   3.026   0.678  16.817 -0.5436 -1.0533 -1.2300
 4425TIP3    H234767   2.934   0.760  16.728 -0.5082 -0.8776 -1.1058
 4426TIP3   OH234768   4.882   2.449   6.997 -0.0614  0.6649 -0.5036
 4426TIP3    H134769   4.911   2.436   6.907  0.3338 -0.0708 -0.2696
 4426TIP3    H234770   4.801   2.501   6.988  1.0850  2.3870 -1.1554
 4427TIP3   OH234771   6.767   1.045  15.449 -0.7890  0.1339  0.2179
 4427TIP3    H134772   6.730   1.045  15.538  1.4134  1.2656  1.1801
 4427TIP3    H234773   6.768   0.953  15.423 -0.8026 -0.2832  1.6510
 4428TIP3   OH234774   2.060   2.675   0.742  0.5572  0.4148  0.3622
 4428TIP3    H134775   2.084   2.624   0.664  0.4688  0.5826  0.2273
 4428TIP3    H234776   1.992   2.623   0.784  0.3032  0.5387  0.0997
 4429TIP3   OH234777   2.620   3.891   2.276 -0.1922  0.1845  0.0327
 4429TIP3    H134778   2.693   3.953   2.277  0.2428 -0.3030 -0.5377
 4429TIP3    H234779   2.647   3.824   2.213 -0.5343 -0.7242  0.8382
 4430TIP3   OH234780   4.483   6.154  16.746 -0.2143 -0.2857 -0.1744
 4430TIP3    H134781   4.560   6.099  16.762  0.1138  0.2532  0.1242
 4430TIP3    H234782   4.520   6.236  16.712 -0.7642 -0.6464 -1.6645
 4431TIP3   OH234783   4.412   4.018  17.100  0.1674 -0.2007  0.3468
 4431TIP3    H134784   4.481   3.955  17.118 -0.6737 -1.0604  0.5991
 4431TIP3    H234785   4.427   4.090  17.161  1.1992 -0.0924 -0.0281
 4432TIP3   OH234786   2.533   2.419  14.507 -0.0705  0.0167 -0.0909
 4432TIP3    H134787   2.588   2.374  14.444  0.3312  0.8854 -0.3700
 4432TIP3    H234788   2.591   2.436  14.581  0.1761  1.3729 -0.5870
 4433TIP3   OH234789   1.810   1.365   0.293 -0.4374 -0.8375 -0.0385
 4433TIP3    H134790   1.736   1.317   0.254  0.2711 -1.1256 -1.0305
 4433TIP3    H234791   1.800   1.351   0.387 -2.3256  0.0961 -0.0620
 4434TIP3   OH234792   5.126   1.362  14.379  0.2710  0.0717 -0.1370
 4434TIP3    H134793   5.095   1.272  14.390  1.4633 -0.2398  0.6782
 4434TIP3    H234794   5.216   1.361  14.409  0.6403  1.3060 -1.1485
 4435TIP3   OH234795   2.406   6.559   3.814  0.6658  0.1981  0.2273
 4435TIP3    H134796   2.360   6.552   3.898  0.4256 -0.0736  0.0765
 4435TIP3    H234797   2.453   6.642   3.819  0.6178  0.2034  0.6139
 4436TIP3   OH234798   1.360   2.266  16.553 -0.2467  0.7120  0.4665
 4436TIP3    H134799   1.383   2.232  16.639  0.1245  0.2311  0.1746
 4436TIP3    H234800   1.301   2.200  16.516 -1.2970  1.4477  0.8033
 4437TIP3   OH234801   5.862   2.366   0.537  0.2864 -0.4371 -0.2024
 4437TIP3    H134802   5.822   2.336   0.455 -0.3716  1.1289 -0.4857
 4437TIP3    H234803   5.939   2.311   0.548  0.3268 -0.7344 -1.8309
 4438TIP3   OH234804   4.084   4.109   6.054  0.3636  0.4130  0.1061
 4438TIP3    H134805   4.061   4.140   6.142  1.9360 -1.3680  1.1795
 4438TIP3    H234806   4.085   4.189   6.001  0.9332  1.7570  2.0414
 4439TIP3   OH234807   2.705   1.802  16.156  0.3383  0.5058  0.2103
 4439TIP3    H134808   2.674   1.713  16.174  1.3185  0.2744  0.7808
 4439TIP3    H234809   2.626   1.850  16.130 -0.1513 -0.6037 -0.3971
 4440TIP3   OH234810   5.847   3.809   1.104  0.3580  0.0133  0.0247
 4440TIP3    H134811   5.903   3.878   1.068  0.5348  0.2479  0.7435
 4440TIP3    H234812   5.857   3.817   1.199  0.7706 -1.3224  0.1046
 4441TIP3   OH234813   5.470   0.508   3.082  0.3789  0.1144  0.0635
 4441TIP3    H134814   5.427   0.549   3.158 -0.7185  1.0118 -1.0115
 4441TIP3    H234815   5.461   0.573   3.012  0.4363 -1.1392 -1.1196
 4442TIP3   OH234816   2.908   6.352   0.436 -0.2875 -0.2426 -0.0445
 4442TIP3    H134817   2.915   6.444   0.409 -1.0673  0.0160  0.6040
 4442TIP3    H234818   2.994   6.330   0.470 -0.0438  0.1908 -0.3710
 4443TIP3   OH234819   2.266   6.054   6.149  0.3011  0.3617 -0.3940
 4443TIP3    H134820   2.174   6.069   6.168  0.4017  0.7953 -0.2492
 4443TIP3    H234821   2.284   6.105   6.071  0.4914  0.5127 -0.2537
 4444TIP3   OH234822   1.917   0.177   0.430 -0.1500 -0.0204  0.1401
 4444TIP3    H134823   1.941   0.269   0.441 -0.4959  0.2450 -1.2015
 4444TIP3    H234824   1.898   0.146   0.518 -0.5236  1.3310  0.5442
 4445TIP3   OH234825   1.773   6.713  12.356 -0.1887  0.4295  0.2080
 4445TIP3    H134826   1.865   6.726  12.334 -0.0534 -0.2589  0.3566
 4445TIP3    H234827   1.775   6.665  12.439 -0.6440 -2.3846 -1.3693
 4446TIP3   OH234828   1.111   6.425   4.237  0.2394  0.1326 -0.8414
 4446TIP3    H134829   1.067   6.419   4.153 -0.4349  0.0049 -0.4784
 4446TIP3    H234830   1.093   6.514   4.268 -0.8118 -0.3147 -0.1238
 4447TIP3   OH234831   6.522   6.679  16.695 -0.3336  0.6218 -0.7005
 4447TIP3    H134832   6.583   6.627  16.747 -1.0382  0.5783  0.0866
 4447TIP3    H234833   6.571   6.757  16.671  0.5229 -0.0963 -1.3411
 4448TIP3   OH234834   5.491   1.791   6.795 -0.5094 -0.0223  0.7165
 4448TIP3    H134835   5.444   1.715   6.759 -2.1074  0.2787  2.0857
 4448TIP3    H234836   5.449   1.866   6.753  0.6927  0.1364 -0.2112
 4449TIP3   OH234837   6.510   4.700  10.840 -0.0864  0.1755  0.0332
 4449TIP3    H134838   6.543   4.725  10.754  0.4853  1.5782  0.6506
 4449TIP3    H234839   6.424   4.741  10.846 -0.1951 -0.0538  0.0771
 4450TIP3   OH234840   2.387   1.975   2.962  0.2552 -0.0838 -0.0078
 4450TIP3    H134841   2.440   1.970   3.041  2.0399  2.2666 -1.0198
 4450TIP3    H234842   2.427   1.912   2.901  1.7677  1.5223 -0.6895
 4451TIP3   OH234843   4.287   2.411   0.502 -0.1576 -0.2519 -0.5038
 4451TIP3    H134844   4.203   2.366   0.503 -0.2591 -0.1420 -1.9416
 4451TIP3    H234845   4.301   2.439   0.592 -0.1177 -3.0972  0.4378
 4452TIP3   OH234846   5.750   2.095  10.548  0.4018 -0.1228  0.3362
 4452TIP3    H134847   5.766   2.162  10.615  1.0800  1.0798 -0.9826
 4452TIP3    H234848   5.722   2.145  10.471  0.3343 -1.4107 -0.4903
 4453TIP3   OH234849   5.710   3.543   3.955 -0.0084  0.4910 -0.5411
 4453TIP3    H134850   5.777   3.510   3.896 -1.1310  1.1845 -2.2302
 4453TIP3    H234851   5.738   3.632   3.976 -0.2143  0.6493 -0.9460
 4454TIP3   OH234852   1.021   6.765   2.598  0.1632 -0.3416  0.2009
 4454TIP3    H134853   1.004   6.784   2.690 -1.9519 -0.2081 -0.1933
 4454TIP3    H234854   0.988   6.677   2.585  0.4717 -0.3687 -0.4393
 4455TIP3   OH234855   1.707   6.498  13.755  0.0025  0.1684  0.2991
 4455TIP3    H134856   1.773   6.566  13.744  1.7543 -1.4133  0.5980
 4455TIP3    H234857   1.627   6.535  13.720  1.4158  1.6023 -1.4861
 4456TIP3   OH234858   0.918   2.561  14.013 -0.1447 -0.0674  0.0649
 4456TIP3    H134859   0.948   2.644  13.976 -2.1410  1.0433  0.8757
 4456TIP3    H234860   0.848   2.533  13.955 -1.7853  0.5601  1.6845
 4457TIP3   OH234861   3.816   4.287   2.082  0.3263  0.1677 -0.2162
 4457TIP3    H134862   3.816   4.193   2.101 -0.2587  0.1601 -0.2447
 4457TIP3    H234863   3.724   4.311   2.082  0.3598  0.3631 -2.1246
 4458TIP3   OH234864   2.795   3.428  11.125  0.3647  0.6852  0.5146
 4458TIP3    H134865   2.886   3.402  11.137  1.1541  2.6798 -0.9793
 4458TIP3    H234866   2.777   3.413  11.032 -1.2974 -1.0899  1.0932
 4459TIP3   OH234867   4.333   4.877  16.935 -0.8810 -0.2158 -0.6610
 4459TIP3    H134868   4.270   4.949  16.934 -1.6319 -0.8695 -0.7737
 4459TIP3    H234869   4.324   4.836  16.848 -0.6128 -0.5694 -0.5246
 4460TIP3   OH234870   0.993   6.190  14.069  0.3273 -0.2386  0.0512
 4460TIP3    H134871   1.027   6.106  14.098 -3.1411 -1.6480  0.3001
 4460TIP3    H234872   0.947   6.171  13.988  0.7566  1.7098 -0.6773
 4461TIP3   OH234873   1.166   2.663  15.769  0.0358 -0.3012  0.0439
 4461TIP3    H134874   1.133   2.746  15.734  0.2950 -0.7679 -1.3180
 4461TIP3    H234875   1.180   2.681  15.863  1.6180  1.6933 -0.5343
 4462TIP3   OH234876   5.526   2.939   0.378  0.0955  0.2892  0.7247
 4462TIP3    H134877   5.494   2.990   0.452  0.0760 -0.1851  1.0426
 4462TIP3    H234878   5.452   2.883   0.354  0.9563 -1.4437  2.0222
 4463TIP3   OH234879   2.312   2.826  12.309  0.0371  0.4175 -0.1171
 4463TIP3    H134880   2.269   2.745  12.338  0.1473  1.1498  2.1938
 4463TIP3    H234881   2.372   2.798  12.240 -2.6338 -0.9273 -1.9893
 4464TIP3   OH234882   6.657   4.628   0.218  0.0496 -0.2995  0.0539
 4464TIP3    H134883   6.745   4.602   0.194 -0.8511 -1.6156 -1.9106
 4464TIP3    H234884   6.600   4.581   0.157 -2.0893 -0.5977  2.1983
 4465TIP3   OH234885   3.101   2.545  15.813  0.1722  0.1584 -0.0422
 4465TIP3    H134886   3.113   2.571  15.721 -0.2517 -2.2215 -0.7995
 4465TIP3    H234887   3.009   2.519  15.818  0.0473  0.7888  1.2134
 4466TIP3   OH234888   1.094   2.235  14.672  0.3127  0.5973 -0.3075
 4466TIP3    H134889   1.083   2.141  14.661  2.1399  0.4050 -0.6834
 4466TIP3    H234890   1.156   2.244  14.744 -2.9228  1.6284  2.4763
 4467TIP3   OH234891   4.468   3.789   0.633 -0.5893 -0.2616  0.0624
 4467TIP3    H134892   4.491   3.778   0.541 -0.1908  0.4385  0.0739
 4467TIP3    H234893   4.490   3.880   0.653 -1.9241 -0.0136  0.4805
 4468TIP3   OH234894   4.004   4.821  11.469 -0.1635 -0.0514 -0.9941
 4468TIP3    H134895   4.093   4.834  11.435  0.2371 -0.3543 -0.0569
 4468TIP3    H234896   3.981   4.905  11.508  0.8667 -0.8715  1.4313
 4469TIP3   OH234897   6.183   2.808   2.487 -0.0473 -0.3825  0.1012
 4469TIP3    H134898   6.269   2.836   2.454 -0.3849  1.7401  0.9224
 4469TIP3    H234899   6.197   2.719   2.518  2.3576  0.6238  2.0429
 4470TIP3   OH234900   6.423   2.884  14.753 -0.7361  0.1074 -0.0798
 4470TIP3    H134901   6.343   2.843  14.722  0.1016 -1.0927 -0.7011
 4470TIP3    H234902   6.461   2.820  14.814 -0.7610  1.1050  1.0179
 4471TIP3   OH234903   4.364   3.325   0.794  0.0181 -0.5265 -0.5270
 4471TIP3    H134904   4.415   3.274   0.731  0.1485  0.3793 -1.1503
 4471TIP3    H234905   4.302   3.262   0.831 -1.4194 -0.5833 -3.0070
 4472TIP3   OH234906   2.857   3.297   1.197  0.2851  0.3823  0.5309
 4472TIP3    H134907   2.775   3.317   1.152 -1.0656 -0.7648  2.4010
 4472TIP3    H234908   2.897   3.228   1.145  0.7949  1.9014 -1.1723
 4473TIP3   OH234909   1.810   5.804   0.693  0.4565  0.8052 -0.0181
 4473TIP3    H134910   1.884   5.805   0.753  0.4762  0.3088 -0.0346
 4473TIP3    H234911   1.784   5.712   0.688  0.0559  0.9305 -0.2783
 4474TIP3   OH234912   4.203   5.410  11.568  0.1935  0.0478 -0.4987
 4474TIP3    H134913   4.182   5.347  11.499  0.1960 -0.0202 -0.4377
 4474TIP3    H234914   4.204   5.495  11.524  2.1328 -0.1959 -0.9710
 4475TIP3   OH234915   1.861   3.251  10.630 -0.0800 -0.1788  0.4293
 4475TIP3    H134916   1.925   3.284  10.567 -0.0831  1.3169  1.1900
 4475TIP3    H234917   1.869   3.156  10.624  0.9176 -0.0357 -0.8040
 4476TIP3   OH234918   0.638   1.121  14.217  0.3860  0.4178 -0.0385
 4476TIP3    H134919   0.729   1.146  14.202  0.3484  0.1814 -0.7100
 4476TIP3    H234920   0.588   1.176  14.156  0.1797 -0.2223 -0.4525
 4477TIP3   OH234921   5.252   1.712   3.566 -0.3765  0.3852 -0.0845
 4477TIP3    H134922   5.344   1.729   3.543 -0.4950  1.1128 -0.0488
 4477TIP3    H234923   5.206   1.791   3.536 -1.2973 -0.8319 -1.9454
 4478TIP3   OH234924   5.847   0.143  12.988 -0.6797 -0.2056 -0.4691
 4478TIP3    H134925   5.925   0.089  12.973  0.2422  0.7082  0.8876
 4478TIP3    H234926   5.847   0.206  12.916 -0.6468 -0.7593 -0.9530
 4479TIP3   OH234927   1.211   2.544   3.403 -0.1530 -0.5473 -0.1375
 4479TIP3    H134928   1.279   2.562   3.468 -0.2618 -0.0972 -0.1472
 4479TIP3    H234929   1.164   2.627   3.394  0.8189 -0.1673 -1.9169
 4480TIP3   OH234930   5.405   1.090   0.883  0.2602  0.0212  0.3092
 4480TIP3    H134931   5.347   1.075   0.808  0.3169 -0.5153  0.3765
 4480TIP3    H234932   5.345   1.108   0.955  0.1663 -1.0510  0.4947
 4481TIP3   OH234933   3.554   5.308   4.072  0.0555  0.5703  0.5296
 4481TIP3    H134934   3.521   5.224   4.040 -1.5432  0.8394  1.4619
 4481TIP3    H234935   3.489   5.372   4.044  0.2626  1.2286  1.5522
 4482TIP3   OH234936   6.773   4.420  12.103  0.2775  0.8517 -0.0458
 4482TIP3    H134937   6.697   4.374  12.138  1.2892 -0.0114  1.0207
 4482TIP3    H234938   6.796   4.485  12.170 -2.7693  4.8689 -2.6391
 4483TIP3   OH234939   0.814   3.750   5.716  0.3093  0.3436  0.6576
 4483TIP3    H134940   0.810   3.845   5.706  1.2652  0.4505  1.2435
 4483TIP3    H234941   0.731   3.727   5.759  0.0266  0.8893  0.4135
 4484TIP3   OH234942   1.221   3.394  16.114 -0.3497  0.1009  0.2323
 4484TIP3    H134943   1.272   3.447  16.177  0.2627 -1.6977  1.2993
 4484TIP3    H234944   1.163   3.457  16.072  0.8141  1.7466  0.9906
 4485TIP3   OH234945   5.534   3.438   5.130  0.0153 -0.4206 -0.4085
 4485TIP3    H134946   5.561   3.425   5.221 -1.0662  0.0087 -0.0213
 4485TIP3    H234947   5.553   3.355   5.087 -0.7086 -1.0729  0.5185
 4486TIP3   OH234948   6.019   6.109   5.189 -0.2606  0.3749  0.2496
 4486TIP3    H134949   6.095   6.124   5.133 -0.1574  1.5097  0.6813
 4486TIP3    H234950   6.023   6.016   5.211 -1.0549 -0.4060 -2.7207
 4487TIP3   OH234951   4.657   4.474  16.896  0.0727  0.6985  0.1864
 4487TIP3    H134952   4.571   4.507  16.869 -0.7084 -1.4995 -0.1595
 4487TIP3    H234953   4.643   4.380  16.909  2.3830  0.3465  0.3290
 4488TIP3   OH234954   3.952   3.469  12.066  0.1608  0.0935 -0.0166
 4488TIP3    H134955   3.871   3.447  12.112 -0.7867 -0.2111 -1.7701
 4488TIP3    H234956   3.948   3.563  12.053  1.1810  0.4220  1.8685
 4489TIP3   OH234957   0.046   4.933  16.125 -0.2193  0.3801 -0.3174
 4489TIP3    H134958  -0.005   4.902  16.200 -0.7210  1.2954 -0.2710
 4489TIP3    H234959   0.136   4.906  16.143 -0.2681  0.9786  0.8288
 4490TIP3   OH234960   5.092   4.396   6.089  0.0174 -0.3963 -0.0098
 4490TIP3    H134961   5.182   4.416   6.113 -0.2462  0.7891  0.0198
 4490TIP3    H234962   5.044   4.477   6.105 -0.9994 -0.9190 -0.3257
 4491TIP3   OH234963   3.730   2.016  11.914  0.0174 -0.9138  0.2837
 4491TIP3    H134964   3.800   1.993  11.853  0.1738  0.5456 -0.0877
 4491TIP3    H234965   3.666   2.063  11.861  0.0692  0.2028  1.2012
 4492TIP3   OH234966   4.964   3.014  15.836  0.6317  0.5039 -0.2740
 4492TIP3    H134967   4.987   3.107  15.828  0.8629  0.4027 -0.8079
 4492TIP3    H234968   4.885   3.004  15.782  1.3939  0.1088 -1.3359
 4493TIP3   OH234969   1.769   1.164  11.526 -0.3163  0.0069 -0.2982
 4493TIP3    H134970   1.771   1.253  11.559  0.8037 -0.2203  0.2497
 4493TIP3    H234971   1.747   1.110  11.603  1.8795 -0.4768  0.0156
 4494TIP3   OH234972   1.915   6.655  14.596 -0.1236  0.2625  0.1292
 4494TIP3    H134973   1.967   6.650  14.676  0.7488 -0.3364 -0.4659
 4494TIP3    H234974   1.878   6.567  14.585 -1.4875  0.7605  0.6960
 4495TIP3   OH234975   3.301   1.207  13.533  0.2690 -0.1091 -0.0740
 4495TIP3    H134976   3.342   1.293  13.521  2.1574 -0.8834  0.7115
 4495TIP3    H234977   3.268   1.209  13.623  0.0011 -0.0931 -0.1713
 4496TIP3   OH234978   6.265   3.093  15.890  0.4763 -0.5578  0.5292
 4496TIP3    H134979   6.318   3.131  15.960  0.0847  1.9461 -0.5103
 4496TIP3    H234980   6.182   3.070  15.932 -0.0698  1.7182  0.7157
 4497TIP3   OH234981   0.580   5.016  10.050  0.7052  0.3626  0.6446
 4497TIP3    H134982   0.597   4.995  10.142 -0.5485 -0.0918  0.7859
 4497TIP3    H234983   0.596   5.110  10.044 -0.0651  0.5637  1.5398
 4498TIP3   OH234984   5.626   6.748   2.696  0.6766 -0.4289  0.0075
 4498TIP3    H134985   5.670   6.739   2.611  1.7423  0.9189  0.3924
 4498TIP3    H234986   5.590   6.837   2.695 -0.7603 -0.9905  0.3105
 4499TIP3   OH234987   2.625   2.347   3.736  0.2853 -0.3004 -0.1266
 4499TIP3    H134988   2.707   2.376   3.776  0.3275 -1.0727  0.3642
 4499TIP3    H234989   2.630   2.378   3.646  1.4691 -1.0016 -0.3178
 4500TIP3   OH234990   5.620   0.981   0.742 -0.0737 -0.5385  0.3238
 4500TIP3    H134991   5.570   1.045   0.792  2.1049 -0.6298  2.6943
 4500TIP3    H234992   5.695   1.031   0.708 -1.3539 -0.5417 -2.6774
 4501TIP3   OH234993   2.151   4.402   2.651  0.5994 -0.3163  0.8896
 4501TIP3    H134994   2.103   4.346   2.590  1.4224  1.6113 -1.6383
 4501TIP3    H234995   2.243   4.393   2.625  0.5999  3.4172 -0.7494
 4502TIP3   OH234996   0.658   2.192  15.501  0.0695  0.3141  0.2906
 4502TIP3    H134997   0.600   2.167  15.429 -0.9427 -1.6463  1.7510
 4502TIP3    H234998   0.616   2.269  15.540 -0.8574 -0.3138  0.5300
 4503TIP3   OH234999   1.933   1.779  13.492  0.0198 -0.1812  0.1081
 4503TIP3    H135000   1.854   1.727  13.508 -0.8684  0.2648 -2.6210
 4503TIP3    H235001   1.906   1.845  13.428  2.5071  0.2266 -0.5687
 4504TIP3   OH235002   4.972   5.914   1.834 -0.1438  0.2329 -0.1447
 4504TIP3    H135003   4.932   5.879   1.755  2.3327  0.0896 -1.3779
 4504TIP3    H235004   5.029   5.844   1.865  0.1755  0.9143  0.8400
 4505TIP3   OH235005   5.095   1.403  15.339 -0.3932  0.5631  0.1668
 4505TIP3    H135006   5.054   1.407  15.253  0.6102 -0.2819 -0.3682
 4505TIP3    H235007   5.070   1.317  15.373  2.4960 -0.7882 -0.9915
 4506TIP3   OH235008   6.383   4.611  14.642  0.3501  0.7413  0.1527
 4506TIP3    H135009   6.360   4.551  14.572  0.5845 -0.2265  0.8957
 4506TIP3    H235010   6.359   4.698  14.608 -0.1717  0.2170 -0.8413
 4507TIP3   OH235011   2.404   1.863  16.473  0.0205 -0.2091  0.4762
 4507TIP3    H135012   2.431   1.782  16.517  2.5749  1.0133  1.2345
 4507TIP3    H235013   2.321   1.886  16.515  0.2078 -1.4111  1.5527
 4508TIP3   OH235014   0.056   1.660   0.072 -0.0721  0.1480  0.2341
 4508TIP3    H135015   0.116   1.703   0.133 -0.0052  0.1556  0.1631
 4508TIP3    H235016   0.109   1.593   0.029 -0.6494 -1.3408  1.7391
 4509TIP3   OH235017   6.507   5.158   4.295  0.0655  0.2299 -0.6226
 4509TIP3    H135018   6.512   5.081   4.239  0.3726  0.4222 -0.8546
 4509TIP3    H235019   6.448   5.132   4.366 -1.2802  0.3771 -1.6562
 4510TIP3   OH235020   0.931   3.652   4.183  0.4561 -0.1260 -0.6515
 4510TIP3    H135021   0.848   3.699   4.179 -0.9042 -2.5052 -0.7724
 4510TIP3    H235022   0.958   3.645   4.091 -0.9745 -2.4077 -0.9207
 4511TIP3   OH235023   1.867   2.079   1.004 -0.8897  0.5912 -0.3208
 4511TIP3    H135024   1.896   2.107   1.091 -3.0417 -0.9321  0.9546
 4511TIP3    H235025   1.775   2.107   1.000 -1.3884 -1.1361 -1.2982
 4512TIP3   OH235026   3.305   2.341   0.508  0.6457 -0.6249  0.0493
 4512TIP3    H135027   3.401   2.348   0.515  0.6338 -0.6300  0.2428
 4512TIP3    H235028   3.276   2.330   0.599  0.4200 -0.1184  0.0406
 4513TIP3   OH235029   3.286   0.874  15.881  0.1631  0.1141  0.0998
 4513TIP3    H135030   3.213   0.866  15.942  0.0580 -0.6595 -0.1192
 4513TIP3    H235031   3.350   0.809  15.912  0.2930  0.0256 -0.3555
 4514TIP3   OH235032   3.691   3.196  16.189 -0.3973 -0.1750  0.1891
 4514TIP3    H135033   3.729   3.193  16.101 -0.7202 -1.8476  0.0757
 4514TIP3    H235034   3.609   3.146  16.180 -0.7071  0.1293  1.3132
 4515TIP3   OH235035   4.884   4.105   2.117 -0.2973 -0.0325  0.1077
 4515TIP3    H135036   4.797   4.068   2.103  0.0791 -0.3456 -1.4818
 4515TIP3    H235037   4.870   4.200   2.118 -0.8326 -0.1050  1.2386
 4516TIP3   OH235038   0.753   3.774  12.987 -0.0362 -0.4127 -0.2527
 4516TIP3    H135039   0.796   3.755  13.070 -0.1754  2.3064  0.5040
 4516TIP3    H235040   0.817   3.825  12.938  0.1056 -2.1537 -1.9042
 4517TIP3   OH235041   6.183   1.157  13.452  0.3984  0.3206  0.9611
 4517TIP3    H135042   6.211   1.068  13.471  0.9721  0.2882  0.0091
 4517TIP3    H235043   6.191   1.165  13.356 -1.7729  0.6745  0.7813
 4518TIP3   OH235044   0.069   4.359   5.027  0.2256 -0.0513 -0.0763
 4518TIP3    H135045  -0.008   4.352   5.084 -1.3626 -0.9792 -2.2650
 4518TIP3    H235046   0.122   4.282   5.048  0.1105  0.0973  0.7747
 4519TIP3   OH235047   1.514   3.582   4.805 -0.2100  0.6902 -0.0007
 4519TIP3    H135048   1.439   3.522   4.802  1.1613 -1.1509  1.6080
 4519TIP3    H235049   1.555   3.574   4.719  1.1391 -2.2481  0.8769
 4520TIP3   OH235050   6.454   6.652   6.474 -0.4034 -0.0547 -0.1470
 4520TIP3    H135051   6.539   6.608   6.479 -1.0881 -1.2719  1.2320
 4520TIP3    H235052   6.465   6.733   6.523 -1.0361 -1.9515  3.2971
 4521TIP3   OH235053   4.302   1.204   3.069  0.0421 -0.6728 -0.4431
 4521TIP3    H135054   4.352   1.158   3.002 -0.5904 -1.4024 -0.4210
 4521TIP3    H235055   4.211   1.190   3.045 -0.2345 -2.1481  1.3488
 4522TIP3   OH235056   0.529   4.891  17.014  0.7886  0.4479 -0.1796
 4522TIP3    H135057   0.534   4.796  17.030  1.1186  0.2194 -1.5591
 4522TIP3    H235058   0.605   4.909  16.958  0.6015  1.4997 -0.1012
 4523TIP3   OH235059   0.512   5.996   5.225  0.2613 -0.1738  0.0109
 4523TIP3    H135060   0.441   6.020   5.284 -1.9292  1.2123 -3.0405
 4523TIP3    H235061   0.491   5.907   5.198  1.1554 -0.7361  1.1489
 4524TIP3   OH235062   4.967   3.468   0.152  0.3909  0.0353  0.1245
 4524TIP3    H135063   4.882   3.495   0.185 -0.3870  0.0858 -1.8527
 4524TIP3    H235064   5.009   3.549   0.123  0.9719 -0.0309  0.7740
 4525TIP3   OH235065   6.047   3.754  11.639 -0.0308  0.2741 -0.3376
 4525TIP3    H135066   6.001   3.772  11.557 -3.1332 -1.6669  0.9094
 4525TIP3    H235067   5.999   3.805  11.705 -0.7104 -2.0979  1.0602
 4526TIP3   OH235068   3.950   3.337  13.268  0.4479  0.9098  0.0394
 4526TIP3    H135069   4.045   3.325  13.273  0.6856  1.0855 -3.1067
 4526TIP3    H235070   3.930   3.331  13.175 -2.8996 -0.8981  0.8032
 4527TIP3   OH235071   1.027   0.843   0.886  0.1264  0.3856 -0.2164
 4527TIP3    H135072   1.103   0.901   0.877  0.8177 -0.5852 -0.6630
 4527TIP3    H235073   1.025   0.821   0.979  0.7920 -0.1150 -0.3135
 4528TIP3   OH235074   3.830   4.486  11.345  0.3773  0.0321 -1.0431
 4528TIP3    H135075   3.752   4.541  11.344  0.9033  0.7967 -2.6790
 4528TIP3    H235076   3.808   4.413  11.404 -0.5861  1.6034  0.5764
 4529TIP3   OH235077   4.417   5.649  14.039 -0.9488  0.3460 -0.0915
 4529TIP3    H135078   4.505   5.680  14.015 -0.6827  0.4033  0.9099
 4529TIP3    H235079   4.358   5.696  13.980 -0.2719 -0.0699 -1.1065
 4530TIP3   OH235080   3.472   2.714   3.707 -0.4981 -0.4928 -0.6941
 4530TIP3    H135081   3.462   2.809   3.709 -0.6585 -0.5036 -0.9576
 4530TIP3    H235082   3.567   2.700   3.709 -0.5131 -0.3945  1.5581
 4531TIP3   OH235083   2.466   6.526  14.259  0.3565 -0.4766  0.1759
 4531TIP3    H135084   2.500   6.458  14.318 -0.5203 -0.9291  0.1740
 4531TIP3    H235085   2.501   6.503  14.173  1.8086  0.3042  0.5523
 4532TIP3   OH235086   5.156   1.138   5.041  0.4045 -0.3303 -0.3414
 4532TIP3    H135087   5.204   1.221   5.034  2.2593 -1.4632 -1.4919
 4532TIP3    H235088   5.183   1.101   5.125  1.0902 -0.6787 -0.7121
 4533TIP3   OH235089   5.087   6.219  14.497 -0.8100  0.4991  0.2233
 4533TIP3    H135090   5.029   6.257  14.432 -0.0182  0.5653 -0.4585
 4533TIP3    H235091   5.037   6.221  14.579 -2.3509 -0.8719 -0.6483
 4534TIP3   OH235092   3.992   1.761   0.408  0.2698  0.4353  0.5209
 4534TIP3    H135093   3.912   1.756   0.355 -0.6557  0.4578  1.8913
 4534TIP3    H235094   4.063   1.744   0.346 -0.8785 -0.7849 -0.4758
 4535TIP3   OH235095   0.734   6.750  16.000  0.1951 -0.0326 -0.1575
 4535TIP3    H135096   0.785   6.744  15.919  0.6649 -1.0361  0.2047
 4535TIP3    H235097   0.800   6.764  16.068 -0.1633  0.3514  0.1091
 4536TIP3   OH235098   0.485   4.858   4.063  0.1814 -0.2333  0.5251
 4536TIP3    H135099   0.555   4.907   4.105  0.4756 -3.1234  3.5907
 4536TIP3    H235100   0.513   4.849   3.972  1.1868  3.1843  0.4180
 4537TIP3   OH235101   0.557   4.564  11.628 -0.8430 -0.6021 -0.4970
 4537TIP3    H135102   0.511   4.648  11.617 -0.9014 -0.6281 -0.4509
 4537TIP3    H235103   0.645   4.581  11.597 -0.1525  0.1658  1.7426
 4538TIP3   OH235104   3.389   2.521  16.775  0.6482  0.3080  0.1387
 4538TIP3    H135105   3.438   2.596  16.808  1.6777 -1.0359  1.7994
 4538TIP3    H235106   3.364   2.472  16.854  0.1366 -1.1627 -0.9041
 4539TIP3   OH235107   6.399   2.369  16.775 -0.0347  0.1326 -0.6197
 4539TIP3    H135108   6.346   2.412  16.843  0.0942  1.0597 -1.1000
 4539TIP3    H235109   6.489   2.392  16.798  0.0839 -0.4924 -0.4617
 4540TIP3   OH235110   1.589   4.288   2.694 -0.0308 -0.4806  0.1841
 4540TIP3    H135111   1.593   4.195   2.715 -1.2066 -0.7878 -0.8123
 4540TIP3    H235112   1.521   4.323   2.752 -1.4065 -0.7950 -1.1754
 4541TIP3   OH235113   6.080   2.054   0.043  0.3491 -0.3747 -0.0559
 4541TIP3    H135114   6.000   2.051  -0.010 -0.0923  0.6622  0.5565
 4541TIP3    H235115   6.072   1.979   0.103 -1.0453  0.7922  1.2540
 4542TIP3   OH235116   1.322   5.801  13.010 -0.2987 -0.0846  0.4986
 4542TIP3    H135117   1.382   5.790  13.084  0.0428  1.6833  0.5032
 4542TIP3    H235118   1.354   5.739  12.944  2.0253  1.3730  0.2074
 4543TIP3   OH235119   0.321   0.867  16.358 -0.6873  0.2890 -0.2004
 4543TIP3    H135120   0.360   0.846  16.443  1.4362 -0.5605 -1.3531
 4543TIP3    H235121   0.277   0.786  16.332 -0.9060  0.3963 -0.1719
 4544TIP3   OH235122   1.465   1.838  16.015  0.3252  0.5050  0.5392
 4544TIP3    H135123   1.380   1.832  16.059 -0.2270  0.5623 -0.4771
 4544TIP3    H235124   1.472   1.755  15.967 -0.1357  1.3574 -1.0502
 4545TIP3   OH235125   0.439   1.978   4.278  0.0595 -0.1289 -0.1784
 4545TIP3    H135126   0.418   2.018   4.362 -0.7703  1.0139 -0.9023
 4545TIP3    H235127   0.429   1.884   4.293 -0.2120  0.0741  0.9592
 4546TIP3   OH235128   5.706   6.073   2.480 -0.3456 -0.6527 -0.0169
 4546TIP3    H135129   5.791   6.038   2.452  0.0223  0.1650  0.0847
 4546TIP3    H235130   5.723   6.117   2.562 -0.2378  2.2445 -1.5325
 4547TIP3   OH235131   6.198   2.778   4.796  0.2284 -0.1494 -0.2133
 4547TIP3    H135132   6.149   2.850   4.836  1.9359  0.4567  0.8393
 4547TIP3    H235133   6.270   2.821   4.751  2.6288 -1.3194  2.4017
 4548TIP3   OH235134   4.229   6.710  16.769  0.3638 -0.1786  0.2342
 4548TIP3    H135135   4.162   6.770  16.799 -1.0326 -0.1426 -2.7557
 4548TIP3    H235136   4.298   6.715  16.835 -1.9455  0.8412  2.6311
 4549TIP3   OH235137   1.988   0.843   3.111  0.5124 -0.3367  0.1254
 4549TIP3    H135138   2.021   0.892   3.036 -2.4392  2.3112  0.4307
 4549TIP3    H235139   2.032   0.882   3.187  1.6045 -1.3048 -0.0014
 4550TIP3   OH235140   3.878   5.413   3.648  0.1748 -0.4291  0.3661
 4550TIP3    H135141   3.790   5.426   3.612  0.7040  0.9691 -0.4578
 4550TIP3    H235142   3.879   5.467   3.728  1.4250  2.4788 -1.5258
 4551TIP3   OH235143   1.648   4.047   5.957  0.0559 -0.2861  0.8373
 4551TIP3    H135144   1.601   3.996   6.023  1.1422 -1.3381  0.8134
 4551TIP3    H235145   1.725   4.081   6.003  1.0462 -1.3819  0.0186
 4552TIP3   OH235146   5.175   1.919  17.173 -0.4232  0.8653  0.4759
 4552TIP3    H135147   5.145   2.006  17.147 -1.5097  0.5272  0.5323
 4552TIP3    H235148   5.098   1.863  17.158  0.2975 -0.0955  0.3375
 4553TIP3   OH235149   4.750   1.509   2.695 -1.1614  0.1410 -0.0667
 4553TIP3    H135150   4.828   1.564   2.704  0.4708 -2.1587  0.1840
 4553TIP3    H235151   4.730   1.510   2.601 -2.6636  3.1344  0.2280
 4554TIP3   OH235152   3.877   1.938   6.266  0.2708  0.2474  0.7021
 4554TIP3    H135153   3.826   2.019   6.263  0.3965  0.3090  0.1124
 4554TIP3    H235154   3.930   1.946   6.345  0.4385  0.8355  0.5323
 4555TIP3   OH235155   2.455   6.403  15.883  0.0452  0.5630 -0.3467
 4555TIP3    H135156   2.546   6.425  15.866  0.1804 -1.2054 -2.0661
 4555TIP3    H235157   2.445   6.313  15.852 -1.5211 -0.3899  2.6340
 4556TIP3   OH235158   6.246   1.336   0.425  0.3165 -0.2447 -0.4742
 4556TIP3    H135159   6.173   1.395   0.405 -0.0075 -0.5764 -0.2965
 4556TIP3    H235160   6.222   1.297   0.509  0.5652 -0.5630 -0.5493
 4557TIP3   OH235161   5.109   3.529   2.379  0.0127  0.2527  0.3250
 4557TIP3    H135162   5.189   3.551   2.426  2.4123  1.1007 -3.8922
 4557TIP3    H235163   5.057   3.609   2.381 -0.3086  0.0290  2.1353
 4558TIP3   OH235164   2.017   4.967   0.792 -0.5855  0.2328  0.0454
 4558TIP3    H135165   2.013   5.061   0.811  2.0743  0.5310 -0.6506
 4558TIP3    H235166   2.059   4.928   0.869 -1.8421 -0.4221  0.4079
 4559TIP3   OH235167   6.605   6.345  12.154  0.0498 -0.1459 -0.4158
 4559TIP3    H135168   6.510   6.357  12.155 -0.2937 -2.6137 -0.0904
 4559TIP3    H235169   6.629   6.338  12.246  0.7366  1.6761 -0.4426
 4560TIP3   OH235170   5.121   1.521   5.333 -0.1644 -0.0004  0.2374
 4560TIP3    H135171   5.045   1.465   5.347 -0.0963 -0.0680  0.3365
 4560TIP3    H235172   5.143   1.553   5.421  0.0697 -0.1711  0.2392
 4561TIP3   OH235173   2.255   6.108  15.854 -0.6620 -0.3206  0.6937
 4561TIP3    H135174   2.224   6.088  15.942  0.5784 -1.0419  0.9766
 4561TIP3    H235175   2.294   6.026  15.823 -0.4286  0.1353 -0.2368
 4562TIP3   OH235176   3.453   0.017  14.995 -0.2004 -0.0926 -0.1725
 4562TIP3    H135177   3.405  -0.063  14.972 -0.3626  0.0447 -0.3108
 4562TIP3    H235178   3.458   0.015  15.091  0.3251 -0.5720 -0.2103
 4563TIP3   OH235179   4.425   1.359   0.347 -0.2568  0.1166 -0.3686
 4563TIP3    H135180   4.422   1.413   0.268 -0.5827 -1.3314 -1.3782
 4563TIP3    H235181   4.343   1.379   0.392 -1.0857 -0.6458 -1.5082
 4564TIP3   OH235182   3.611   3.224   1.677 -0.4248  0.4354  0.0980
 4564TIP3    H135183   3.601   3.135   1.643  2.8752 -0.2978  0.8503
 4564TIP3    H235184   3.643   3.274   1.602  1.9632 -0.0543  0.7341
 4565TIP3   OH235185   4.226   5.022  13.097 -0.0081 -0.4366 -0.2998
 4565TIP3    H135186   4.183   4.948  13.138  0.4279 -2.0495 -2.6906
 4565TIP3    H235187   4.162   5.057  13.035  0.3570  0.1850 -0.3359
 4566TIP3   OH235188   5.204   5.695  10.885 -0.4824  0.7305  0.0400
 4566TIP3    H135189   5.285   5.647  10.871 -1.5187 -1.1403  0.1875
 4566TIP3    H235190   5.158   5.689  10.801 -0.5037  1.6820 -0.0143
 4567TIP3   OH235191   2.717   0.575  14.497 -0.0534 -0.2184 -0.0994
 4567TIP3    H135192   2.737   0.496  14.447 -1.0277 -0.4780 -0.0897
 4567TIP3    H235193   2.802   0.613  14.517  0.4998 -2.0152  1.0781
 4568TIP3   OH235194   4.937   2.822   2.123  0.2682 -0.5096 -0.4373
 4568TIP3    H135195   4.999   2.859   2.060  0.4314 -0.4029 -0.2157
 4568TIP3    H235196   4.863   2.882   2.123  0.2072 -0.5833 -0.6273
 4569TIP3   OH235197   4.142   4.670   4.816 -0.0670 -0.2075 -0.5990
 4569TIP3    H135198   4.159   4.718   4.735 -1.4095  1.0265 -0.1729
 4569TIP3    H235199   4.143   4.737   4.884 -0.7264 -0.9668  0.1667
 4570TIP3   OH235200   1.837   5.848  12.668 -0.0771  0.1072  0.3018
 4570TIP3    H135201   1.742   5.853  12.655  0.1075 -0.2523 -1.1992
 4570TIP3    H235202   1.864   5.939  12.683 -0.5170  0.3297 -0.2484
 4571TIP3   OH235203   4.370   1.096   2.801  0.3274  0.0178 -0.0183
 4571TIP3    H135204   4.281   1.064   2.785  0.3327  0.1298 -0.2847
 4571TIP3    H235205   4.372   1.181   2.756  0.3337  0.3585  0.6141
 4572TIP3   OH235206   3.277   3.388   5.914  0.8016  0.0315 -0.3460
 4572TIP3    H135207   3.192   3.344   5.914 -1.1591  3.6297  0.1700
 4572TIP3    H235208   3.321   3.356   5.993 -0.6957 -0.7270  0.1886
 4573TIP3   OH235209   0.264   2.567   0.367 -0.4384 -0.5538  0.1624
 4573TIP3    H135210   0.196   2.540   0.306  0.1436 -1.5295 -0.0502
 4573TIP3    H235211   0.277   2.492   0.424 -0.2111 -0.0289  0.8095
 4574TIP3   OH235212   1.735   0.039   4.949 -0.7449  0.3734  0.3441
 4574TIP3    H135213   1.825   0.024   4.921 -0.0810  0.4582  2.3372
 4574TIP3    H235214   1.732   0.133   4.968 -1.6370  0.6229 -1.0102
 4575TIP3   OH235215   6.703   4.340   2.800  0.0805 -0.8732 -0.0058
 4575TIP3    H135216   6.629   4.330   2.740 -0.0240  1.1847 -0.2350
 4575TIP3    H235217   6.710   4.254   2.842 -1.6613 -1.4731 -0.8574
 4576TIP3   OH235218   5.741   3.040  12.306 -0.3270  0.4424 -0.1505
 4576TIP3    H135219   5.682   3.053  12.380 -1.2499  2.8761 -1.2713
 4576TIP3    H235220   5.758   2.946  12.305 -0.2516  0.3628  3.1731
 4577TIP3   OH235221   5.114   2.401  17.290 -0.0109  0.0697 -0.1002
 4577TIP3    H135222   5.067   2.484  17.291  1.7761  1.0915  0.1904
 4577TIP3    H235223   5.156   2.398  17.204 -0.3858 -0.7093 -0.2611
 4578TIP3   OH235224   3.861   2.277   4.635  0.4347  0.5959  0.4240
 4578TIP3    H135225   3.889   2.256   4.546 -2.9258  2.1239 -1.0825
 4578TIP3    H235226   3.900   2.362   4.654  1.9806 -0.1820  0.8588
 4579TIP3   OH235227   6.158   5.135   0.866 -0.0229  0.2150 -0.2073
 4579TIP3    H135228   6.216   5.066   0.898 -0.0327  0.5617  0.5895
 4579TIP3    H235229   6.170   5.207   0.928  1.4468  1.6738 -2.1443
 4580TIP3   OH235230   1.000   0.091  13.934 -0.2856 -0.1400  0.1973
 4580TIP3    H135231   1.069   0.086  13.868  0.8466 -1.0237  1.4192
 4580TIP3    H235232   1.039   0.142  14.005 -1.0590 -0.2538  0.7109
 4581TIP3   OH235233   2.818   4.962  15.009  0.1172 -0.5095  0.6065
 4581TIP3    H135234   2.892   4.980  15.067  0.4272 -0.2844  0.1460
 4581TIP3    H235235   2.749   5.020  15.040  0.4712  0.0290  0.3798
 4582TIP3   OH235236   5.396   0.383  16.641  0.5221 -0.0899 -0.4942
 4582TIP3    H135237   5.394   0.349  16.730 -1.4341  0.3195 -0.3483
 4582TIP3    H235238   5.487   0.409  16.626  1.1220 -1.3699  0.9086
 4583TIP3   OH235239   6.088   2.767   1.009  0.0888  0.0002  0.3290
 4583TIP3    H135240   6.012   2.821   0.988  0.5904  0.3212 -0.7104
 4583TIP3    H235241   6.068   2.682   0.971 -0.2967 -0.2876  1.1614
 4584TIP3   OH235242   0.434   0.084  16.433  0.2165 -0.1614  0.3067
 4584TIP3    H135243   0.391   0.095  16.349  1.4522 -2.4390 -0.6586
 4584TIP3    H235244   0.522   0.120  16.420 -0.2411  1.3501  1.2551
 4585TIP3   OH235245   5.505   5.846  11.328  0.0542 -0.0884  0.0730
 4585TIP3    H135246   5.484   5.787  11.256  0.1282  1.5204 -1.2965
 4585TIP3    H235247   5.553   5.918  11.287  0.6605  0.5367  1.8326
 4586TIP3   OH235248   2.586   3.120  11.742 -0.5430  0.5721  0.4861
 4586TIP3    H135249   2.579   3.042  11.689  0.8634  1.0412 -0.4145
 4586TIP3    H235250   2.513   3.114  11.803 -1.6419 -0.4140 -0.9007
 4587TIP3   OH235251   5.090   4.752   0.787  0.3376  0.0896 -0.2028
 4587TIP3    H135252   5.013   4.749   0.844 -1.9122  0.5527 -3.0889
 4587TIP3    H235253   5.123   4.842   0.796 -0.9264  0.6180 -0.8006
 4588TIP3   OH235254   0.394   1.505  13.388  0.0671  0.8247 -0.5620
 4588TIP3    H135255   0.484   1.480  13.368  0.2825 -0.7308  2.0937
 4588TIP3    H235256   0.392   1.511  13.483 -2.6482  0.8249 -0.5959
 4589TIP3   OH235257   0.271   2.998   2.128  0.1438 -0.2600  0.2322
 4589TIP3    H135258   0.228   3.040   2.203 -2.1323 -1.5112 -0.3055
 4589TIP3    H235259   0.297   3.071   2.072 -1.3681  0.5811  0.5720
 4590TIP3   OH235260   4.172   2.028   1.733  0.0082  1.1463  0.7951
 4590TIP3    H135261   4.199   1.946   1.776  0.8570  0.8885 -0.2174
 4590TIP3    H235262   4.079   2.037   1.755 -0.5324 -0.9835 -0.4990
 4591TIP3   OH235263   3.918   3.950  15.751 -0.5813 -0.5973 -0.2796
 4591TIP3    H135264   3.996   3.933  15.804 -1.1829 -1.4722  0.3442
 4591TIP3    H235265   3.848   3.903  15.796 -1.5062  0.3344 -0.7358
 4592TIP3   OH235266   6.065   6.468  11.966 -0.2180  0.1767 -0.7960
 4592TIP3    H135267   6.150   6.453  11.924 -0.9051 -1.8712 -1.5206
 4592TIP3    H235268   6.044   6.386  12.010 -1.8284  0.6508 -0.6179
 4593TIP3   OH235269   0.431   0.589  14.192 -0.4161  0.2843 -0.3781
 4593TIP3    H135270   0.359   0.558  14.246 -1.8347  1.1705 -1.7229
 4593TIP3    H235271   0.432   0.684  14.206  0.6831  0.2436 -0.1401
 4594TIP3   OH235272   0.967   5.440  15.436  0.0990 -0.4709 -0.0925
 4594TIP3    H135273   0.954   5.377  15.507 -0.9535  2.6705  2.6125
 4594TIP3    H235274   0.878   5.465  15.410  0.5111  1.7901  0.6371
 4595TIP3   OH235275   1.514   3.195  12.570  0.1957  0.4209 -0.1439
 4595TIP3    H135276   1.507   3.108  12.610  1.3950  0.1765 -0.4508
 4595TIP3    H235277   1.455   3.191  12.495  1.8391 -0.8726 -1.4267
 4596TIP3   OH235278   2.904   6.651  15.752 -0.1233 -0.0685 -0.0874
 4596TIP3    H135279   2.983   6.615  15.712 -0.3639  1.4760 -2.0004
 4596TIP3    H235280   2.855   6.690  15.680 -0.5993  2.7720  1.6685
 4597TIP3   OH235281   1.402   3.567  16.263 -0.1164 -0.1354 -0.0547
 4597TIP3    H135282   1.364   3.654  16.250 -0.8800 -0.3861  0.4934
 4597TIP3    H235283   1.469   3.580  16.330 -0.2644  0.0185  0.0641
 4598TIP3   OH235284   0.286   3.161  13.011  0.1712 -0.3209  0.4994
 4598TIP3    H135285   0.382   3.159  13.012  0.1733  0.3647  1.6375
 4598TIP3    H235286   0.262   3.207  13.091 -1.1253 -0.8312  0.4057
 4599TIP3   OH235287   3.704   1.055  15.196  0.5161 -0.5511 -0.2439
 4599TIP3    H135288   3.648   1.124  15.231 -0.6864 -0.8927 -1.4409
 4599TIP3    H235289   3.792   1.091  15.199  0.3271 -0.1771  2.1116
 4600TIP3   OH235290   2.774   6.452   3.209 -0.3067 -0.3769  0.2410
 4600TIP3    H135291   2.683   6.467   3.186 -0.7098 -0.7371  1.5404
 4600TIP3    H235292   2.802   6.534   3.251  0.4464  0.3066 -1.5324
 4601TIP3   OH235293   1.625   0.507   5.886  0.3255  0.4314  0.4181
 4601TIP3    H135294   1.699   0.468   5.933 -0.0756  1.2114  1.7147
 4601TIP3    H235295   1.660   0.589   5.852  1.2362 -1.1059 -2.5062
 4602TIP3   OH235296   2.978   5.202   4.680  0.4637  0.3940  0.1785
 4602TIP3    H135297   2.938   5.235   4.760  1.0002  1.5474 -0.0163
 4602TIP3    H235298   2.922   5.235   4.610  0.5750  0.2480  0.0195
 4603TIP3   OH235299   3.324   1.360   6.101  0.3803 -0.5156  0.6126
 4603TIP3    H135300   3.367   1.296   6.044  0.8407  0.0323  0.3414
 4603TIP3    H235301   3.345   1.331   6.190  1.3045 -0.2682  0.4857
 4604TIP3   OH235302   0.850   4.762  11.159 -0.3228 -0.0555  0.1395
 4604TIP3    H135303   0.890   4.775  11.073  1.6591 -0.1772  1.0289
 4604TIP3    H235304   0.809   4.846  11.180  0.1135  0.3012 -0.4410
 4605TIP3   OH235305   5.078   2.220  12.180  0.2394 -0.6303 -0.0108
 4605TIP3    H135306   5.009   2.193  12.119  2.6275 -0.7522 -2.7431
 4605TIP3    H235307   5.070   2.315  12.185  0.3496 -0.5762 -0.8990
 4606TIP3   OH235308   2.234   4.238  15.719 -0.1098 -0.4292 -0.4176
 4606TIP3    H135309   2.221   4.262  15.627  0.3824  0.3657 -0.2853
 4606TIP3    H235310   2.301   4.169  15.717  0.9072  0.5434 -0.5662
 4607TIP3   OH235311   5.490   3.883  12.219  0.0824  1.0557  0.2571
 4607TIP3    H135312   5.528   3.796  12.217 -0.2206  0.9399 -0.5592
 4607TIP3    H235313   5.540   3.930  12.287  0.4587  0.3579  0.4607
 4608TIP3   OH235314   6.808   4.986   3.201 -0.2516 -0.5234  0.2523
 4608TIP3    H135315   6.795   4.891   3.196  1.7793 -0.7855 -0.9032
 4608TIP3    H235316   6.829   5.012   3.111  1.9994  0.5519  1.0502
 4609TIP3   OH235317   6.058   5.220   3.435 -0.0261 -0.2398 -0.8765
 4609TIP3    H135318   6.104   5.303   3.424  0.5587 -0.5260 -0.6114
 4609TIP3    H235319   6.097   5.162   3.369  0.1516 -0.5474 -0.5024
 4610TIP3   OH235320   1.786   4.340  14.248 -1.3831 -0.0617 -0.1880
 4610TIP3    H135321   1.861   4.302  14.202  0.0314  0.0135  1.9694
 4610TIP3    H235322   1.723   4.269  14.252 -1.0207 -0.4555 -1.0966
 4611TIP3   OH235323   6.662   2.916  14.346 -0.5603 -0.0824 -0.0600
 4611TIP3    H135324   6.601   2.845  14.365 -3.3849  2.2313 -0.2346
 4611TIP3    H235325   6.670   2.963  14.429 -0.0374  0.4290 -0.3976
 4612TIP3   OH235326   5.384   0.985  15.758  0.2732  0.1725 -0.0195
 4612TIP3    H135327   5.314   0.921  15.742 -0.1317  0.7553 -0.5655
 4612TIP3    H235328   5.400   1.025  15.672  1.2928  0.0299  0.0959
 4613TIP3   OH235329   1.956   5.332   4.401  0.0530  0.3810  0.0286
 4613TIP3    H135330   1.884   5.287   4.445  0.1916  0.6283  0.5188
 4613TIP3    H235331   1.918   5.367   4.321 -0.1417 -0.2921 -0.1727
 4614TIP3   OH235332   6.608   3.873  11.808  0.4803  0.2942 -0.1638
 4614TIP3    H135333   6.525   3.919  11.811  0.4837  0.2598  0.5088
 4614TIP3    H235334   6.588   3.790  11.765  0.0818  0.0974  0.4073
 4615TIP3   OH235335   4.386   2.100  14.693 -0.3069  0.1058  0.2393
 4615TIP3    H135336   4.476   2.082  14.721 -0.7971 -2.2703  0.3470
 4615TIP3    H235337   4.387   2.193  14.670  2.0728  0.2148  0.6383
 4616TIP3   OH235338   0.037   0.364  16.749  0.1055  0.1428  0.2730
 4616TIP3    H135339   0.070   0.296  16.690 -0.2226  0.4171 -0.2359
 4616TIP3    H235340   0.034   0.443  16.694 -1.5647  0.0853  0.2561
 4617TIP3   OH235341   5.268   5.141   2.215 -0.3008 -0.3239 -0.4499
 4617TIP3    H135342   5.307   5.060   2.181 -0.5133 -0.8370  0.4976
 4617TIP3    H235343   5.287   5.138   2.309 -1.0489  0.3219 -0.2770
 4618TIP3   OH235344   0.372   2.354   2.643 -0.1189  0.7099  0.8704
 4618TIP3    H135345   0.398   2.429   2.591 -1.9051  0.3463 -0.5993
 4618TIP3    H235346   0.448   2.296   2.642  0.1340  1.0461 -0.7145
 4619TIP3   OH235347   2.555   6.786   3.865  0.7303  0.2615  0.2789
 4619TIP3    H135348   2.572   6.725   3.936  0.4614 -0.4708 -0.2736
 4619TIP3    H235349   2.640   6.825   3.845  1.2083 -1.1141 -0.4200
 4620TIP3   OH235350   5.228   5.119  16.705  0.0977 -0.5117  0.2051
 4620TIP3    H135351   5.178   5.178  16.762 -0.7328 -3.1332  2.3369
 4620TIP3    H235352   5.172   5.107  16.628 -0.1372  0.7493  0.1674
 4621TIP3   OH235353   6.304   3.262   4.782  0.2219  0.3670 -0.4236
 4621TIP3    H135354   6.238   3.331   4.790 -0.9985 -0.8652  0.4488
 4621TIP3    H235355   6.309   3.223   4.869  3.0724  1.2712 -0.1216
 4622TIP3   OH235356   1.971   6.607   6.215 -0.5356  0.6449 -0.8128
 4622TIP3    H135357   1.991   6.576   6.126  3.1183 -0.9454  0.4696
 4622TIP3    H235358   1.939   6.529   6.260 -0.3211  0.9607 -0.1189
 4623TIP3   OH235359   1.157   2.550   3.081  0.2888  0.4647 -0.9200
 4623TIP3    H135360   1.251   2.553   3.095  0.1906  1.6070 -0.4703
 4623TIP3    H235361   1.119   2.553   3.169 -0.1625 -0.1916 -1.0884
 4624TIP3   OH235362   2.634   4.149  14.548  0.2695 -0.1208  0.0207
 4624TIP3    H135363   2.538   4.150  14.553  0.2538 -1.4383  0.2717
 4624TIP3    H235364   2.663   4.141  14.639  0.5682 -1.0419 -0.1443
 4625TIP3   OH235365   6.386   4.976   1.388 -0.1471  0.3202 -0.3728
 4625TIP3    H135366   6.354   4.982   1.298  1.3106 -0.1432 -0.9372
 4625TIP3    H235367   6.387   4.882   1.408  0.9031  0.3144 -0.3960
 4626TIP3   OH235368   4.766   1.989   2.610 -0.2683  0.3076 -0.2943
 4626TIP3    H135369   4.754   2.050   2.537 -1.0497  2.5596  1.6895
 4626TIP3    H235370   4.692   2.005   2.668  0.1331 -1.7416  0.8243
 4627TIP3   OH235371   0.847   2.931   6.682 -0.0263  0.6764  0.2296
 4627TIP3    H135372   0.857   2.837   6.690 -2.4054  0.4562  1.1796
 4627TIP3    H235373   0.935   2.964   6.663  1.0128 -1.6014  0.9956
 4628TIP3   OH235374   6.470   1.621   0.584 -0.2135 -0.1880 -0.2071
 4628TIP3    H135375   6.524   1.700   0.587  1.0074 -0.9272 -1.6609
 4628TIP3    H235376   6.428   1.624   0.498 -0.9698 -0.5952  0.1474
 4629TIP3   OH235377   2.224   5.383  11.515 -0.2886  0.5237 -0.5620
 4629TIP3    H135378   2.315   5.395  11.542 -0.1723 -1.5546  0.0466
 4629TIP3    H235379   2.230   5.340  11.430 -0.6850 -1.0573  0.1900
 4630TIP3   OH235380   2.224   6.792  14.359 -0.2609 -0.2066  0.4668
 4630TIP3    H135381   2.132   6.772  14.378 -0.2682  1.2336  2.0160
 4630TIP3    H235382   2.223   6.822  14.268 -1.4181  0.2911  0.6319
 4631TIP3   OH235383   0.152   2.542   1.053  0.2237 -0.1037 -0.0132
 4631TIP3    H135384   0.167   2.608   0.985 -1.5258 -0.2599 -0.5737
 4631TIP3    H235385   0.120   2.465   1.006  0.0563 -0.5833  0.8711
 4632TIP3   OH235386   0.495   2.169   4.070  0.6033 -0.5875 -0.6103
 4632TIP3    H135387   0.432   2.240   4.063  1.1218 -0.1459 -0.8208
 4632TIP3    H235388   0.460   2.113   4.140  0.8070  0.4893  0.3651
 4633TIP3   OH235389   1.264   3.444   0.826  0.1533 -0.2682  0.2158
 4633TIP3    H135390   1.306   3.415   0.745 -0.1094 -0.7028  0.2360
 4633TIP3    H235391   1.306   3.391   0.894 -1.2493 -1.5499  0.1148
 4634TIP3   OH235392   3.002   4.263  11.848 -0.4126 -0.4627  0.0208
 4634TIP3    H135393   3.001   4.243  11.755 -0.2118 -0.5153  0.0285
 4634TIP3    H235394   2.977   4.182  11.892 -0.0660 -0.5670  0.0308
 4635TIP3   OH235395   1.567   5.175  16.318  0.0614 -0.4672 -0.0969
 4635TIP3    H135396   1.555   5.081  16.323 -0.5076 -0.2941  2.2217
 4635TIP3    H235397   1.662   5.188  16.330  0.2418 -0.7724 -1.1503
 4636TIP3   OH235398   1.623   3.919   0.977  0.8589  0.2518 -0.4164
 4636TIP3    H135399   1.533   3.947   0.962  0.7440  0.5555  0.7888
 4636TIP3    H235400   1.615   3.830   1.012  0.8000  1.5536  3.1005
 4637TIP3   OH235401   3.893   6.659   4.909  0.3018 -0.0895  1.0237
 4637TIP3    H135402   3.807   6.620   4.895 -0.0143  1.1649 -0.7263
 4637TIP3    H235403   3.921   6.625   4.994 -1.2469 -1.7177  0.9305
 4638TIP3   OH235404   5.529   4.173  16.068  0.2097  0.5168 -0.2320
 4638TIP3    H135405   5.441   4.146  16.044 -0.2000  1.7976 -0.2058
 4638TIP3    H235406   5.535   4.155  16.162  0.0723  0.1527 -0.2958
 4639TIP3   OH235407   3.031   4.124   0.113 -0.5003 -0.2017  0.1544
 4639TIP3    H135408   2.998   4.040   0.146 -0.9409  0.4888  1.5023
 4639TIP3    H235409   2.960   4.157   0.058 -0.6492 -0.3332  0.2667
 4640TIP3   OH235410   0.130   5.462   5.307 -0.0412  0.1435 -1.3033
 4640TIP3    H135411   0.212   5.415   5.317 -0.1393  0.0565 -0.9053
 4640TIP3    H235412   0.155   5.549   5.275  0.4242  1.0298  1.3812
 4641TIP3   OH235413   3.832   5.146   1.784  0.3992 -0.2832  1.2234
 4641TIP3    H135414   3.877   5.166   1.702  0.2803 -0.1398  1.1919
 4641TIP3    H235415   3.739   5.150   1.762  0.3275  1.4443  1.7410
 4642TIP3   OH235416   4.128   4.609   5.155  0.2169 -0.1931 -0.3553
 4642TIP3    H135417   4.176   4.558   5.089 -1.6730 -1.2949 -0.9164
 4642TIP3    H235418   4.044   4.628   5.113 -0.6352 -0.0639  1.4000
 4643TIP3   OH235419   1.748   0.699  13.805 -0.4656 -0.2922  0.2086
 4643TIP3    H135420   1.761   0.734  13.717 -0.4987 -0.4652  0.1330
 4643TIP3    H235421   1.802   0.753  13.861  0.0842 -0.6100 -0.0105
 4644TIP3   OH235422   2.413   4.736   1.519  0.1643  0.5542 -0.1488
 4644TIP3    H135423   2.370   4.730   1.604  0.8588 -2.6743  0.0042
 4644TIP3    H235424   2.481   4.803   1.531 -1.4880  2.0737  1.0133
 4645TIP3   OH235425   3.877   1.296   5.284 -0.0295 -0.4788  0.5949
 4645TIP3    H135426   3.933   1.336   5.217 -0.8675  1.1147  0.8092
 4645TIP3    H235427   3.911   1.330   5.367 -1.6959  1.0860  0.6879
 4646TIP3   OH235428   0.054   5.616  14.715 -0.1999 -0.0722  0.4095
 4646TIP3    H135429  -0.041   5.617  14.726 -0.3218 -0.6600 -0.5363
 4646TIP3    H235430   0.078   5.708  14.706 -0.5533  0.1481  1.7035
 4647TIP3   OH235431   4.907   6.719  13.571 -0.9937 -0.5073  0.3557
 4647TIP3    H135432   4.976   6.671  13.617 -0.4221 -1.6116 -1.6281
 4647TIP3    H235433   4.953   6.774  13.508 -1.8625 -0.3899 -0.1891
 4648TIP3   OH235434   2.786   6.545   1.495 -0.1215 -0.4718  0.1154
 4648TIP3    H135435   2.795   6.452   1.472  0.3171 -0.6539  1.0294
 4648TIP3    H235436   2.874   6.581   1.484  0.2033 -0.6618  1.9378
 4649TIP3   OH235437   2.545   4.508  11.991  0.0134  0.2933 -0.0659
 4649TIP3    H135438   2.541   4.412  11.985 -0.4359  0.3223 -0.2126
 4649TIP3    H235439   2.491   4.539  11.919 -0.8251  0.6544  0.7009
 4650TIP3   OH235440   4.926   4.760  16.138 -0.1106  0.1983  0.6384
 4650TIP3    H135441   4.853   4.764  16.199 -0.9976 -0.9952 -0.3114
 4650TIP3    H235442   4.892   4.800  16.058 -0.0792 -1.2340 -0.1174
 4651TIP3   OH235443   0.250   6.614  13.642 -0.0021 -0.2405 -0.5039
 4651TIP3    H135444   0.280   6.699  13.609  2.4766 -0.4185  1.1668
 4651TIP3    H235445   0.329   6.560  13.646 -1.3713 -2.3085 -0.5491
 4652TIP3   OH235446   3.937   3.910   1.721 -0.2347  0.1079 -0.3684
 4652TIP3    H135447   4.030   3.933   1.710 -0.0872 -0.9335 -1.3107
 4652TIP3    H235448   3.938   3.817   1.743 -1.1099 -0.0737 -1.1080
 4653TIP3   OH235449   1.395   4.490  16.645 -0.5248 -0.6590  0.0689
 4653TIP3    H135450   1.404   4.568  16.699  3.0542 -1.1135  0.2811
 4653TIP3    H235451   1.482   4.479  16.605 -1.6311 -3.2098 -1.7659
 4654TIP3   OH235452   0.026   5.466  14.346  0.0522  0.0619  0.3364
 4654TIP3    H135453   0.107   5.419  14.364 -0.5130 -1.2139 -0.3236
 4654TIP3    H235454  -0.032   5.443  14.419  0.0770  0.4585  0.4812
 4655TIP3   OH235455   6.522   1.450  12.296  0.5631 -0.0102 -0.0571
 4655TIP3    H135456   6.520   1.544  12.279  1.9731 -0.0941 -0.7692
 4655TIP3    H235457   6.430   1.425  12.303  0.1441  1.2057 -1.0515
 4656TIP3   OH235458   5.798   6.621   5.491  0.2348 -0.1232  0.6378
 4656TIP3    H135459   5.865   6.657   5.433  0.6918 -0.6749  0.8134
 4656TIP3    H235460   5.779   6.535   5.453  1.2339 -0.8905  1.8462
 4657TIP3   OH235461   0.439   2.918  15.787  0.2022  0.1302 -0.5559
 4657TIP3    H135462   0.476   2.835  15.816  1.3702  0.2354 -1.7093
 4657TIP3    H235463   0.384   2.894  15.712 -2.0299 -0.0132  1.0721
 4658TIP3   OH235464   3.217   6.032   2.354 -0.5233 -0.4976  0.1081
 4658TIP3    H135465   3.302   5.990   2.344  0.1956  0.4947  1.8345
 4658TIP3    H235466   3.154   5.962   2.339  0.6043 -1.3609 -0.6526
 4659TIP3   OH235467   3.013   4.292   5.429 -0.3346 -0.3646 -0.1227
 4659TIP3    H135468   3.044   4.225   5.368  0.1533  1.1809 -1.6253
 4659TIP3    H235469   2.937   4.331   5.385  0.6611  1.4890 -0.2740
 4660TIP3   OH235470   1.904   0.716  10.711  0.4748  0.1535 -0.2006
 4660TIP3    H135471   1.929   0.625  10.700 -2.2268 -0.7842  0.9288
 4660TIP3    H235472   1.826   0.726  10.657  1.3647  2.1263 -1.1874
 4661TIP3   OH235473   5.317   3.397   4.948 -0.4447 -0.2283 -0.3691
 4661TIP3    H135474   5.314   3.306   4.979 -0.7641 -0.5939 -1.4327
 4661TIP3    H235475   5.388   3.437   4.997 -0.3413 -1.0439  0.1538
 4662TIP3   OH235476   1.237   1.550  14.533 -0.3490 -0.1798 -0.4512
 4662TIP3    H135477   1.228   1.628  14.479  1.2019  1.9644  2.2700
 4662TIP3    H235478   1.302   1.573  14.598  0.4709 -3.9250  0.1777
 4663TIP3   OH235479   3.829   4.653  14.852  0.1021  0.1419 -0.1460
 4663TIP3    H135480   3.880   4.572  14.851 -1.0515 -0.6303  1.3188
 4663TIP3    H235481   3.895   4.722  14.844  1.2181 -0.8835 -0.1124
 4664TIP3   OH235482   6.714   0.361   1.395 -0.1897 -0.0304  0.2631
 4664TIP3    H135483   6.666   0.288   1.357  0.3298 -0.6318  0.7555
 4664TIP3    H235484   6.708   0.348   1.489 -0.2114  0.6368  0.3540
 4665TIP3   OH235485   5.013   6.215  17.015 -0.4915 -0.0660  0.5083
 4665TIP3    H135486   5.033   6.214  17.108 -1.7521  0.2199  0.7870
 4665TIP3    H235487   4.952   6.288  17.004 -1.5219 -1.0248 -0.3013
 4666TIP3   OH235488   3.972   1.222  11.673  0.1237  0.0730 -0.2819
 4666TIP3    H135489   4.062   1.251  11.658  0.1618 -1.2866 -3.0615
 4666TIP3    H235490   3.919   1.301  11.663  0.7419  0.2954 -1.9589
 4667TIP3   OH235491   6.634   0.633  13.915  0.9166 -0.1862 -0.0180
 4667TIP3    H135492   6.627   0.537  13.911  1.8249 -0.3551  1.9302
 4667TIP3    H235493   6.622   0.654  14.007  0.4672  1.6198 -0.4764
 4668TIP3   OH235494   5.130   4.256  11.350  0.1598 -0.2869  0.0154
 4668TIP3    H135495   5.223   4.272  11.365  0.2793  0.7532 -1.6996
 4668TIP3    H235496   5.092   4.343  11.341 -0.9930 -0.7013  0.7694
 4669TIP3   OH235497   1.006   4.865   2.600 -0.1730  0.3507 -0.6559
 4669TIP3    H135498   0.958   4.947   2.593  0.2577  0.6372 -0.3103
 4669TIP3    H235499   1.035   4.846   2.511 -1.7738 -0.3537 -1.0422
 4670TIP3   OH235500   3.001   0.255   2.053 -0.1983  0.0475  0.4745
 4670TIP3    H135501   3.027   0.340   2.017 -1.8483  0.9172  1.2833
 4670TIP3    H235502   3.069   0.233   2.116  0.7138  0.3268 -0.4037
 4671TIP3   OH235503   0.650   1.989   2.445  0.2182  0.4949 -0.1966
 4671TIP3    H135504   0.744   1.975   2.460  0.3348  1.4973  0.0629
 4671TIP3    H235505   0.607   1.954   2.523  0.4663  1.0836  0.2120
 4672TIP3   OH235506   0.710   3.883   2.526  0.3596 -0.0287 -0.1027
 4672TIP3    H135507   0.679   3.921   2.444  1.9710  1.7324  0.0560
 4672TIP3    H235508   0.659   3.802   2.536 -1.9724  1.2448 -1.2929
 4673TIP3   OH235509   5.044   2.153   6.066  0.3915  0.0319 -0.0304
 4673TIP3    H135510   4.968   2.175   6.013 -0.0521 -0.7023  0.2845
 4673TIP3    H235511   5.111   2.217   6.042 -0.9569  1.9209  1.1034
 4674TIP3   OH235512   6.172   1.394  12.128  0.4551 -0.0988  0.1657
 4674TIP3    H135513   6.238   1.326  12.121 -1.2326 -1.6153 -1.3456
 4674TIP3    H235514   6.174   1.438  12.043 -0.5730 -0.2159  0.0838
 4675TIP3   OH235515   1.849   4.891  14.959 -0.2638 -0.7723 -0.8657
 4675TIP3    H135516   1.829   4.802  14.930  0.4677 -0.7814 -1.3448
 4675TIP3    H235517   1.810   4.897  15.046  1.1048 -2.0972 -0.1329
 4676TIP3   OH235518   5.410   3.380  12.057 -0.0610  0.8018 -0.0616
 4676TIP3    H135519   5.348   3.399  11.987  0.6434  0.6408 -0.7281
 4676TIP3    H235520   5.419   3.284  12.055 -0.3355  0.7620  0.5036
 4677TIP3   OH235521   2.978   5.091   3.094 -0.4513 -0.1122  0.7212
 4677TIP3    H135522   2.939   5.171   3.130  0.6324  1.0441 -0.5926
 4677TIP3    H235523   2.991   5.110   3.001  0.5849 -1.5202  0.5551
 4678TIP3   OH235524   6.370   1.866  11.711  0.0416  0.3566  0.0130
 4678TIP3    H135525   6.276   1.885  11.721 -0.7171 -1.2746 -3.2353
 4678TIP3    H235526   6.412   1.951  11.716 -1.8553  1.3661 -0.6612
 4679TIP3   OH235527   0.202   5.248  14.437 -0.2339 -0.6621 -0.1936
 4679TIP3    H135528   0.120   5.206  14.462  0.1864 -0.0735  2.3091
 4679TIP3    H235529   0.236   5.285  14.518  2.0924 -0.1542 -1.3476
 4680TIP3   OH235530   4.890   4.411  14.950  0.0760  0.0697  0.0719
 4680TIP3    H135531   4.942   4.393  15.029  0.3898 -1.0737 -0.3852
 4680TIP3    H235532   4.945   4.381  14.878 -1.1741 -1.0236 -0.4313
 4681TIP3   OH235533   5.730   2.824  14.841  0.3645 -0.1682 -0.8530
 4681TIP3    H135534   5.639   2.808  14.863  0.0935  2.9639  0.4921
 4681TIP3    H235535   5.766   2.737  14.825 -2.0370 -1.7242  1.7856
 4682TIP3   OH235536   4.606   1.152   1.217 -0.4092  0.3992 -0.2702
 4682TIP3    H135537   4.661   1.135   1.293  0.3650  1.0894 -0.6750
 4682TIP3    H235538   4.667   1.176   1.148 -1.1582  0.3692 -0.9462
 4683TIP3   OH235539   5.631   2.201  17.027 -0.0046 -0.1265 -0.0155
 4683TIP3    H135540   5.620   2.201  16.932  3.9344 -1.1438 -0.5669
 4683TIP3    H235541   5.556   2.153  17.060 -1.9568  1.0847 -2.5055
 4684TIP3   OH235542   4.117   2.501  16.171  0.5645 -0.2267  0.4563
 4684TIP3    H135543   4.203   2.493  16.129 -0.5044  1.4170 -2.1783
 4684TIP3    H235544   4.110   2.594  16.193 -1.3657  0.0753 -1.2709
 4685TIP3   OH235545   6.618   2.975   3.505  0.2393  0.3396  0.0538
 4685TIP3    H135546   6.659   3.022   3.578  0.3505  1.7246 -0.8804
 4685TIP3    H235547   6.524   2.978   3.525  0.2124  1.2934 -0.1684
 4686TIP3   OH235548   4.126   3.889   2.057 -0.0079  0.1450 -0.3502
 4686TIP3    H135549   4.103   3.965   2.002  1.4150  0.0032 -1.1665
 4686TIP3    H235550   4.044   3.840   2.066 -0.8177  1.4802 -0.2797
 4687TIP3   OH235551   5.665   1.889   2.977 -0.1476 -0.2511 -0.0118
 4687TIP3    H135552   5.589   1.834   2.993 -1.1155  0.6647 -1.3272
 4687TIP3    H235553   5.667   1.950   3.051 -0.4913 -0.5044  0.2060
 4688TIP3   OH235554   5.383   6.017  15.987 -0.0897  0.0661 -0.3387
 4688TIP3    H135555   5.361   5.977  15.902 -1.4249  0.7686 -0.3417
 4688TIP3    H235556   5.317   5.982  16.047  0.2408  0.3518  0.1854
 4689TIP3   OH235557   1.688   1.328   2.075 -0.1858  0.3603  0.0384
 4689TIP3    H135558   1.725   1.268   2.139  0.4883  2.8814  2.1072
 4689TIP3    H235559   1.733   1.308   1.994 -1.2936 -3.1349  0.1972
 4690TIP3   OH235560   3.462   0.942  16.818 -0.0101 -0.1439  0.3762
 4690TIP3    H135561   3.437   0.998  16.891 -0.2473 -0.3985  0.4934
 4690TIP3    H235562   3.556   0.929  16.829  0.3516  1.6171 -0.6315
 4691TIP3   OH235563   0.501   2.439   3.333 -0.4877 -0.3517 -0.3995
 4691TIP3    H135564   0.461   2.411   3.416 -0.5762 -2.0586 -0.9921
 4691TIP3    H235565   0.432   2.488   3.289  0.4516  2.9890  1.7147
 4692TIP3   OH235566   0.801   2.938   2.913  0.0235  0.5573 -0.3253
 4692TIP3    H135567   0.772   2.955   3.003  0.2158  1.4795 -0.4326
 4692TIP3    H235568   0.847   3.018   2.887  0.7699 -0.0574 -0.9227
 4693TIP3   OH235569   2.822   5.495   5.437 -0.0766 -1.0485 -0.3068
 4693TIP3    H135570   2.771   5.420   5.407 -0.7487 -1.0879  0.9065
 4693TIP3    H235571   2.806   5.563   5.372 -2.4849 -0.7416  0.5866
 4694TIP3   OH235572   3.064   5.009   3.342  0.5898 -0.2509 -0.0832
 4694TIP3    H135573   3.048   5.065   3.266  0.4132  1.0655  0.9116
 4694TIP3    H235574   3.159   5.006   3.350  0.6500 -1.5205 -1.1767
 4695TIP3   OH235575   2.542   0.096  12.673 -0.1089 -0.4929 -0.1092
 4695TIP3    H135576   2.625   0.123  12.712  0.8443 -0.3877 -2.1420
 4695TIP3    H235577   2.481   0.091  12.747  0.9119  2.4256  0.9898
 4696TIP3   OH235578   3.056   5.360   2.591 -0.0567 -0.2098  0.0900
 4696TIP3    H135579   3.010   5.444   2.594  0.5606  0.1718 -0.7619
 4696TIP3    H235580   3.019   5.315   2.515  0.0434 -0.4436  0.1790
 4697TIP3   OH235581   3.062   6.145  14.920 -0.4338 -0.0172 -0.2543
 4697TIP3    H135582   3.069   6.155  14.825 -2.1894 -0.7777 -0.4823
 4697TIP3    H235583   2.985   6.089  14.933 -0.1278 -0.0468  1.6114
 4698TIP3   OH235584   2.275   0.329  16.849  0.1198  0.0461 -0.2783
 4698TIP3    H135585   2.341   0.371  16.905 -1.0718  0.1546  1.0551
 4698TIP3    H235586   2.303   0.351  16.760  2.1430 -0.2700  0.2387
 4699TIP3   OH235587   4.618   2.588  16.564 -0.3549 -0.4896 -0.1399
 4699TIP3    H135588   4.548   2.525  16.547 -1.1650  0.4908 -0.5041
 4699TIP3    H235589   4.678   2.542  16.623 -2.1589 -0.7715  1.5301
 4700TIP3   OH235590   6.714   5.041  17.251 -0.0486 -0.1940  0.3240
 4700TIP3    H135591   6.725   5.093  17.171 -1.1963  0.4675  0.5883
 4700TIP3    H235592   6.661   5.096  17.309  1.8059 -0.1701  2.0404
 4701TIP3   OH235593   1.470   0.799   3.542 -0.0185  0.3912 -0.3070
 4701TIP3    H135594   1.467   0.774   3.634  2.6045  1.2275  0.0632
 4701TIP3    H235595   1.442   0.891   3.542 -0.6161  0.2091 -0.4265
 4702TIP3   OH235596   0.974   5.939   4.125 -0.1519  0.2747  0.3261
 4702TIP3    H135597   0.930   5.996   4.188  1.2901  2.3109 -0.4707
 4702TIP3    H235598   1.062   5.976   4.116 -0.1358 -0.3293 -2.4279
 4703TIP3   OH235599   5.544   2.578  16.177  0.2112  0.1593  0.1558
 4703TIP3    H135600   5.477   2.512  16.158  0.2879  0.1673 -0.1404
 4703TIP3    H235601   5.619   2.528  16.209 -0.7557  0.3305  2.7494
 4704TIP3   OH235602   2.706   3.877  11.992 -0.4968  0.0018  0.3029
 4704TIP3    H135603   2.743   3.789  12.005  0.4665  0.5351  1.2598
 4704TIP3    H235604   2.666   3.899  12.077 -0.8173  0.4432  0.0387
 4705TIP3   OH235605   1.350   5.997   2.171  0.1382  0.2718  0.1642
 4705TIP3    H135606   1.369   5.905   2.187  1.4056  0.5878  0.4956
 4705TIP3    H235607   1.263   5.997   2.131 -1.0958 -0.8599  2.7596
 4706TIP3   OH235608   1.008   0.517   1.017  0.4483 -0.1855  0.1319
 4706TIP3    H135609   0.987   0.550   1.105 -1.1495  1.6757 -0.9187
 4706TIP3    H235610   0.976   0.427   1.017 -0.1972  0.0338  1.2312
 4707TIP3   OH235611   1.761   2.868  10.835  0.2193  0.1969  0.0628
 4707TIP3    H135612   1.692   2.924  10.800  0.6595  0.1140 -0.9289
 4707TIP3    H235613   1.714   2.801  10.884 -0.4011  0.1860 -0.5441
 4708TIP3   OH235614   2.139   5.712   5.372  0.1771  0.3343 -0.0086
 4708TIP3    H135615   2.063   5.665   5.408 -0.4528  1.4659  0.1610
 4708TIP3    H235616   2.207   5.700   5.438  0.4400 -1.4558 -0.5794
 4709TIP3   OH235617   6.255   2.253  15.141 -0.0952  0.0838 -0.6387
 4709TIP3    H135618   6.251   2.349  15.148 -2.2797  0.2428 -3.4209
 4709TIP3    H235619   6.331   2.237  15.084 -0.0450  0.1708 -0.5966
 4710TIP3   OH235620   4.641   0.582  12.907 -0.4429 -0.2076  0.3707
 4710TIP3    H135621   4.622   0.550  12.995  0.2255 -1.1640  0.1713
 4710TIP3    H235622   4.567   0.640  12.886 -0.6336 -0.0183  1.5279
 4711TIP3   OH235623   1.540   4.021  13.497 -0.2481  0.2431 -0.1113
 4711TIP3    H135624   1.456   4.044  13.537 -1.1453 -1.1233 -1.2059
 4711TIP3    H235625   1.550   3.928  13.514  1.0763  0.4024  0.0261
 4712TIP3   OH235626   5.709   1.972  15.824 -0.5389 -0.1823 -0.4058
 4712TIP3    H135627   5.634   2.024  15.796  0.5821  1.1002 -1.1348
 4712TIP3    H235628   5.680   1.882  15.819 -2.3698  0.3392  0.3734
 4713TIP3   OH235629   0.889   3.261  14.243  0.6212  0.0742  0.3415
 4713TIP3    H135630   0.964   3.301  14.287  0.9574 -0.3543  0.1669
 4713TIP3    H235631   0.927   3.215  14.168 -0.0287  1.4307 -0.8370
 4714TIP3   OH235632   0.759   1.112   3.399  0.0807  0.0812  0.1853
 4714TIP3    H135633   0.779   1.176   3.467  2.0949 -1.4556  1.0819
 4714TIP3    H235634   0.731   1.034   3.448  1.5312 -1.0303 -0.7483
 4715TIP3   OH235635   6.574   2.254   1.169 -0.1388 -0.6144  0.3710
 4715TIP3    H135636   6.508   2.264   1.238  0.2481  0.9445  0.5288
 4715TIP3    H235637   6.590   2.343   1.138  2.4249 -0.8899  0.8422
 4716TIP3   OH235638   6.765   0.571  15.640 -0.1057  0.1814  0.5186
 4716TIP3    H135639   6.840   0.629  15.625  0.4563 -0.2715  1.5264
 4716TIP3    H235640   6.758   0.520  15.559  0.2384  0.7119  0.1506
 4717TIP3   OH235641   4.907   2.396   3.296 -0.0215  0.3797  0.5883
 4717TIP3    H135642   4.824   2.410   3.250  0.2645 -0.6176 -0.2534
 4717TIP3    H235643   4.974   2.402   3.227  0.3409 -2.1662  0.6857
 4718TIP3   OH235644   5.723   0.260   5.942  0.1649  0.1875  0.2301
 4718TIP3    H135645   5.725   0.166   5.963 -0.0049 -0.0297 -0.6792
 4718TIP3    H235646   5.630   0.284   5.950 -0.0936 -0.1725 -1.3609
 4719TIP3   OH235647   4.639   4.206   5.822  0.0314 -0.7937  0.1784
 4719TIP3    H135648   4.677   4.280   5.775  1.8789 -2.8369 -1.6386
 4719TIP3    H235649   4.705   4.184   5.888  0.1928 -1.7998 -0.3177
 4720TIP3   OH235650   4.877   0.206  11.772  0.4053 -0.0339 -0.1120
 4720TIP3    H135651   4.816   0.279  11.777  0.0174 -0.3481 -0.1524
 4720TIP3    H235652   4.887   0.188  11.679  0.4950 -0.0357 -0.1035
 4721TIP3   OH235653   6.214   1.885  12.260 -0.4911 -0.3187 -0.6652
 4721TIP3    H135654   6.225   1.916  12.170  4.1938 -1.2226 -0.5151
 4721TIP3    H235655   6.299   1.900  12.302 -1.4409 -3.2552  2.5782
 4722TIP3   OH235656   6.643   1.961   2.546  0.4794 -0.4615 -0.0443
 4722TIP3    H135657   6.615   2.010   2.624 -1.0148  0.2270 -1.0074
 4722TIP3    H235658   6.582   1.888   2.540 -0.5733  0.5362 -1.6324
 4723TIP3   OH235659   5.807   4.218  14.630 -0.0111  0.6969  0.2287
 4723TIP3    H135660   5.893   4.177  14.626 -0.1319  0.5091 -0.8248
 4723TIP3    H235661   5.825   4.312  14.636  0.2653  0.5407  2.1047
 4724TIP3   OH235662   1.162   6.116   0.486 -0.1070 -0.1100 -0.3720
 4724TIP3    H135663   1.149   6.209   0.504  1.3889 -0.1772  1.1699
 4724TIP3    H235664   1.135   6.072   0.567 -2.1114 -1.1524 -1.5531
 4725TIP3   OH235665   2.513   3.838   0.809 -0.9751  0.4148 -0.3253
 4725TIP3    H135666   2.445   3.784   0.848 -1.4944  0.5114 -1.0743
 4725TIP3    H235667   2.546   3.891   0.881  0.2987 -1.6472  0.6595
 4726TIP3   OH235668   2.362   3.705  15.939 -0.5483 -0.0061  0.0409
 4726TIP3    H135669   2.310   3.626  15.929 -0.1713 -0.0868 -1.4424
 4726TIP3    H235670   2.325   3.766  15.875 -0.9380  1.0817  1.2769
 4727TIP3   OH235671   2.946   0.203   6.073 -0.0192 -0.2395  0.7455
 4727TIP3    H135672   3.013   0.174   6.012 -1.0759  0.3631 -0.7244
 4727TIP3    H235673   2.923   0.125   6.124  0.5886 -0.8314  0.1039
 4728TIP3   OH235674   0.899   1.483   5.964 -0.4685  0.8463 -0.0772
 4728TIP3    H135675   0.990   1.463   5.943  0.4545  3.7226  0.8882
 4728TIP3    H235676   0.899   1.492   6.060 -1.8266  0.5706 -0.0488
 4729TIP3   OH235677   5.160   4.670  14.811  0.1489 -0.4715 -0.6548
 4729TIP3    H135678   5.222   4.717  14.867  0.5038  0.5392 -1.8724
 4729TIP3    H235679   5.085   4.653  14.868  1.0764 -0.7313  0.5319
 4730TIP3   OH235680   0.511   6.537  13.932  0.2612 -0.2959 -0.4155
 4730TIP3    H135681   0.553   6.521  14.016 -0.8271 -1.2347 -0.0448
 4730TIP3    H235682   0.581   6.524  13.867  1.1409  0.5826  0.3360
 4731TIP3   OH235683   0.511   1.585  15.917  0.0877 -0.9417  0.4964
 4731TIP3    H135684   0.564   1.591  15.997 -1.6516  0.4163  1.6067
 4731TIP3    H235685   0.434   1.639  15.936 -0.7470 -1.2656 -1.8121
 4732TIP3   OH235686   2.789   1.029   4.343  0.4181  0.9285  0.1502
 4732TIP3    H135687   2.759   1.061   4.428  0.2114 -0.7791  0.7267
 4732TIP3    H235688   2.715   0.979   4.308  0.9992  0.4538 -0.4173
 4733TIP3   OH235689   6.136   0.149   3.442  0.3260  0.4558 -0.4282
 4733TIP3    H135690   6.143   0.054   3.451  2.2616  0.5416 -0.9061
 4733TIP3    H235691   6.099   0.162   3.354  1.2904  0.1683 -0.8810
 4734TIP3   OH235692   4.374   5.532   4.240  0.3606 -0.0596 -0.5856
 4734TIP3    H135693   4.456   5.582   4.240  0.2564  0.1619  0.9997
 4734TIP3    H235694   4.364   5.504   4.331 -0.5308 -1.4148 -1.0859
 4735TIP3   OH235695   6.542   1.924   3.978  0.0638  0.1464 -0.0194
 4735TIP3    H135696   6.493   1.859   4.030 -1.4020  0.3771 -1.0633
 4735TIP3    H235697   6.480   1.951   3.910  1.2354  1.4179 -0.6006
 4736TIP3   OH235698   3.119   3.514  16.719 -0.0395 -0.3725  0.4288
 4736TIP3    H135699   3.067   3.589  16.749 -0.7783 -0.2844 -1.0273
 4736TIP3    H235700   3.065   3.474  16.650  0.3533 -2.2279  1.1701
 4737TIP3   OH235701   5.925   0.390   2.951  0.5984  0.0975  0.0829
 4737TIP3    H135702   5.833   0.397   2.974 -0.6396 -1.8863 -3.8153
 4737TIP3    H235703   5.944   0.472   2.904  0.5876  0.1156  0.1097
 4738TIP3   OH235704   0.849   1.272  11.468  0.2788 -0.3433 -0.1753
 4738TIP3    H135705   0.873   1.317  11.549  0.1285  1.7204 -1.2435
 4738TIP3    H235706   0.927   1.278  11.413 -0.2269 -0.0791 -0.8797
 4739TIP3   OH235707   1.999   3.321  14.616 -0.5515 -0.1341  0.5136
 4739TIP3    H135708   2.092   3.342  14.608 -0.0297 -2.0006  1.3786
 4739TIP3    H235709   1.965   3.386  14.678  0.3822 -0.0678  0.9615
 4740TIP3   OH235710   5.609   1.304  11.628 -0.1166 -0.6299  0.2518
 4740TIP3    H135711   5.701   1.312  11.653 -0.0809  1.0949 -0.4051
 4740TIP3    H235712   5.569   1.258  11.702  1.6591 -3.4016 -0.4001
 4741TIP3   OH235713   2.111   2.647   4.754  0.4482 -0.3499 -0.0103
 4741TIP3    H135714   2.076   2.561   4.777  0.3609 -0.4603 -0.5514
 4741TIP3    H235715   2.083   2.705   4.826 -1.1753 -0.3526 -0.6236
 4742TIP3   OH235716   3.660   5.009  11.637  1.3578  0.4592 -0.1750
 4742TIP3    H135717   3.639   4.925  11.596  0.2894  0.1715  0.9316
 4742TIP3    H235718   3.703   4.986  11.719  0.7152  0.9803  0.3127
 4743TIP3   OH235719   1.229   5.360  12.804  0.0659  0.2661  0.3403
 4743TIP3    H135720   1.276   5.415  12.867  0.8618 -1.2357  1.0742
 4743TIP3    H235721   1.233   5.409  12.722  0.5025  1.4387  1.0382
 4744TIP3   OH235722   0.390   4.805   1.196 -0.8851  0.2086 -0.5594
 4744TIP3    H135723   0.452   4.736   1.172 -1.3191 -0.5649  0.5093
 4744TIP3    H235724   0.445   4.876   1.228 -0.5732 -1.0582  1.8568
 4745TIP3   OH235725   3.634   1.602   0.842  0.4608  0.2865 -0.2193
 4745TIP3    H135726   3.635   1.562   0.929 -0.9006 -0.1372 -0.3881
 4745TIP3    H235727   3.630   1.528   0.782  0.0026  0.6258 -0.6049
 4746TIP3   OH235728   4.034   4.013  13.646 -0.0703 -0.5782 -0.2360
 4746TIP3    H135729   3.960   4.020  13.587  0.0702  0.6209 -0.2903
 4746TIP3    H235730   3.998   3.975  13.726 -0.4722 -1.2072 -0.7155
 4747TIP3   OH235731   4.661   6.124   3.392  0.1249  0.4905 -0.1185
 4747TIP3    H135732   4.691   6.189   3.454  0.7976 -0.2247  0.3092
 4747TIP3    H235733   4.739   6.075   3.368 -0.2623  0.2596 -0.9380
 4748TIP3   OH235734   2.563   2.897  15.300  0.0211  0.1724  0.0577
 4748TIP3    H135735   2.598   2.809  15.312 -0.0776  0.2265  0.7511
 4748TIP3    H235736   2.498   2.888  15.230 -2.4523 -0.9787  2.4138
 4749TIP3   OH235737   3.268   4.639  11.319 -0.0479 -0.0217 -0.3685
 4749TIP3    H135738   3.314   4.557  11.339  2.1027  0.7570 -1.9186
 4749TIP3    H235739   3.323   4.681  11.253  0.2494  3.8580  2.2129
 4750TIP3   OH235740   2.851   6.626  16.966 -0.1800 -0.1250  0.0112
 4750TIP3    H135741   2.839   6.532  16.982 -2.7862  0.2600  0.5234
 4750TIP3    H235742   2.891   6.630  16.879  2.0126 -1.7659  0.8859
 4751TIP3   OH235743   1.193   3.677  15.663  0.2957  0.3892 -0.0070
 4751TIP3    H135744   1.259   3.723  15.610 -2.1075  3.6908 -0.3139
 4751TIP3    H235745   1.180   3.734  15.739 -0.3742 -1.4764  1.2974
 4752TIP3   OH235746   4.031   2.902  14.977  0.2158 -0.1256 -0.4122
 4752TIP3    H135747   3.987   2.986  14.974 -1.3183 -0.9642 -2.8157
 4752TIP3    H235748   4.124   2.923  14.972 -0.0487  1.5119  1.2148
 4753TIP3   OH235749   5.437   3.687  13.868  0.0302  0.1998 -0.6257
 4753TIP3    H135750   5.402   3.763  13.916  0.5812  0.4466 -0.6044
 4753TIP3    H235751   5.385   3.613  13.899  1.8946 -0.0259  2.0906
 4754TIP3   OH235752   2.890   2.877   0.895  0.0602  0.5339  0.0049
 4754TIP3    H135753   2.927   2.933   0.827 -0.5990  0.3578 -0.5187
 4754TIP3    H235754   2.845   2.937   0.954  1.0504  0.7328  0.5606
 4755TIP3   OH235755   0.125   2.375  16.943  0.2801 -0.2992  0.2908
 4755TIP3    H135756   0.139   2.435  16.869  0.5785  0.8613  1.2760
 4755TIP3    H235757   0.204   2.322  16.944  0.7820  0.4374  0.4628
 4756TIP3   OH235758   3.091   2.438   5.694  0.2437  0.1582  0.9042
 4756TIP3    H135759   3.054   2.493   5.763  1.2519  0.4309  1.2469
 4756TIP3    H235760   3.081   2.349   5.725  1.5219  0.3318  1.8242
 4757TIP3   OH235761   1.031   5.353   5.958  0.3691 -0.1186 -0.5095
 4757TIP3    H135762   1.002   5.415   6.025  2.0161  1.2553 -1.0454
 4757TIP3    H235763   0.974   5.369   5.883 -0.3971 -0.5191 -0.0151
 4758TIP3   OH235764   0.649   1.167  13.432  0.2995  0.1168 -0.0525
 4758TIP3    H135765   0.588   1.111  13.481  2.7960 -0.9416  1.9339
 4758TIP3    H235766   0.662   1.121  13.349 -1.3215  0.1908 -0.3755
 4759TIP3   OH235767   2.245   2.528   5.052  0.7941  0.3911  0.6264
 4759TIP3    H135768   2.298   2.462   5.008  1.3514  0.0007  1.8653
 4759TIP3    H235769   2.288   2.540   5.137 -1.1769 -0.0334  1.6991
 4760TIP3   OH235770   4.830   5.714  16.305 -0.7512  0.0969  0.0198
 4760TIP3    H135771   4.896   5.688  16.241 -1.2512 -1.5415  0.1278
 4760TIP3    H235772   4.863   5.680  16.388 -1.6690 -0.6564  0.0881
 4761TIP3   OH235773   2.944   4.811   0.002  0.6510  0.1460 -0.1908
 4761TIP3    H135774   3.010   4.742   0.014 -1.1540 -1.3028  1.7263
 4761TIP3    H235775   2.865   4.764  -0.026 -0.5627  1.4193  0.9862
 4762TIP3   OH235776   0.023   5.156   3.670  0.1751 -0.2380 -0.4588
 4762TIP3    H135777   0.033   5.152   3.574 -1.9325 -0.7953 -0.6764
 4762TIP3    H235778   0.002   5.067   3.696 -1.8122  0.3953  0.1958
 4763TIP3   OH235779   6.768   3.596   0.642 -0.0276  0.3596  0.0443
 4763TIP3    H135780   6.743   3.504   0.647 -0.1175  0.4392  1.3166
 4763TIP3    H235781   6.697   3.643   0.686  0.4921  0.9326  0.2977
 4764TIP3   OH235782   0.332   3.358   0.985  0.1202  0.5387  0.1825
 4764TIP3    H135783   0.335   3.265   0.963  0.9443  0.5457  0.2491
 4764TIP3    H235784   0.343   3.361   1.080 -0.1078  0.6912  0.2052
 4765TIP3   OH235785   1.096   2.722   5.184  0.0604 -0.0738 -0.7480
 4765TIP3    H135786   1.149   2.666   5.126  0.4283 -0.3918 -0.1107
 4765TIP3    H235787   1.006   2.696   5.167  0.1959 -0.4804 -0.8582
 4766TIP3   OH235788   2.276   2.444  14.536 -0.0324 -0.2365 -0.6384
 4766TIP3    H135789   2.247   2.522  14.489  2.4319  1.7050  0.9769
 4766TIP3    H235790   2.371   2.450  14.537  0.0756 -1.8276  1.9679
 4767TIP3   OH235791   3.400   5.185  15.238 -0.4129 -0.1843  0.2790
 4767TIP3    H135792   3.462   5.150  15.174 -2.2785 -1.7983 -0.6916
 4767TIP3    H235793   3.324   5.210  15.185 -0.9628  0.8993  1.5689
 4768TIP3   OH235794   1.642   1.864   5.484  0.0508 -0.2264  0.3790
 4768TIP3    H135795   1.692   1.784   5.504  2.2031  0.3572 -2.3718
 4768TIP3    H235796   1.573   1.834   5.425  0.5031 -0.1549 -0.1891
 4769TIP3   OH235797   6.096   2.001  13.591 -0.2601 -0.2974  0.0632
 4769TIP3    H135798   6.114   2.092  13.569 -1.3757 -0.7419 -2.8417
 4769TIP3    H235799   6.050   2.006  13.675 -2.5659  2.0282 -1.2522
 4770TIP3   OH235800   2.792   1.417  13.378 -0.7600 -0.6861 -0.3352
 4770TIP3    H135801   2.700   1.391  13.381 -1.4404  1.5294 -0.5837
 4770TIP3    H235802   2.824   1.384  13.294 -1.4001 -1.2494 -0.3614
 4771TIP3   OH235803   1.491   3.671  15.395  0.2648  0.2428  0.4213
 4771TIP3    H135804   1.437   3.593  15.406  3.1984 -2.0044 -0.5954
 4771TIP3    H235805   1.471   3.701  15.306 -1.1700  0.9466  0.9602
 4772TIP3   OH235806   0.076   1.955   1.948  0.0863  0.2715 -0.7234
 4772TIP3    H135807  -0.004   2.005   1.929  0.3891  1.2353  0.4604
 4772TIP3    H235808   0.044   1.869   1.974 -0.7311  1.3056  1.9029
 4773TIP3   OH235809   4.218   1.030   5.930  0.1371  0.4267  0.0496
 4773TIP3    H135810   4.280   0.960   5.950  1.0171  0.4841 -2.3840
 4773TIP3    H235811   4.269   1.110   5.935 -0.1012  0.6115 -0.5020
 4774TIP3   OH235812   3.131   2.109   2.726 -0.3483  0.2012  0.0798
 4774TIP3    H135813   3.054   2.120   2.670 -1.2804 -0.2767  1.2520
 4774TIP3    H235814   3.201   2.154   2.678 -1.1416 -0.0941 -1.4140
 4775TIP3   OH235815   3.315   1.302  12.705 -0.6477  0.0329  0.4339
 4775TIP3    H135816   3.350   1.385  12.673  1.2370  0.4249  3.3336
 4775TIP3    H235817   3.237   1.286  12.651  0.0585  2.6837 -1.4540
 4776TIP3   OH235818   5.344   0.232  13.137 -0.0412 -0.1569  0.0105
 4776TIP3    H135819   5.402   0.258  13.066  0.9748 -1.3202  0.3988
 4776TIP3    H235820   5.264   0.202  13.094  0.5735 -0.8567 -0.6453
 4777TIP3   OH235821   5.003   3.380   4.186  0.0593  0.5683  0.2643
 4777TIP3    H135822   5.085   3.353   4.144  0.7247  1.3566  1.0467
 4777TIP3    H235823   4.974   3.303   4.234  1.7024  1.0478  2.0921
 4778TIP3   OH235824   5.170   0.585   3.570 -0.1168  0.2014  0.7883
 4778TIP3    H135825   5.123   0.528   3.630 -1.1928 -0.2763 -0.4742
 4778TIP3    H235826   5.132   0.672   3.584  0.1022  0.2183  1.2699
 4779TIP3   OH235827   4.603   6.196   5.512 -0.3449  0.1199  0.4686
 4779TIP3    H135828   4.601   6.237   5.599 -2.4686 -1.6775  1.3195
 4779TIP3    H235829   4.531   6.238   5.464 -1.1525 -1.0575  0.6329
 4780TIP3   OH235830   0.547   1.213   2.365  0.1726 -0.2529 -0.1978
 4780TIP3    H135831   0.603   1.245   2.436  0.4185  0.0924 -0.5515
 4780TIP3    H235832   0.520   1.125   2.395  1.5933 -0.7797 -0.4182
 4781TIP3   OH235833   5.360   5.537  15.320  0.2141  0.0497 -0.1614
 4781TIP3    H135834   5.450   5.562  15.340  0.3521 -0.7869  0.2740
 4781TIP3    H235835   5.364   5.503  15.231  0.5924 -1.2936  0.3527
 4782TIP3   OH235836   3.374   2.916   2.144 -0.2684  0.2285  0.2209
 4782TIP3    H135837   3.409   2.937   2.057  0.0192  1.6746  0.6687
 4782TIP3    H235838   3.451   2.895   2.197 -0.4929 -1.2622 -0.0182
 4783TIP3   OH235839   1.900   2.295  12.438 -0.2991 -0.5051  0.1135
 4783TIP3    H135840   1.938   2.380  12.416  0.3624 -0.4559  1.4414
 4783TIP3    H235841   1.824   2.316  12.493 -1.6681 -0.6559 -1.6652
 4784TIP3   OH235842   5.120   3.741   6.494  0.1073  0.1630 -0.1630
 4784TIP3    H135843   5.106   3.652   6.463  2.8203  0.0844 -1.2785
 4784TIP3    H235844   5.184   3.732   6.565  1.0786  1.3004 -0.8809
 4785TIP3   OH235845   0.349   0.714   1.067 -0.0704 -0.7312 -0.8836
 4785TIP3    H135846   0.329   0.802   1.099 -0.5265 -0.6881 -1.2783
 4785TIP3    H235847   0.317   0.655   1.136  1.7312 -0.5454  0.1468
 4786TIP3   OH235848   6.674   4.773   4.279  0.1635 -0.0605  0.0392
 4786TIP3    H135849   6.644   4.857   4.243  0.9767  0.9335  1.6429
 4786TIP3    H235850   6.613   4.709   4.242 -0.3868  1.2118 -1.3168
 4787TIP3   OH235851   3.591   2.119   3.847  0.3146  0.1677  0.2456
 4787TIP3    H135852   3.520   2.158   3.796  0.5059  1.4911  0.9629
 4787TIP3    H235853   3.667   2.122   3.789  0.4665  1.4145  0.4987
 4788TIP3   OH235854   6.235   4.648   4.700  0.0916 -0.4664 -0.3724
 4788TIP3    H135855   6.144   4.627   4.723 -0.2287 -0.9303 -2.0002
 4788TIP3    H235856   6.286   4.579   4.741 -0.1127  0.6425  1.8636
 4789TIP3   OH235857   6.781   2.496  13.637  0.2828 -0.1627  0.1657
 4789TIP3    H135858   6.756   2.404  13.626 -0.2297  0.1189 -0.9977
 4789TIP3    H235859   6.835   2.496  13.716 -2.4383 -0.9434  2.0909
 4790TIP3   OH235860   2.388   1.454  14.025  0.2963 -0.0338  0.1659
 4790TIP3    H135861   2.376   1.451  14.120  0.2388  3.1199  0.3220
 4790TIP3    H235862   2.483   1.450  14.013  0.2707 -1.1197  0.3138
 4791TIP3   OH235863   6.183   0.718  11.959  0.2453  0.4872  0.0766
 4791TIP3    H135864   6.194   0.781  11.888  2.3751 -0.0289 -0.0857
 4791TIP3    H235865   6.267   0.718  12.004 -0.6835 -0.1169  1.8520
 4792TIP3   OH235866   1.906   2.475   2.540  0.4690 -0.4745  0.3798
 4792TIP3    H135867   1.824   2.494   2.495  0.2685 -0.5396  0.7145
 4792TIP3    H235868   1.881   2.463   2.631  0.8024 -0.8681  0.4198
 4793TIP3   OH235869   6.317   4.040   4.489 -0.2567 -0.3437  0.0998
 4793TIP3    H135870   6.313   4.135   4.480  0.9903 -0.3528 -0.6008
 4793TIP3    H235871   6.229   4.010   4.465 -0.7081  0.6424  0.5065
 4794TIP3   OH235872   6.190   2.928  15.355  0.0865  0.2863  0.2183
 4794TIP3    H135873   6.285   2.932  15.357  0.1329 -1.0791  1.6337
 4794TIP3    H235874   6.167   2.931  15.262  1.4699  1.2059 -0.0990
 4795TIP3   OH235875   3.433   1.807  11.618  0.0316  0.3404 -0.7147
 4795TIP3    H135876   3.346   1.779  11.588 -0.1887  0.1594  0.0755
 4795TIP3    H235877   3.418   1.838  11.707  0.3021  2.8529 -1.5123
 4796TIP3   OH235878   6.670   1.504  12.579 -1.0633 -0.3807 -0.2338
 4796TIP3    H135879   6.746   1.506  12.637 -1.6420 -1.6584  0.5934
 4796TIP3    H235880   6.603   1.458  12.629 -1.5630 -1.5169 -1.9070
 4797TIP3   OH235881   4.764   3.827  14.294 -0.1578  0.6350  0.8715
 4797TIP3    H135882   4.756   3.918  14.266 -0.8047  0.4701  0.5253
 4797TIP3    H235883   4.675   3.794  14.297  0.2323 -0.7106 -1.4243
 4798TIP3   OH235884   0.403   2.347   5.676  0.3162  0.4808 -0.4608
 4798TIP3    H135885   0.435   2.438   5.674 -3.9220  2.1201 -0.4055
 4798TIP3    H235886   0.404   2.323   5.768  0.3539  0.9113 -0.3483
 4799TIP3   OH235887   3.448   0.190   2.176  0.2317  0.2100 -0.3641
 4799TIP3    H135888   3.466   0.264   2.234 -0.7260  0.1652  0.0094
 4799TIP3    H235889   3.530   0.140   2.175  0.6057  0.7993  0.0799
 4800TIP3   OH235890   1.195   6.166  15.811  0.4332  0.7193 -0.0132
 4800TIP3    H135891   1.187   6.260  15.826  0.9527  0.8157 -0.3259
 4800TIP3    H235892   1.196   6.157  15.716 -2.2887  0.1579 -0.0253
 4801TIP3   OH235893   4.455   0.900   5.102  0.0138  0.4972  0.2759
 4801TIP3    H135894   4.407   0.819   5.115 -0.8478  1.2206  1.7778
 4801TIP3    H235895   4.450   0.945   5.187  2.1556  1.2266  0.0447
 4802TIP3   OH235896   5.049   2.880  16.899 -0.3368  0.2477 -0.0111
 4802TIP3    H135897   5.005   2.874  16.813  0.1668 -2.0834 -0.1359
 4802TIP3    H235898   4.990   2.834  16.959  0.1699  0.3157  0.5409
 4803TIP3   OH235899   1.960   5.964  14.913  0.6383 -0.7775 -0.0869
 4803TIP3    H135900   2.040   6.016  14.901  1.8393 -2.2715  1.2344
 4803TIP3    H235901   1.938   5.975  15.006  0.2488 -1.6707 -0.0672
 4804TIP3   OH235902   3.590   5.031   3.512  0.1854 -0.0433  0.0844
 4804TIP3    H135903   3.677   4.993   3.504  0.4413  0.2902  1.2617
 4804TIP3    H235904   3.552   4.991   3.590 -0.3772  0.4792  0.0849
 4805TIP3   OH235905   5.082   5.722  12.259 -0.1695 -0.4294 -0.0899
 4805TIP3    H135906   4.991   5.750  12.267 -0.4851 -1.1866 -1.0141
 4805TIP3    H235907   5.086   5.675  12.176  1.0827 -0.3349 -0.0955
 4806TIP3   OH235908   3.992   1.278  14.153 -0.1246  0.0102  0.1445
 4806TIP3    H135909   3.931   1.346  14.124 -1.1206 -0.5803  0.8122
 4806TIP3    H235910   4.079   1.316  14.138 -0.5863 -0.0698 -3.0767
 4807TIP3   OH235911   2.500   3.302   2.893 -0.5583  0.4863 -0.2837
 4807TIP3    H135912   2.562   3.260   2.834 -0.3628  0.7955 -0.3011
 4807TIP3    H235913   2.521   3.395   2.887 -1.5388  0.6756 -0.8996
 4808TIP3   OH235914   6.156   4.988   5.472  0.1048 -0.5152 -0.2258
 4808TIP3    H135915   6.148   5.065   5.416 -1.5135 -0.7489 -0.3256
 4808TIP3    H235916   6.080   4.934   5.451 -0.1596 -0.9317  1.6628
 4809TIP3   OH235917   0.099   0.690   2.614  0.6089 -0.1868  0.5094
 4809TIP3    H135918   0.165   0.635   2.571  0.0901  0.0774 -0.6337
 4809TIP3    H235919   0.063   0.744   2.543  0.9281  1.4415  1.5618
 4810TIP3   OH235920   6.198   6.468   3.807 -0.1341 -0.4211  0.6577
 4810TIP3    H135921   6.110   6.490   3.777  0.6470  1.3554 -0.4101
 4810TIP3    H235922   6.234   6.413   3.737 -0.3818 -1.1808  1.1122
 4811TIP3   OH235923   0.773   5.258   4.857 -0.2594  0.3918 -0.1866
 4811TIP3    H135924   0.701   5.318   4.838  0.2487  1.1656  0.3046
 4811TIP3    H235925   0.849   5.297   4.813 -0.0330 -0.1417 -0.2684
 4812TIP3   OH235926   3.544   6.583  15.405  0.1116  0.1124  0.0735
 4812TIP3    H135927   3.527   6.512  15.343  0.3081 -1.2691  1.5511
 4812TIP3    H235928   3.639   6.583  15.416  0.0343 -0.0216  0.7857
 4813TIP3   OH235929   5.131   4.718  14.052 -0.0699  0.2161  0.5427
 4813TIP3    H135930   5.175   4.799  14.079 -0.5651  1.0607 -1.1067
 4813TIP3    H235931   5.072   4.746  13.982  0.7406 -1.7731 -0.9704
 4814TIP3   OH235932   0.857   0.811  12.947  0.3168  0.4987  0.7583
 4814TIP3    H135933   0.947   0.814  12.981  1.0026  2.2212 -1.0556
 4814TIP3    H235934   0.868   0.809  12.852 -1.5761  0.6802  0.5202
 4815TIP3   OH235935   0.616   5.621  13.156 -0.3841  0.1687 -0.3927
 4815TIP3    H135936   0.643   5.658  13.240  0.0092  1.3190 -1.0163
 4815TIP3    H235937   0.660   5.675  13.090  0.5354 -1.6670 -1.3341
 4816TIP3   OH235938   4.286   4.317  17.194 -0.3938  0.2109 -0.4295
 4816TIP3    H135939   4.348   4.280  17.257  0.5196 -1.7806 -2.4151
 4816TIP3    H235940   4.224   4.367  17.247  0.4597 -1.2488  2.0083
 4817TIP3   OH235941   3.104   0.333  14.065 -0.0556  0.1668 -0.1078
 4817TIP3    H135942   3.113   0.265  14.131 -1.1019  1.3401  1.2624
 4817TIP3    H235943   3.011   0.335  14.044 -0.0083  1.0376 -0.2596
 4818TIP3   OH235944   4.102   2.969  13.644  0.4510 -0.1812 -0.4498
 4818TIP3    H135945   4.102   2.983  13.549 -0.3964  0.4866 -0.3616
 4818TIP3    H235946   4.157   2.892  13.657 -0.4631 -1.0550 -1.6081
 4819TIP3   OH235947   5.371   2.447  13.414  0.2223  0.2796 -0.6796
 4819TIP3    H135948   5.276   2.444  13.417  0.0044  1.4917 -4.3725
 4819TIP3    H235949   5.394   2.531  13.453 -0.4865  1.6422 -3.1027
 4820TIP3   OH235950   1.838   0.973   6.503  0.0074  0.4231  0.3008
 4820TIP3    H135951   1.912   0.995   6.559 -1.2251 -0.8301  2.4504
 4820TIP3    H235952   1.817   0.882   6.524 -1.0332  0.2030 -1.5697
 4821TIP3   OH235953   5.505   0.776  13.186  0.0881  0.3813  0.7394
 4821TIP3    H135954   5.450   0.756  13.261  0.5624 -0.3227  0.9061
 4821TIP3    H235955   5.502   0.696  13.133  0.1595  0.6949  0.2616
 4822TIP3   OH235956   2.047   3.582   4.139 -0.0632  0.2183 -0.4260
 4822TIP3    H135957   1.967   3.634   4.151 -0.9150 -0.9466 -0.9174
 4822TIP3    H235958   2.107   3.614   4.206 -1.8650 -0.6466  1.6545
 4823TIP3   OH235959   2.141   6.673  11.929  0.2025 -0.3437 -0.0973
 4823TIP3    H135960   2.193   6.753  11.939 -2.7967  1.5843  0.7329
 4823TIP3    H235961   2.193   6.619  11.869  2.7280  1.8211  0.0108
 4824TIP3   OH235962   0.380   0.577  15.070  0.1059  0.0030 -0.1935
 4824TIP3    H135963   0.328   0.513  15.119 -1.9127  0.6204 -1.5002
 4824TIP3    H235964   0.459   0.588  15.124 -0.5868 -1.7594  1.2701
 4825TIP3   OH235965   3.638   6.004   1.323  0.2162  0.0328 -0.0750
 4825TIP3    H135966   3.585   5.953   1.263  0.5288  0.2771 -0.5606
 4825TIP3    H235967   3.722   5.958   1.327  0.2432  0.0930  0.0661
 4826TIP3   OH235968   6.481   5.984  15.450 -0.1589  0.2529 -0.1690
 4826TIP3    H135969   6.556   5.964  15.393  0.7164 -0.1386  1.0915
 4826TIP3    H235970   6.405   5.955  15.400  0.9046 -4.9750  0.9796
 4827TIP3   OH235971   3.508   4.372  15.313 -0.0796 -0.0076 -0.1058
 4827TIP3    H135972   3.575   4.341  15.374 -0.1997  1.5607  0.8253
 4827TIP3    H235973   3.526   4.465  15.302 -1.5192  0.2171 -0.6170
 4828TIP3   OH235974   5.350   2.236   2.577  0.1369 -0.0389  0.5987
 4828TIP3    H135975   5.425   2.206   2.526 -2.2023 -1.1784 -2.3422
 4828TIP3    H235976   5.374   2.218   2.668  2.5812 -2.2955 -0.4263
 4829TIP3   OH235977   3.422   6.568  13.337 -0.5025  0.9067 -0.6240
 4829TIP3    H135978   3.499   6.624  13.323  0.8604 -0.7590 -0.0167
 4829TIP3    H235979   3.381   6.603  13.416  1.3102  0.0502  0.7562
 4830TIP3   OH235980   2.408   5.768  11.690  0.0634 -0.3479 -0.7641
 4830TIP3    H135981   2.423   5.741  11.600 -0.7208  0.8275 -1.2600
 4830TIP3    H235982   2.463   5.845  11.702  0.6183 -0.8458 -0.0398
 4831TIP3   OH235983   3.464   4.751   3.864 -0.2236  0.5539  0.1204
 4831TIP3    H135984   3.542   4.803   3.842 -1.0042  2.0931  0.8794
 4831TIP3    H235985   3.477   4.668   3.818  1.2461  1.2770 -0.8326
 4832TIP3   OH235986   2.163   2.444   0.601  0.3333  0.2181 -0.0141
 4832TIP3    H135987   2.130   2.369   0.651  0.2646 -1.4474 -2.4801
 4832TIP3    H235988   2.114   2.442   0.519  0.5379  2.8151 -0.2187
 4833TIP3   OH235989   6.344   1.755   1.660  0.8942 -0.1629 -0.2838
 4833TIP3    H135990   6.277   1.689   1.643  1.3031 -0.2979 -1.4169
 4833TIP3    H235991   6.317   1.831   1.608  2.0158 -0.4870 -1.3744
 4834TIP3   OH235992   4.914   2.858  14.762 -0.4928 -0.8935 -0.0268
 4834TIP3    H135993   4.842   2.802  14.790  0.1940 -2.1274 -0.6734
 4834TIP3    H235994   4.946   2.817  14.681 -0.9475  1.2860 -1.3439
 4835TIP3   OH235995   5.342   5.218  13.576 -0.2097  0.0150 -0.4862
 4835TIP3    H135996   5.407   5.204  13.645  0.4322  3.0643 -0.3906
 4835TIP3    H235997   5.350   5.141  13.520  2.8216 -0.1430  0.0608
 4836TIP3   OH235998   3.224   6.758   1.025 -0.1598  0.3272 -0.2583
 4836TIP3    H135999   3.244   6.699   0.951  0.4277  1.4218 -0.9821
 4836TIP3    H236000   3.264   6.715   1.100 -0.2428 -0.5032 -0.6733
 4837TIP3   OH236001   0.251   6.168   5.929  0.5514  0.7009  0.2587
 4837TIP3    H136002   0.157   6.150   5.928  0.6820 -0.0424  1.0854
 4837TIP3    H236003   0.288   6.107   5.865  0.3929  1.4717 -0.5764
 4838TIP3   OH236004   1.518   6.143   3.319  0.8222  0.2342 -0.5052
 4838TIP3    H136005   1.494   6.122   3.229  0.4464 -0.0122 -0.3476
 4838TIP3    H236006   1.580   6.216   3.311 -1.6648  2.3486 -0.7868
 4839TIP3   OH236007   4.358   6.598  11.587  0.0390 -0.5464 -0.3647
 4839TIP3    H136008   4.382   6.539  11.658 -2.1183 -1.0195 -0.0056
 4839TIP3    H236009   4.263   6.592  11.581 -0.1571  2.2404 -0.8910
 4840TIP3   OH236010   1.038   0.188   2.441  0.2526 -0.2205  0.0829
 4840TIP3    H136011   1.124   0.225   2.421  0.2574 -0.7116 -0.8335
 4840TIP3    H236012   1.057   0.102   2.479  0.1826 -0.1463  0.2848
 4841TIP3   OH236013   4.218   1.003  16.130  0.2850 -0.2545  0.2794
 4841TIP3    H136014   4.291   0.949  16.161  1.8246  0.6293 -1.6855
 4841TIP3    H236015   4.144   0.977  16.185  1.4968 -2.8640  0.7765
 4842TIP3   OH236016   4.446   2.850  10.917 -0.4031  0.9145  0.1933
 4842TIP3    H136017   4.370   2.791  10.914  0.3469 -0.0201 -1.1085
 4842TIP3    H236018   4.510   2.805  10.972 -0.2403  1.0274  0.0977
 4843TIP3   OH236019   1.423   2.424   0.105 -0.5768 -0.5708  0.1565
 4843TIP3    H136020   1.411   2.443   0.012 -0.6371 -0.9630  0.0811
 4843TIP3    H236021   1.462   2.503   0.141 -1.1969 -0.1578 -0.0660
 4844TIP3   OH236022   0.141   1.685  12.568  0.4591 -0.2985  0.2806
 4844TIP3    H136023   0.080   1.759  12.566 -0.5221 -1.1205 -1.4296
 4844TIP3    H236024   0.186   1.688  12.484  2.8045  0.2891  1.5280
 4845TIP3   OH236025   0.067   3.251  12.004 -0.2313  0.3378 -0.2571
 4845TIP3    H136026   0.113   3.184  12.055  0.3817  0.5173 -0.5716
 4845TIP3    H236027   0.137   3.304  11.965 -0.6146 -1.6427 -3.8193
 4846TIP3   OH236028   3.004   5.644  15.022  0.0797  0.3513  0.0047
 4846TIP3    H136029   3.081   5.660  14.966  1.1180  0.1393  1.3340
 4846TIP3    H236030   2.993   5.726  15.069 -0.4073  0.3158 -0.0528
 4847TIP3   OH236031   3.095   0.568   0.291  0.1585 -0.6070  0.2992
 4847TIP3    H136032   3.154   0.625   0.241 -0.2653 -0.4420 -0.0197
 4847TIP3    H236033   3.030   0.540   0.227 -0.1021 -0.7986  0.6485
 4848TIP3   OH236034   2.798   1.482   2.112  0.3078  0.1824 -0.2307
 4848TIP3    H136035   2.710   1.520   2.119  0.3048  0.1102  0.1443
 4848TIP3    H236036   2.845   1.542   2.054  0.0880  0.3601 -0.2284
 4849TIP3   OH236037   6.567   0.922  16.819 -0.4496  0.0862 -0.2702
 4849TIP3    H136038   6.626   0.960  16.884 -1.9718  1.1701  0.5146
 4849TIP3    H236039   6.549   0.993  16.758 -0.9562 -0.2316 -0.4972
 4850TIP3   OH236040   5.464   3.240   1.431  0.3351 -0.1435 -0.6253
 4850TIP3    H136041   5.506   3.325   1.426 -0.8944  0.3886 -2.6208
 4850TIP3    H236042   5.428   3.226   1.343 -0.8112 -2.0109  0.1087
 4851TIP3   OH236043   5.454   3.171  15.247  0.7338  0.3180  0.3534
 4851TIP3    H136044   5.490   3.224  15.318 -0.3717  1.9353 -0.2610
 4851TIP3    H236045   5.360   3.186  15.251  0.4554 -1.2754 -0.1101
 4852TIP3   OH236046   5.148   3.768  15.142  0.1440 -0.0577 -0.3081
 4852TIP3    H136047   5.069   3.790  15.190 -0.2218  0.2357 -1.0370
 4852TIP3    H236048   5.209   3.840  15.162  0.2270 -0.2803  0.2459
 4853TIP3   OH236049   3.227   1.528  13.499  0.1899  0.3861  0.2175
 4853TIP3    H136050   3.175   1.602  13.468  0.4063  0.7904  0.8023
 4853TIP3    H236051   3.166   1.474  13.548  0.3346  0.9163  0.9960
 4854TIP3   OH236052   6.480   2.495  15.575 -0.2581 -0.6294  0.5068
 4854TIP3    H136053   6.465   2.419  15.518  0.2529 -0.0564 -0.3950
 4854TIP3    H236054   6.564   2.477  15.617  1.6441  1.0653 -2.3972
 4855TIP3   OH236055   0.895   3.070   3.294 -0.2753  0.6323 -0.2080
 4855TIP3    H136056   0.856   3.077   3.381  0.3495 -1.9949  0.3265
 4855TIP3    H236057   0.905   3.161   3.265 -2.7799  1.4623  1.4018
 4856TIP3   OH236058   6.399   3.782  15.487 -0.8695 -0.2846 -0.4211
 4856TIP3    H136059   6.391   3.759  15.579 -1.0060 -0.1610 -0.4013
 4856TIP3    H236060   6.317   3.752  15.447 -0.9477 -0.0526 -0.4391
 4857TIP3   OH236061   5.799   6.642  17.084 -0.0519 -0.1666  0.0485
 4857TIP3    H136062   5.815   6.673  17.173  0.4065  0.3551 -0.2112
 4857TIP3    H236063   5.855   6.565  17.075 -0.6790 -0.6777  0.4684
 4858TIP3   OH236064   4.658   6.550   5.864 -0.2483 -0.8700 -0.6151
 4858TIP3    H136065   4.609   6.472   5.840  0.3219 -0.9090 -1.6604
 4858TIP3    H236066   4.698   6.528   5.948  0.1430 -1.7932 -1.0467
 4859TIP3   OH236067   0.290   0.298   3.722 -0.0145 -0.2022 -0.2856
 4859TIP3    H136068   0.221   0.232   3.722 -1.2383  1.0273  0.1597
 4859TIP3    H236069   0.345   0.276   3.797  0.7484 -1.8568 -1.3163
 4860TIP3   OH236070   1.350   5.577   2.470  0.2221  0.0820 -0.1847
 4860TIP3    H136071   1.347   5.558   2.563 -0.9517  1.1790  0.0044
 4860TIP3    H236072   1.317   5.498   2.428 -4.3224  1.4306  0.5815
 4861TIP3   OH236073   0.076   2.459   1.587  0.3664  0.4514 -0.0730
 4861TIP3    H136074   0.101   2.378   1.544  1.0124  0.3831  0.4251
 4861TIP3    H236075   0.055   2.519   1.515 -0.4824 -0.2599 -0.4312
 4862TIP3   OH236076   4.361   1.646   2.606  0.1869 -0.4209  0.5772
 4862TIP3    H136077   4.284   1.596   2.633  0.3100 -0.7500  0.3340
 4862TIP3    H236078   4.335   1.690   2.525  0.5926 -1.3921 -0.0899
 4863TIP3   OH236079   3.005   3.801  16.848  0.0538  0.1397 -0.6241
 4863TIP3    H136080   3.015   3.767  16.937  0.2266  2.0503  0.1220
 4863TIP3    H236081   2.921   3.847  16.850  0.7711  1.4878 -1.0098
 4864TIP3   OH236082   2.760   1.684  10.706 -0.0953 -0.0454 -0.8605
 4864TIP3    H136083   2.808   1.703  10.626  0.9788  2.3421  0.2923
 4864TIP3    H236084   2.704   1.609  10.684  1.1247 -0.2451 -3.4232
 4865TIP3   OH236085   6.296   3.189   5.322  0.1472  0.0002 -0.5139
 4865TIP3    H136086   6.353   3.140   5.261 -0.7705 -0.2509 -1.1906
 4865TIP3    H236087   6.220   3.212   5.269 -1.0356 -0.9189  0.7614
 4866TIP3   OH236088   4.900   3.032   6.291  0.5161  0.1226 -0.4458
 4866TIP3    H136089   4.922   3.121   6.320  2.4820  0.6996 -3.4264
 4866TIP3    H236090   4.838   3.045   6.219  1.8251 -0.8284 -1.7781
 4867TIP3   OH236091   1.233   1.473  16.334  0.4096 -0.4231  0.0928
 4867TIP3    H136092   1.183   1.394  16.352 -1.0834  0.3785 -0.4602
 4867TIP3    H236093   1.307   1.444  16.281 -1.1402 -1.1805 -1.7068
 4868TIP3   OH236094   1.568   1.461  11.918 -0.2016  0.0320 -0.3012
 4868TIP3    H136095   1.483   1.505  11.928  0.7726  2.0202 -0.7019
 4868TIP3    H236096   1.554   1.400  11.845 -0.9583  1.1863 -1.1446
 4869TIP3   OH236097   5.204   3.127  15.318  0.2810  0.4370 -0.0752
 4869TIP3    H136098   5.112   3.150  15.303  0.2679  0.3124 -0.1880
 4869TIP3    H236099   5.200   3.054  15.379  0.4059  2.2630  2.1735
 4870TIP3   OH236100   0.534   1.360   3.685 -0.1066  0.6214  0.4909
 4870TIP3    H136101   0.582   1.410   3.620  1.6260 -0.6365  0.7710
 4870TIP3    H236102   0.597   1.344   3.755 -0.9601 -0.8936  0.9410
 4871TIP3   OH236103   1.131   1.037  16.736  0.1882  0.0682 -0.2758
 4871TIP3    H136104   1.201   1.101  16.731 -1.7269  2.2242 -0.3680
 4871TIP3    H236105   1.081   1.061  16.814 -1.5944 -0.1808 -1.3086
 4872TIP3   OH236106   5.492   4.438  11.897  0.8543 -0.1386 -0.0831
 4872TIP3    H136107   5.575   4.394  11.915  0.6564 -0.6933 -0.4797
 4872TIP3    H236108   5.431   4.366  11.877  0.5331  0.3175 -0.7740
 4873TIP3   OH236109   2.369   2.279   3.755 -0.3296 -0.0794  0.0361
 4873TIP3    H136110   2.320   2.349   3.711  0.9984  1.0066  0.2582
 4873TIP3    H236111   2.459   2.312   3.759  0.5792 -2.3574 -1.0447
 4874TIP3   OH236112   6.170   0.530  14.277  0.4378  0.2123 -0.4955
 4874TIP3    H136113   6.143   0.533  14.369 -0.2868  0.0404 -0.6993
 4874TIP3    H236114   6.093   0.558  14.228  0.6016 -0.3447 -1.0929
 4875TIP3   OH236115   1.096   3.874  14.153 -0.0719  0.2383  0.3041
 4875TIP3    H136116   1.003   3.874  14.129  0.1247  1.7190 -0.5072
 4875TIP3    H236117   1.115   3.783  14.176 -1.4358 -0.2902 -0.6162
 4876TIP3   OH236118   4.648   4.417   0.100 -0.9031 -0.4288 -0.0816
 4876TIP3    H136119   4.699   4.376   0.170 -0.8508  1.5453  1.0742
 4876TIP3    H236120   4.707   4.481   0.061 -1.3954 -0.5288 -1.0174
 4877TIP3   OH236121   4.033   6.264  13.490  0.4375  0.1675  0.2432
 4877TIP3    H136122   3.977   6.254  13.413 -0.2463  0.8917  0.6384
 4877TIP3    H236123   3.985   6.219  13.560  0.3079  0.8481  0.5968
 4878TIP3   OH236124   3.301   5.628  12.278  0.0231  0.0861  0.1932
 4878TIP3    H136125   3.265   5.586  12.200  2.1300 -1.4747  0.0184
 4878TIP3    H236126   3.231   5.626  12.342 -1.3528  0.3315 -1.2894
 4879TIP3   OH236127   4.010   3.438  14.872 -0.0780 -0.0784 -0.1282
 4879TIP3    H136128   3.980   3.348  14.858 -1.4222  0.2779  0.3529
 4879TIP3    H236129   3.951   3.472  14.940  1.5768  0.5797  1.0202
 4880TIP3   OH236130   4.636   1.123   3.936 -0.0895 -0.4447  0.5326
 4880TIP3    H136131   4.694   1.061   3.980  0.2141  1.0210  2.2607
 4880TIP3    H236132   4.559   1.071   3.912  0.8177 -1.8209  0.5587
 4881TIP3   OH236133   3.186   0.505   1.610  0.0829 -0.8114  0.1515
 4881TIP3    H136134   3.254   0.568   1.584 -1.5730  0.7501 -0.4516
 4881TIP3    H236135   3.161   0.462   1.528  0.3002 -1.3738  0.3733
 4882TIP3   OH236136   2.313   5.762  15.509 -0.4099 -0.0554  0.8051
 4882TIP3    H136137   2.238   5.762  15.450  0.6278  1.0529 -0.5568
 4882TIP3    H236138   2.347   5.672  15.505 -1.1177 -0.3216  0.7177
 4883TIP3   OH236139   6.601   6.509   1.397 -0.0990  0.0854 -0.3435
 4883TIP3    H136140   6.508   6.518   1.378 -0.4498  0.6912  1.5126
 4883TIP3    H236141   6.617   6.574   1.466  0.9908 -2.1983  1.6482
 4884TIP3   OH236142   2.731   3.428  13.027  0.0705 -0.0139  0.2223
 4884TIP3    H136143   2.679   3.470  12.959  1.0987  2.0360  0.6833
 4884TIP3    H236144   2.673   3.359  13.061 -2.9829  3.1825  1.8118
 4885TIP3   OH236145   6.230   0.074   2.282 -0.2557 -0.3924 -0.3689
 4885TIP3    H136146   6.323   0.053   2.284 -1.1625 -4.7951  1.7956
 4885TIP3    H236147   6.213   0.116   2.367 -0.4008 -0.4413 -0.3737
 4886TIP3   OH236148   3.000   3.122  12.065 -0.2453 -0.2540  0.1567
 4886TIP3    H136149   3.073   3.168  12.024  0.4591 -0.6928  0.9001
 4886TIP3    H236150   2.926   3.182  12.056  1.2637  2.2705  3.4833
 4887TIP3   OH236151   6.794   6.557  15.027 -0.2258 -0.3739 -0.3033
 4887TIP3    H136152   6.770   6.602  14.946 -0.3204 -0.8545 -0.5477
 4887TIP3    H236153   6.794   6.464  15.004 -0.1208 -0.5076  0.2156
 4888TIP3   OH236154   3.573   4.151   2.791 -0.2377 -0.5574 -0.0830
 4888TIP3    H136155   3.584   4.241   2.759 -2.8782 -0.5844 -1.1872
 4888TIP3    H236156   3.531   4.161   2.877  0.0269 -0.7262  0.0672
 4889TIP3   OH236157   5.415   6.538  11.821  0.2197  0.0128 -0.7100
 4889TIP3    H136158   5.505   6.538  11.854  0.3141  3.4493 -0.8195
 4889TIP3    H236159   5.425   6.519  11.727  0.6252 -1.7479 -0.3230
 4890TIP3   OH236160   6.636   6.751   5.246  0.1051  0.2052  0.3598
 4890TIP3    H136161   6.707   6.810   5.272  0.7343  0.0039 -0.8666
 4890TIP3    H236162   6.629   6.762   5.152 -1.8947  0.6413  0.5416
 4891TIP3   OH236163   6.772   1.633  13.046 -0.1788  0.3075  0.0812
 4891TIP3    H136164   6.795   1.610  13.136 -2.7950  0.2579  0.7649
 4891TIP3    H236165   6.732   1.720  13.053  0.6103  0.7859 -1.1981
 4892TIP3   OH236166   0.073   5.898  13.434 -0.0207  0.1260  0.7591
 4892TIP3    H136167   0.075   5.873  13.342 -1.0546 -0.7014  0.9471
 4892TIP3    H236168   0.141   5.965  13.443  1.8731 -1.6422 -0.0562
 4893TIP3   OH236169   3.420   4.003  16.129  0.2591  0.0179  0.1629
 4893TIP3    H136170   3.459   4.051  16.056  1.6933 -1.1381  0.1421
 4893TIP3    H236171   3.372   3.930  16.087  0.4146 -0.1814  0.3318
 4894TIP3   OH236172   5.425   2.562   5.495 -0.3301 -0.1588 -0.7403
 4894TIP3    H136173   5.399   2.492   5.555  0.6895 -0.5786 -0.7754
 4894TIP3    H236174   5.443   2.636   5.552 -0.1766 -0.3065 -0.5951
 4895TIP3   OH236175   5.890   3.662  12.282 -0.3781 -0.8033  0.5802
 4895TIP3    H136176   5.885   3.643  12.376 -1.1281 -0.6338  0.5789
 4895TIP3    H236177   5.917   3.579  12.242 -1.4457 -1.2731  0.8066
 4896TIP3   OH236178   1.322   2.967   1.121 -0.9583  0.2145 -0.1043
 4896TIP3    H136179   1.380   2.893   1.105  1.6322  2.3776 -1.0371
 4896TIP3    H236180   1.305   2.964   1.216 -1.2066 -1.7331 -0.1857
 4897TIP3   OH236181   3.298   2.162  11.656  0.8038 -0.1130  0.2996
 4897TIP3    H136182   3.233   2.121  11.600  0.3248 -0.0178  0.7909
 4897TIP3    H236183   3.275   2.255  11.657  1.4407  0.0576 -0.1998
 4898TIP3   OH236184   2.987   1.690  11.885 -0.6125 -0.2818 -0.2553
 4898TIP3    H136185   2.951   1.702  11.973  0.1763 -1.7372  0.2880
 4898TIP3    H236186   2.927   1.737  11.827 -0.7858  1.2293  1.1303
 4899TIP3   OH236187   0.069   0.673  11.997 -0.0592  0.1825  0.3152
 4899TIP3    H136188   0.012   0.601  11.971 -0.1028  0.6006 -0.7998
 4899TIP3    H236189   0.093   0.715  11.914 -0.3591  1.6855  0.9764
 4900TIP3   OH236190   3.460   1.779  13.618 -0.1960  0.3859 -0.0634
 4900TIP3    H136191   3.503   1.756  13.535 -1.4346  0.4633 -0.7428
 4900TIP3    H236192   3.431   1.696  13.654  1.2549  0.2417  0.8304
 4901TIP3   OH236193   6.580   5.958   6.333 -0.2031  0.0288 -0.0452
 4901TIP3    H136194   6.626   5.968   6.249 -0.6849  0.4164 -0.2631
 4901TIP3    H236195   6.527   5.879   6.321  0.0463 -0.1537  0.0429
 4902TIP3   OH236196   1.464   1.036  13.453  0.1694 -0.7989 -0.1684
 4902TIP3    H136197   1.372   1.056  13.441  0.2266  0.7264  1.6185
 4902TIP3    H236198   1.476   1.034  13.548  1.9920 -0.8722 -0.3688
 4903TIP3   OH236199   2.062   0.299  14.768  0.1050 -0.0378  0.3899
 4903TIP3    H136200   2.027   0.248  14.695  0.2876  0.4245 -0.0237
 4903TIP3    H236201   1.994   0.295  14.835 -1.4398  2.1186 -0.9651
 4904TIP3   OH236202   0.155   1.910   4.852 -0.1372  0.4864 -0.7288
 4904TIP3    H136203   0.098   1.913   4.776 -0.5728 -1.6927 -0.5053
 4904TIP3    H236204   0.106   1.955   4.921 -0.5216  0.8211 -1.2227
 4905TIP3   OH236205   1.634   0.558  14.679  0.0594 -0.5580  0.1411
 4905TIP3    H136206   1.543   0.584  14.666  0.4522  0.0184 -1.5259
 4905TIP3    H236207   1.633   0.462  14.672 -0.2185 -0.4637 -1.3164
 4906TIP3   OH236208   3.468   1.936  14.542 -0.5445  0.0203 -0.1946
 4906TIP3    H136209   3.560   1.936  14.567 -0.6277 -1.4339  0.1712
 4906TIP3    H236210   3.435   2.020  14.573  0.6152  0.4859 -0.1902
 4907TIP3   OH236211   0.844   2.946  13.061 -0.2412  0.1137 -0.4703
 4907TIP3    H136212   0.817   3.037  13.069  0.8915  0.7522 -3.2209
 4907TIP3    H236213   0.903   2.932  13.135 -0.4006  1.6230 -0.0394
 4908TIP3   OH236214   4.539   0.873  11.811 -0.0650 -0.1428 -0.4472
 4908TIP3    H136215   4.507   0.793  11.852  0.6063 -0.0441  0.2853
 4908TIP3    H236216   4.555   0.933  11.884 -0.7347  0.7264 -1.0054
 4909TIP3   OH236217   2.698   3.481   3.791  0.0258  0.3853  0.1321
 4909TIP3    H136218   2.771   3.518   3.742  2.6929 -0.7987  3.0520
 4909TIP3    H236219   2.680   3.545   3.860 -1.9145  0.7908 -0.7175
 4910TIP3   OH236220   2.813   2.965   3.942  0.1296 -0.0516 -0.7669
 4910TIP3    H136221   2.820   2.996   3.852  0.7135  0.4119 -0.5672
 4910TIP3    H236222   2.801   3.045   3.994 -1.1677 -0.3926 -0.5272
 4911TIP3   OH236223   1.412   0.061   5.670 -0.4674 -0.2750 -0.3413
 4911TIP3    H136224   1.470  -0.014   5.682  1.3009  0.7700 -2.0840
 4911TIP3    H236225   1.399   0.066   5.576 -0.4406  1.6802 -0.2579
 4912TIP3   OH236226   4.719   1.917  11.010 -0.4443 -0.1745 -0.2689
 4912TIP3    H136227   4.710   2.009  10.984  1.6542  0.2642  0.4688
 4912TIP3    H236228   4.649   1.872  10.962 -1.5159  1.7937 -0.6352
 4913TIP3   OH236229   2.104   2.340   1.113 -0.1668 -0.3342  0.2223
 4913TIP3    H136230   2.067   2.428   1.119  1.1853  0.1305  2.5587
 4913TIP3    H236231   2.059   2.290   1.181 -0.7040 -1.3767 -0.8803
 4914TIP3   OH236232   0.579   2.017   5.974  0.2272  0.1472  0.3859
 4914TIP3    H136233   0.502   2.004   5.919  0.4474 -0.1937  0.1587
 4914TIP3    H236234   0.554   2.087   6.034 -0.0232  0.5040 -0.1335
 4915TIP3   OH236235   4.920   2.836  16.660  0.2797 -0.7178 -0.1218
 4915TIP3    H136236   4.884   2.750  16.636 -4.5174  1.4611 -1.4070
 4915TIP3    H236237   4.969   2.864  16.582 -2.5720 -0.1362 -1.7893
 4916TIP3   OH236238   0.801   5.556  11.293  0.6577  0.4442 -0.1212
 4916TIP3    H136239   0.834   5.646  11.293 -1.9126  1.4214  1.2290
 4916TIP3    H236240   0.707   5.565  11.277  0.3592 -1.9974  0.1784
 4917TIP3   OH236241   6.366   4.039   2.620 -0.4250 -0.2726 -0.1487
 4917TIP3    H136242   6.292   3.993   2.661 -1.3028  1.2883  0.0681
 4917TIP3    H236243   6.384   3.990   2.540 -2.1686 -0.2749 -0.5648
 4918TIP3   OH236244   5.185   6.557   1.882 -0.4183  0.5458 -0.0816
 4918TIP3    H136245   5.185   6.605   1.964  0.4625 -0.9097  0.7834
 4918TIP3    H236246   5.172   6.465   1.907  4.3548 -0.5539 -1.1241
 4919TIP3   OH236247   2.599   2.205   4.145 -0.1470 -0.5337  0.1988
 4919TIP3    H136248   2.513   2.183   4.111 -0.9585 -3.0039  3.5550
 4919TIP3    H236249   2.604   2.159   4.229  4.9153 -1.4610 -0.4399
 4920TIP3   OH236250   0.701   0.528  11.556  0.3907 -0.4583  0.1829
 4920TIP3    H136251   0.792   0.534  11.525  0.4927  1.2731  0.7374
 4920TIP3    H236252   0.709   0.498  11.646  0.4145 -0.3020  0.2330
 4921TIP3   OH236253   4.611   0.248  13.987 -0.3297  0.9010 -0.0152
 4921TIP3    H136254   4.576   0.214  14.069 -0.8117  0.8018 -0.2636
 4921TIP3    H236255   4.705   0.232  13.993 -0.4295  0.4216  0.2937
 4922TIP3   OH236256   3.363   1.909   1.886 -0.3609  0.3697  0.6222
 4922TIP3    H136257   3.436   1.903   1.825 -0.4913 -0.5690  0.5498
 4922TIP3    H236258   3.370   1.997   1.924  0.6012  0.4056  0.3648
 4923TIP3   OH236259   0.577   0.576   2.789 -0.0384 -0.0554  0.0023
 4923TIP3    H136260   0.513   0.536   2.730  0.3404 -1.8623  0.7813
 4923TIP3    H236261   0.578   0.519   2.866  1.2275  0.9282  0.7436
 4924TIP3   OH236262   2.036   3.398  11.776 -0.0537 -0.8189  0.2856
 4924TIP3    H136263   1.986   3.451  11.838  0.7683 -0.8737  1.0077
 4924TIP3    H236264   2.074   3.462  11.715 -1.7130 -0.8492 -0.8002
 4925TIP3   OH236265   2.939   3.601   3.676  0.0771 -0.5903 -0.1797
 4925TIP3    H136266   2.893   3.668   3.626  0.3464 -0.4212 -0.2016
 4925TIP3    H236267   3.000   3.562   3.614 -0.3489 -1.1207 -0.2705
 4926TIP3   OH236268   6.546   4.644  13.315  0.2290  0.3767  0.2512
 4926TIP3    H136269   6.453   4.634  13.294  0.4068 -0.5030 -0.1456
 4926TIP3    H236270   6.549   4.719  13.374 -0.7775  0.1698  0.5830
 4927TIP3   OH236271   1.496   0.732  15.515  0.1585  0.0023  0.7608
 4927TIP3    H136272   1.436   0.782  15.460  2.2102  0.5931 -1.0489
 4927TIP3    H236273   1.458   0.735  15.602 -2.1715  0.7370 -0.2404
 4928TIP3   OH236274   6.052   0.079  15.925  0.1367  0.1887 -0.6817
 4928TIP3    H136275   6.026   0.066  15.834  0.5970 -0.1977 -0.7606
 4928TIP3    H236276   5.971   0.104  15.970  0.0035  0.8815 -1.2879
 4929TIP3   OH236277   0.604   0.592   0.796  0.4477 -0.7670  0.3504
 4929TIP3    H136278   0.547   0.669   0.790 -0.1011 -1.0665  1.4725
 4929TIP3    H236279   0.692   0.629   0.813  0.2954 -0.3629  0.2705
 4930TIP3   OH236280   6.639   0.399   0.226  0.5551 -0.3760  0.3866
 4930TIP3    H136281   6.711   0.406   0.163  0.4097 -2.8108 -0.1115
 4930TIP3    H236282   6.583   0.474   0.206  1.4481 -0.1013 -1.1929
 4931TIP3   OH236283   0.047   0.391  16.203  0.2209 -0.8828  0.5953
 4931TIP3    H136284   0.086   0.478  16.195 -1.6291  0.1327  2.1486
 4931TIP3    H236285   0.119   0.331  16.183  1.8617  0.9665  0.7265
 4932TIP3   OH236286   0.678   4.106  15.572 -0.4948 -0.6164 -0.4585
 4932TIP3    H136287   0.645   4.072  15.656 -2.3973  1.1135 -0.4413
 4932TIP3    H236288   0.727   4.184  15.596 -1.1254 -0.0627 -0.9431
 4933TIP3   OH236289   6.714   2.459  15.329 -0.2324 -0.1890 -0.5831
 4933TIP3    H136290   6.777   2.452  15.401 -0.0244  2.3544 -0.4817
 4933TIP3    H236291   6.640   2.404  15.356 -0.3498  1.0652  1.8054
 4934TIP3   OH236292   0.212   3.043   4.559 -0.1789 -0.2582  0.2043
 4934TIP3    H136293   0.257   2.960   4.575  1.2195  0.1774 -1.3627
 4934TIP3    H236294   0.256   3.081   4.483 -3.2231  0.1875 -1.4230
 4935TIP3   OH236295   1.526   1.964   3.862  0.2623  0.3073  0.1104
 4935TIP3    H136296   1.530   1.869   3.870 -0.6721  0.1761 -0.8282
 4935TIP3    H236297   1.501   1.995   3.949 -0.6337 -0.3890  0.1011
 4936TIP3   OH236298   5.155   1.859  14.129  0.0441 -0.2885  0.1700
 4936TIP3    H136299   5.060   1.852  14.125 -0.1372 -0.5976  3.4757
 4936TIP3    H236300   5.187   1.771  14.108 -0.4004 -0.2638 -0.6248
 4937TIP3   OH236301   6.170   0.809   1.290 -0.2931 -0.0772  0.0868
 4937TIP3    H136302   6.252   0.809   1.241  1.4613  4.4566  2.7308
 4937TIP3    H236303   6.190   0.758   1.369 -1.2498 -2.0751 -0.8967
 4938TIP3   OH236304   2.244   2.268  15.569 -0.1588 -0.5370  0.0583
 4938TIP3    H136305   2.311   2.241  15.632 -0.9766  0.7626  1.5090
 4938TIP3    H236306   2.276   2.351  15.534  0.1911 -1.1524 -1.1096
 4939TIP3   OH236307   5.589   2.982  15.433 -0.5945  0.0795  0.0324
 4939TIP3    H136308   5.588   3.013  15.343  0.4334 -1.2851 -0.4533
 4939TIP3    H236309   5.539   2.900  15.432 -0.6236  0.0792  0.7099
 4940TIP3   OH236310   3.414   6.531   4.676  1.1773  0.6236 -0.3293
 4940TIP3    H136311   3.340   6.555   4.732  1.0722 -1.4016  0.4487
 4940TIP3    H236312   3.400   6.581   4.595 -1.2676 -0.0117 -0.3336
 4941TIP3   OH236313   2.155   1.022  12.922  0.1272 -0.0623  0.0127
 4941TIP3    H136314   2.160   1.048  12.830  1.7832  0.6464  0.2795
 4941TIP3    H236315   2.070   1.055  12.952 -1.3979 -2.1946 -1.8124
 4942TIP3   OH236316   4.690   3.541  15.157  0.0011 -0.0852  0.4614
 4942TIP3    H136317   4.613   3.597  15.144  0.7354  0.5383 -1.3531
 4942TIP3    H236318   4.670   3.461  15.108  0.9962  0.5626 -1.0383
 4943TIP3   OH236319   4.617   1.869   4.935  0.0523 -0.0083 -0.4827
 4943TIP3    H136320   4.616   1.944   4.994  2.4607  0.5263 -1.0863
 4943TIP3    H236321   4.674   1.805   4.978 -0.6765 -0.8640 -0.7527
 4944TIP3   OH236322   3.940   2.251   3.213  0.2667 -0.4380 -0.2451
 4944TIP3    H136323   3.929   2.237   3.118  1.1245 -1.6669 -0.1747
 4944TIP3    H236324   3.912   2.168   3.252 -0.8090  0.3328  0.6315
 4945TIP3   OH236325   4.958   0.587  16.347  0.1468 -0.2337  0.4372
 4945TIP3    H136326   4.879   0.534  16.335 -1.1367  1.8610 -0.6273
 4945TIP3    H236327   4.964   0.600  16.442  0.9486 -2.8978  0.8116
 4946TIP3   OH236328   4.764   6.815  14.900  0.3588 -0.3029  0.1404
 4946TIP3    H136329   4.711   6.737  14.880  0.9353 -0.3864 -1.1103
 4946TIP3    H236330   4.707   6.869  14.955  0.0959 -1.7877  1.3569
 4947TIP3   OH236331   3.484   1.913   0.185 -0.6306  0.5775  0.1561
 4947TIP3    H136332   3.514   1.981   0.245 -3.6974  2.5251 -0.4087
 4947TIP3    H236333   3.413   1.869   0.232 -0.7036 -0.2138 -0.6854
 4948TIP3   OH236334   1.588   3.927  14.771  0.1204  0.0695  0.5712
 4948TIP3    H136335   1.543   3.967  14.696 -1.5991 -1.0388  0.9863
 4948TIP3    H236336   1.642   3.997  14.807  0.2702  0.8677 -1.1668
 4949TIP3   OH236337   4.610   4.421   5.001 -0.0899 -0.1294  0.2119
 4949TIP3    H136338   4.692   4.452   5.039  0.7660 -1.2650 -0.6699
 4949TIP3    H236339   4.612   4.326   5.013 -1.4616 -0.1447  0.5112
 4950TIP3   OH236340   1.038   4.486   1.990 -0.0354 -0.2652  0.6097
 4950TIP3    H136341   1.125   4.471   2.026 -0.5159 -1.1991  1.4240
 4950TIP3    H236342   1.042   4.450   1.902  0.7584  0.7981  0.2122
 4951TIP3   OH236343   2.168   0.182   4.134 -0.0201  0.2305  0.1218
 4951TIP3    H136344   2.125   0.224   4.060  2.9415  2.6950 -0.2791
 4951TIP3    H236345   2.138   0.231   4.210 -1.4185 -0.9678  0.3697
 4952TIP3   OH236346   5.006   1.708   0.730  0.5337 -0.3326  0.4746
 4952TIP3    H136347   5.083   1.726   0.676  0.8244 -0.8626  0.7011
 4952TIP3    H236348   4.940   1.677   0.669  0.8909 -1.0214  0.4233
 4953TIP3   OH236349   1.558   6.155  13.708 -0.3098 -0.0863 -0.2788
 4953TIP3    H136350   1.631   6.213  13.687 -0.6377  0.7095  0.7253
 4953TIP3    H236351   1.578   6.122  13.796  0.9077 -3.1383 -1.6303
 4954TIP3   OH236352   6.249   1.252  16.732 -0.2484  0.0739 -0.1553
 4954TIP3    H136353   6.181   1.264  16.798 -1.0252  2.3029 -1.3154
 4954TIP3    H236354   6.330   1.281  16.774 -0.6127  0.7641  0.0780
 4955TIP3   OH236355   2.345   4.953   3.875  0.7091  0.1652 -0.2302
 4955TIP3    H136356   2.367   5.000   3.794  1.9027  1.5087  0.8385
 4955TIP3    H236357   2.296   5.016   3.927  0.3721 -0.5246  0.3036
 4956TIP3   OH236358   4.144   2.783  12.266  0.4632  0.3203 -0.1848
 4956TIP3    H136359   4.087   2.802  12.191  0.8485 -0.2929 -0.6326
 4956TIP3    H236360   4.083   2.773  12.339  0.0580  0.5528 -0.4830
 4957TIP3   OH236361   5.997   2.748  13.142  0.8271 -0.4191  0.3866
 4957TIP3    H136362   5.921   2.805  13.129  0.9496 -0.3315  0.0536
 4957TIP3    H236363   5.963   2.676  13.195  0.3744 -0.6649 -0.2286
 4958TIP3   OH236364   0.719   2.395  11.370  0.6463  0.1306 -0.2711
 4958TIP3    H136365   0.681   2.324  11.423  0.7157  0.4042  0.1454
 4958TIP3    H236366   0.662   2.400  11.293  0.0318  0.3176  0.1937
 4959TIP3   OH236367   3.560   0.244   3.314  0.5696 -0.1589 -0.0577
 4959TIP3    H136368   3.565   0.242   3.219  1.0817 -0.6750 -0.0202
 4959TIP3    H236369   3.517   0.162   3.338 -0.6993  0.5351  0.0884
 4960TIP3   OH236370   3.095   2.979  13.590 -0.2884  0.1722 -0.4478
 4960TIP3    H136371   3.012   2.933  13.609 -0.7923  1.5610  0.8052
 4960TIP3    H236372   3.117   2.952  13.501 -2.2163 -0.0491 -0.8844
 4961TIP3   OH236373   3.562   3.329   4.175  0.5131 -0.6086 -0.1377
 4961TIP3    H136374   3.577   3.252   4.121 -0.1977 -1.7363  1.2486
 4961TIP3    H236375   3.629   3.324   4.244  1.2587  0.6906 -0.7378
 4962TIP3   OH236376   2.990   3.477   2.319  0.3183 -0.4321 -0.4769
 4962TIP3    H136377   3.027   3.498   2.405 -0.0466 -0.4920 -0.3067
 4962TIP3    H236378   3.032   3.395   2.294 -0.2769 -0.9091  0.0671
 4963TIP3   OH236379   4.069   6.593   2.047  0.0805 -0.1894  0.4408
 4963TIP3    H136380   4.140   6.644   2.008 -0.1059 -1.8552 -2.1748
 4963TIP3    H236381   4.102   6.503   2.049 -1.2678 -0.6873  0.9541
 4964TIP3   OH236382   5.363   1.309  15.299 -0.3875  0.1589  0.2385
 4964TIP3    H136383   5.282   1.344  15.336  0.4927  0.4375  1.8990
 4964TIP3    H236384   5.433   1.346  15.352  0.8459 -0.1799 -1.1085
 4965TIP3   OH236385   3.679   5.015   2.768  0.3509 -0.0373 -0.2930
 4965TIP3    H136386   3.608   4.964   2.807 -0.4547  0.8536 -0.5971
 4965TIP3    H236387   3.638   5.067   2.700  1.3760  0.1509 -0.7865
 4966TIP3   OH236388   1.707   6.192  17.073  0.0727 -0.0296  0.3008
 4966TIP3    H136389   1.682   6.241  17.151 -0.7339  2.8332 -1.7039
 4966TIP3    H236390   1.630   6.138  17.053 -0.9489  1.6293 -0.3362
 4967TIP3   OH236391   2.581   5.394   5.165 -0.3766 -0.0646 -0.1038
 4967TIP3    H136392   2.534   5.472   5.193 -1.5986 -0.3269 -1.3704
 4967TIP3    H236393   2.608   5.351   5.246 -0.8768  0.9453  0.6083
 4968TIP3   OH236394   6.437   1.673   4.465  0.1626  0.0070 -0.0551
 4968TIP3    H136395   6.456   1.765   4.445  1.3372 -0.6435 -2.0378
 4968TIP3    H236396   6.519   1.640   4.503  1.0553 -1.1959 -2.9098
 4969TIP3   OH236397   0.001   6.482  13.656 -0.0619 -0.0525  0.2348
 4969TIP3    H136398  -0.000   6.476  13.751  0.3851  2.2746  0.4232
 4969TIP3    H236399   0.087   6.518  13.635 -0.9009  1.3561 -0.8982
 4970TIP3   OH236400   1.786   1.250   1.841  0.4233  0.2151 -0.1716
 4970TIP3    H136401   1.748   1.174   1.797 -0.2918  0.1266  0.5917
 4970TIP3    H236402   1.880   1.240   1.830  0.2779 -0.1926 -1.0448
 4971TIP3   OH236403   6.000   6.123   5.850  0.4203 -0.1060 -0.3448
 4971TIP3    H136404   6.064   6.052   5.841  1.4055  0.6759  0.3664
 4971TIP3    H236405   5.951   6.121   5.768  1.3174 -0.7595 -0.8845
 4972TIP3   OH236406   5.711   2.599  13.675  0.2579 -0.1573  0.4985
 4972TIP3    H136407   5.616   2.589  13.681  0.0173  2.3457  1.3567
 4972TIP3    H236408   5.726   2.625  13.585  0.0301  0.2157  0.5640
 4973TIP3   OH236409   0.839   4.973  14.138 -0.9996 -0.0672 -0.5665
 4973TIP3    H136410   0.880   5.038  14.081  0.7129 -0.4437  0.1873
 4973TIP3    H236411   0.806   5.023  14.212 -0.7694  0.0940 -0.5736
 4974TIP3   OH236412   4.187   3.040  12.437 -0.1856  0.1908 -0.4126
 4974TIP3    H136413   4.233   3.011  12.359 -2.1679  0.7372 -1.8390
 4974TIP3    H236414   4.168   3.132  12.421 -2.4077 -0.2041 -0.2165
 4975TIP3   OH236415   4.501   3.094   2.110 -0.1891 -0.1642 -0.5802
 4975TIP3    H136416   4.590   3.071   2.133 -0.2636  0.7867  0.7043
 4975TIP3    H236417   4.498   3.190   2.116 -1.2197 -0.1616 -0.8716
 4976TIP3   OH236418   1.489   4.826  10.407 -0.3756  0.2941 -0.1642
 4976TIP3    H136419   1.445   4.906  10.378  0.5866  0.4272 -1.2902
 4976TIP3    H236420   1.576   4.830  10.366 -0.1743 -1.1314  0.0970
 4977TIP3   OH236421   2.085   6.347  15.211  0.2953  0.3221 -0.5306
 4977TIP3    H136422   2.099   6.317  15.301  1.7894 -0.9381 -1.1425
 4977TIP3    H236423   2.053   6.436  15.220  3.1933  1.2786  1.2363
 4978TIP3   OH236424   5.766   6.365  12.945  0.2914  0.3989 -0.4234
 4978TIP3    H136425   5.821   6.287  12.937 -0.2083  0.1827 -1.9014
 4978TIP3    H236426   5.690   6.335  12.995  0.3987  0.0877 -0.4450
 4979TIP3   OH236427   5.966   4.435  12.327 -0.3131 -0.6326 -0.1987
 4979TIP3    H136428   5.936   4.348  12.303 -0.3349 -0.8141  0.4647
 4979TIP3    H236429   6.045   4.419  12.379 -0.6691 -0.2915  0.4505
 4980TIP3   OH236430   6.112   2.262   2.564 -0.2489 -0.3599 -0.0702
 4980TIP3    H136431   6.170   2.199   2.522  2.2751  0.4281  2.1253
 4980TIP3    H236432   6.075   2.214   2.638 -0.6504 -0.1699 -0.1477
 4981TIP3   OH236433   4.818   6.371   6.372  0.6449  0.0610  0.4894
 4981TIP3    H136434   4.895   6.331   6.331  0.1367  2.3608 -2.8755
 4981TIP3    H236435   4.748   6.308   6.358  1.3059 -0.8949  1.3338
 4982TIP3   OH236436   4.629   0.724   2.684 -0.2741 -0.2180 -0.1933
 4982TIP3    H136437   4.672   0.722   2.599  0.4994 -0.1867  0.1892
 4982TIP3    H236438   4.616   0.632   2.706 -0.5460 -0.2236 -0.3864
 4983TIP3   OH236439   5.600   5.640   4.002 -0.2450  0.3484 -0.1111
 4983TIP3    H136440   5.594   5.711   3.939 -2.5947  0.4636  0.2109
 4983TIP3    H236441   5.549   5.569   3.964 -2.2853  0.6681  1.9466
 4984TIP3   OH236442   3.392   6.189   1.651  0.1417  0.0431 -0.0605
 4984TIP3    H136443   3.381   6.258   1.716  0.9313 -0.1093  0.2352
 4984TIP3    H236444   3.479   6.153   1.667  0.1818 -0.2770 -0.9304
 4985TIP3   OH236445   0.614   1.720   5.922  0.2213  0.0114 -0.1248
 4985TIP3    H136446   0.530   1.685   5.951 -0.0790 -0.1321 -1.1569
 4985TIP3    H236447   0.606   1.815   5.936 -0.1707  0.0160 -0.3907
 4986TIP3   OH236448   6.490   2.938  12.366  0.2372  0.2910  0.1952
 4986TIP3    H136449   6.503   2.918  12.273  0.8155 -1.2915  0.6045
 4986TIP3    H236450   6.516   3.030  12.374 -0.5089  0.6614 -1.3374
 4987TIP3   OH236451   5.188   1.446   4.790 -0.1728  0.1269 -0.3850
 4987TIP3    H136452   5.185   1.439   4.885  0.0529  0.9829 -0.3093
 4987TIP3    H236453   5.155   1.361   4.758 -1.5081  0.3308  0.4382
 4988TIP3   OH236454   4.088   1.425   6.682  0.5699  0.0437 -0.0116
 4988TIP3    H136455   4.177   1.454   6.699  0.5878  1.5573 -2.3190
 4988TIP3    H236456   4.050   1.496   6.630 -1.3499 -1.4236 -0.6766
 4989TIP3   OH236457   5.099   4.337   1.785 -0.6422  0.2700  0.2941
 4989TIP3    H136458   5.123   4.415   1.834  1.1654 -0.9253  1.3568
 4989TIP3    H236459   5.182   4.300   1.754 -1.4099 -1.5232  0.2757
 4990TIP3   OH236460   4.672   6.466  16.421  0.0556 -0.1188 -0.0532
 4990TIP3    H136461   4.655   6.554  16.454 -1.5446 -0.0303 -1.0908
 4990TIP3    H236462   4.682   6.412  16.499  0.5563  0.8900  0.5838
 4991TIP3   OH236463   4.933   4.016  12.455 -0.0272  0.0742  0.1460
 4991TIP3    H136464   4.898   3.949  12.397  1.4737  0.9560 -1.8195
 4991TIP3    H236465   4.909   4.099  12.414  0.4305  0.7295  1.1630
 4992TIP3   OH236466   2.905   2.386   1.421  0.4528 -0.1593 -0.4245
 4992TIP3    H136467   2.830   2.363   1.476 -0.5197  1.5090 -1.0439
 4992TIP3    H236468   2.890   2.338   1.340  0.9105 -1.1036  0.0323
 4993TIP3   OH236469   1.280   4.651   2.525  0.1677 -0.9219  0.0881
 4993TIP3    H136470   1.241   4.738   2.520  1.0525 -0.5331 -0.0691
 4993TIP3    H236471   1.234   4.600   2.459 -1.8307 -1.1611  1.6169
 4994TIP3   OH236472   4.542   4.622  12.128 -0.0142 -0.5720 -0.3370
 4994TIP3    H136473   4.584   4.563  12.190 -1.7113 -0.6649  0.7772
 4994TIP3    H236474   4.593   4.703  12.132 -0.8636 -0.1114  2.1990
 4995TIP3   OH236475   2.844   6.522   4.069  0.5165 -0.0047 -0.0090
 4995TIP3    H136476   2.823   6.547   3.979  1.0517 -0.4897 -0.2709
 4995TIP3    H236477   2.827   6.601   4.121 -3.2283 -0.7330 -0.0166
 4996TIP3   OH236478   0.877   2.107   5.521 -0.0002  0.1843  0.2500
 4996TIP3    H136479   0.788   2.138   5.534 -0.2526 -0.6611  0.5623
 4996TIP3    H236480   0.882   2.027   5.573  0.6269 -0.3277 -0.5951
 4997TIP3   OH236481   1.188   2.700  13.923 -0.5542 -0.4435 -0.1008
 4997TIP3    H136482   1.269   2.713  13.873 -1.0978  3.5957 -0.1535
 4997TIP3    H236483   1.120   2.691  13.856 -0.4425 -1.6268 -0.0595
 4998TIP3   OH236484   3.941   1.830   1.536  0.1161  0.5651 -0.1498
 4998TIP3    H136485   3.948   1.923   1.512 -1.4436  0.7523  0.1059
 4998TIP3    H236486   3.992   1.823   1.616 -0.4373  1.3742  0.2828
 4999TIP3   OH236487   0.144   2.156   3.907 -0.2024 -0.4562  0.0014
 4999TIP3    H136488   0.176   2.073   3.871  0.0647 -1.1398  1.7840
 4999TIP3    H236489   0.049   2.151   3.895  0.0192  0.2297 -2.4457
 5000TIP3   OH236490   2.451   2.842   1.375 -0.4500  0.3857 -0.0169
 5000TIP3    H136491   2.479   2.853   1.465  1.0875 -1.2492 -0.2870
 5000TIP3    H236492   2.366   2.797   1.382  0.0614 -0.4984  0.5840
 5001TIP3   OH236493   0.550   5.634  10.895 -0.2578 -0.0021  0.6439
 5001TIP3    H136494   0.510   5.561  10.847  1.2429  0.0256 -0.6659
 5001TIP3    H236495   0.633   5.650  10.852  2.2624 -1.4771  4.6752
 5002TIP3   OH236496   4.691   4.792   2.274 -0.4223 -0.1030  0.3642
 5002TIP3    H136497   4.607   4.833   2.257 -1.2535 -2.0693 -0.3725
 5002TIP3    H236498   4.730   4.777   2.188  0.1661 -0.2596  0.6460
 5003TIP3   OH236499   1.325   2.040  15.522  0.1139  0.4723 -0.1473
 5003TIP3    H136500   1.403   1.985  15.525  1.0060  1.6644 -0.7534
 5003TIP3    H236501   1.302   2.054  15.614 -0.1236 -0.8879  0.0118
 5004TIP3   OH236502   6.291   6.468   6.413 -0.3328  0.0535 -0.1054
 5004TIP3    H136503   6.361   6.403   6.410 -0.4058 -0.0712  0.7313
 5004TIP3    H236504   6.332   6.546   6.451 -0.3712  0.3362 -0.6404
 5005TIP3   OH236505   0.710   1.822   1.518  0.4585 -0.0577  0.3532
 5005TIP3    H136506   0.614   1.822   1.516  0.4043 -0.0711  2.4224
 5005TIP3    H236507   0.733   1.736   1.552  1.2587 -0.5182 -1.3010
 5006TIP3   OH236508   0.628   4.774   5.201  0.5288 -0.2427  0.1713
 5006TIP3    H136509   0.620   4.795   5.294  0.5555  1.7694 -0.2629
 5006TIP3    H236510   0.539   4.781   5.167  0.9131  1.7592 -0.4916
 5007TIP3   OH236511   2.286   5.807   3.128  0.1205  0.1854 -0.4084
 5007TIP3    H136512   2.229   5.849   3.192  1.6616  2.2492 -0.3502
 5007TIP3    H236513   2.374   5.834   3.152  1.0231 -1.8127 -1.3532
 5008TIP3   OH236514   6.498   3.196  13.603 -0.0511  0.2754 -0.3228
 5008TIP3    H136515   6.542   3.266  13.650  0.2361 -0.5147  0.5926
 5008TIP3    H236516   6.568   3.144  13.564 -0.2261 -0.1335 -0.0945
 5009TIP3   OH236517   0.226   0.345  14.277 -0.2547  0.0465  0.0330
 5009TIP3    H136518   0.276   0.281  14.328 -0.5271  0.1176  0.3933
 5009TIP3    H236519   0.196   0.297  14.200 -3.4150 -1.2351  1.9962
 5010TIP3   OH236520   1.144   5.267  14.329 -0.1586 -0.2583 -0.6233
 5010TIP3    H136521   1.141   5.359  14.356  1.3517 -0.1471 -0.8276
 5010TIP3    H236522   1.106   5.219  14.403  0.6479  0.3694  0.2078
 5011TIP3   OH236523   2.137   3.901  12.445  0.4159  0.0681 -0.6371
 5011TIP3    H136524   2.129   3.949  12.363 -1.1206 -0.4341 -0.8000
 5011TIP3    H236525   2.179   3.962  12.505  0.5012  0.8334 -1.4735
 5012TIP3   OH236526   6.444   2.955   1.402 -0.0986 -0.7783 -0.1771
 5012TIP3    H136527   6.482   2.873   1.434 -0.1160 -1.7852 -2.6431
 5012TIP3    H236528   6.356   2.931   1.372 -0.0524  0.0985 -1.0532
 5013TIP3   OH236529   0.298   3.009   4.827 -0.2987 -0.0371  0.2337
 5013TIP3    H136530   0.317   3.067   4.753  0.9514  0.2565  0.7549
 5013TIP3    H236531   0.279   2.924   4.787  1.9021 -0.2806 -0.3846
 5014TIP3   OH236532   1.392   1.036  17.274  0.1322  0.3479 -0.2919
 5014TIP3    H136533   1.473   0.997  17.307  0.8140  0.4443 -1.8453
 5014TIP3    H236534   1.406   1.130  17.281  0.5003  0.3779 -1.3776
 5015TIP3   OH236535   6.134   2.016   6.238  0.0182 -0.7134 -0.3445
 5015TIP3    H136536   6.097   1.943   6.190 -1.8029  0.2064 -0.3817
 5015TIP3    H236537   6.087   2.093   6.206 -0.2124  0.0923  1.8407
 5016TIP3   OH236538   3.447   4.129  10.947 -0.5578  0.2982 -0.6026
 5016TIP3    H136539   3.386   4.095  11.014  0.6165  1.7626  1.2538
 5016TIP3    H236540   3.506   4.056  10.930 -0.1060  0.2861  0.9091
 5017TIP3   OH236541   0.261   6.314  15.977 -0.0427  0.1459  0.7905
 5017TIP3    H136542   0.274   6.405  16.005 -1.6211  0.6866 -0.1446
 5017TIP3    H236543   0.269   6.316  15.882  1.2315 -0.9493  0.8618
 5018TIP3   OH236544   4.447   5.618   2.394  0.2420 -0.2896 -0.0218
 5018TIP3    H136545   4.487   5.704   2.390  0.6299 -0.4707 -0.0539
 5018TIP3    H236546   4.354   5.635   2.407  0.6895  0.0882  3.0853
 5019TIP3   OH236547   5.050   3.578  12.441  0.5821  0.3673  0.4691
 5019TIP3    H136548   5.081   3.667  12.461  0.2231  0.3255  1.2365
 5019TIP3    H236549   5.101   3.521  12.499  1.0144  0.0486 -0.2268
 5020TIP3   OH236550   4.951   2.104   4.044 -0.3614 -0.4383  0.0945
 5020TIP3    H136551   4.868   2.095   4.090 -0.6409  0.1145 -0.2949
 5020TIP3    H236552   5.013   2.052   4.096 -0.7590 -0.1572  0.8590
 5021TIP3   OH236553   0.870   2.576  11.477  0.1485 -0.0662 -0.2993
 5021TIP3    H136554   0.802   2.511  11.460 -0.7837  0.5094  1.1554
 5021TIP3    H236555   0.898   2.558  11.567 -0.4930  1.9016  0.2939
 5022TIP3   OH236556   0.493   0.802   5.981  0.5021  0.0724  0.3860
 5022TIP3    H136557   0.588   0.807   5.981  0.5460 -0.7941  0.5531
 5022TIP3    H236558   0.467   0.840   6.066  0.6522  0.9892  0.0318
 5023TIP3   OH236559   0.186   4.640   2.631 -0.8629  0.2010  0.1100
 5023TIP3    H136560   0.189   4.711   2.567  0.7480 -0.8469 -0.9930
 5023TIP3    H236561   0.224   4.678   2.710  1.8402  0.0102 -1.0607
 5024TIP3   OH236562   5.889   6.662  11.748 -0.4095 -0.0355 -0.7313
 5024TIP3    H136563   5.796   6.639  11.753 -0.6810  1.0387 -0.8271
 5024TIP3    H236564   5.926   6.631  11.830 -0.7473 -0.9270 -0.9113
 5025TIP3   OH236565   4.977   6.372  12.179  0.1660  0.2840 -0.1223
 5025TIP3    H136566   4.963   6.282  12.209 -0.9754  0.3593 -0.3771
 5025TIP3    H236567   4.888   6.405  12.165  0.5603  1.6014  0.4354
 5026TIP3   OH236568   2.534   1.459  17.011 -0.2447 -0.3128 -0.0747
 5026TIP3    H136569   2.605   1.397  16.993 -1.6487 -2.0956  0.4482
 5026TIP3    H236570   2.458   1.423  16.964 -0.6859  1.8862 -1.1198
 5027TIP3   OH236571   3.494   0.656   0.395 -0.4940 -0.6652  0.1109
 5027TIP3    H136572   3.579   0.647   0.354  0.0296 -0.4338  1.1215
 5027TIP3    H236573   3.472   0.568   0.426  0.2302 -0.3823  1.4779
 5028TIP3   OH236574   2.903   1.241   0.517 -0.4829 -0.7665  0.3760
 5028TIP3    H136575   2.839   1.304   0.550 -0.8586  0.2697 -2.2558
 5028TIP3    H236576   2.978   1.251   0.574 -0.6256  1.9247  0.1336
 5029TIP3   OH236577   4.808   0.775  14.119  0.2977 -0.0168 -0.2823
 5029TIP3    H136578   4.816   0.703  14.056 -0.6168 -0.4878  0.1262
 5029TIP3    H236579   4.716   0.800  14.115  0.2360 -0.0565  0.8770
 5030TIP3   OH236580   5.122   0.744   2.862  0.2225 -0.1304  0.0611
 5030TIP3    H136581   5.062   0.816   2.878 -0.8110 -1.0582  0.3980
 5030TIP3    H236582   5.078   0.667   2.897  0.9332 -1.0857 -1.0887
 5031TIP3   OH236583   3.528   0.363   4.218 -0.0041 -0.1324 -0.0541
 5031TIP3    H136584   3.566   0.310   4.147  0.4057 -0.0257  0.0799
 5031TIP3    H236585   3.438   0.379   4.190 -0.3946 -1.6314  0.3284
 5032TIP3   OH236586   1.492   5.355   1.889 -0.2544  0.5678  0.0578
 5032TIP3    H136587   1.572   5.408   1.885 -0.1900  0.6517  2.2801
 5032TIP3    H236588   1.425   5.415   1.922 -0.5708 -0.2810  0.9575
 5033TIP3   OH236589   0.419   4.371  14.003  0.0002 -0.3811 -0.3609
 5033TIP3    H136590   0.504   4.366  14.045  0.2313 -1.1424 -0.9116
 5033TIP3    H236591   0.356   4.352  14.073  0.2739  0.2280  0.0526
 5034TIP3   OH236592   4.849   0.498   2.250  0.1871  0.0538  0.0816
 5034TIP3    H136593   4.858   0.436   2.178  2.4707  0.7516 -0.2900
 5034TIP3    H236594   4.918   0.473   2.312  0.2156  1.3204  0.5824
 5035TIP3   OH236595   5.016   0.564  10.998  0.6918 -0.4918 -0.3498
 5035TIP3    H136596   5.012   0.618  10.919  0.2605 -0.7176 -0.4861
 5035TIP3    H236597   4.982   0.621  11.067 -3.1859 -1.6924 -1.1248
 5036TIP3   OH236598   5.381   2.753  13.917  0.0134  0.2005 -0.0156
 5036TIP3    H136599   5.387   2.827  13.857  0.0460 -0.3099 -0.6373
 5036TIP3    H236600   5.365   2.677  13.861  1.1695 -0.4497  0.5335
 5037TIP3   OH236601   0.611   2.216  12.494  0.2962 -0.2833  0.2342
 5037TIP3    H136602   0.646   2.266  12.568 -2.1663 -0.9189  1.8804
 5037TIP3    H236603   0.626   2.124  12.517  2.1245 -0.4224 -1.4125
 5038TIP3   OH236604   2.175   1.476   1.944 -0.4335 -0.3097  0.6537
 5038TIP3    H136605   2.201   1.465   2.035 -2.4635  1.9827  1.5757
 5038TIP3    H236606   2.183   1.389   1.906  0.0153 -1.3982  3.1220
 5039TIP3   OH236607   2.104   4.726   3.284  0.0129  0.7029  0.5122
 5039TIP3    H136608   2.120   4.662   3.354 -0.0101 -0.0270 -0.1484
 5039TIP3    H236609   2.177   4.714   3.224 -0.5171  0.6285 -0.1163
 5040TIP3   OH236610   3.743   2.893  13.733  0.3718 -0.3563  0.0129
 5040TIP3    H136611   3.811   2.832  13.705 -0.4450 -1.0669 -0.4370
 5040TIP3    H236612   3.753   2.969  13.675  1.8975  0.2930  1.0829
 5041TIP3   OH236613   1.262   1.896   5.952  0.3799 -0.2002  0.0954
 5041TIP3    H136614   1.277   1.966   6.016  0.4451 -0.0530 -0.0818
 5041TIP3    H236615   1.314   1.922   5.875  0.3559 -0.4118  0.0085
 5042TIP3   OH236616   1.713   3.013   4.833 -0.8002  0.8102 -0.0707
 5042TIP3    H136617   1.728   2.937   4.890  3.1949  0.6546 -1.1574
 5042TIP3    H236618   1.634   2.991   4.784 -1.2125 -1.4645  1.5217
 5043TIP3   OH236619   4.892   0.741   3.087  0.3642  0.3132  0.6002
 5043TIP3    H136620   4.897   0.816   3.147  0.8759  1.7045 -1.1602
 5043TIP3    H236621   4.799   0.719   3.085  0.1360  1.2440  0.6935
 5044TIP3   OH236622   2.373   3.526   1.059  0.3206 -0.0028 -0.1606
 5044TIP3    H136623   2.356   3.609   1.103 -0.7916 -0.3392  0.0512
 5044TIP3    H236624   2.358   3.544   0.966  1.8335  0.4855 -0.3265
 5045TIP3   OH236625   3.224   3.429  14.233 -0.0847 -0.1585 -0.5477
 5045TIP3    H136626   3.142   3.450  14.277  1.0712  0.6773  1.2836
 5045TIP3    H236627   3.206   3.349  14.183 -2.2359  0.5242 -0.8924
 5046TIP3   OH236628   5.978   5.874  14.050 -0.4236 -0.0156 -0.3895
 5046TIP3    H136629   5.975   5.830  14.135  1.7787 -0.1290 -0.3580
 5046TIP3    H236630   6.029   5.815  13.994  2.5916  2.4617 -0.3450
 5047TIP3   OH236631   1.796   3.870   5.519 -0.1797 -0.2506  0.1035
 5047TIP3    H136632   1.744   3.836   5.593 -1.1733  1.9813  0.4477
 5047TIP3    H236633   1.734   3.876   5.447 -0.1187  1.2390  0.1690
 5048TIP3   OH236634   6.639   1.976  14.718  0.4750  0.0101 -0.1285
 5048TIP3    H136635   6.682   1.914  14.659 -1.6116 -2.4370  0.8051
 5048TIP3    H236636   6.672   1.953  14.805  0.3294  0.7783  0.1346
 5049TIP3   OH236637   5.663   5.212  14.115 -0.0670  0.2503  0.4679
 5049TIP3    H136638   5.678   5.201  14.208  0.2375  0.0209  0.3911
 5049TIP3    H236639   5.568   5.227  14.107 -0.4670 -2.0407  0.5992
 5050TIP3   OH236640   4.067   4.819  14.810  0.0067  0.6109  0.0426
 5050TIP3    H136641   4.134   4.772  14.860  0.9685  0.8934 -0.9650
 5050TIP3    H236642   4.052   4.900  14.860 -2.3710 -1.1195  2.3256
 5051TIP3   OH236643   3.392   1.494   1.466  0.6138 -0.2341 -0.1979
 5051TIP3    H136644   3.352   1.413   1.497 -3.7935  0.5033 -3.4103
 5051TIP3    H236645   3.362   1.561   1.527  0.3472 -0.3210 -0.2339
 5052TIP3   OH236646   2.430   4.343  13.522 -0.4714  0.0484 -0.2814
 5052TIP3    H136647   2.394   4.411  13.579  0.5759 -1.2470  2.0086
 5052TIP3    H236648   2.513   4.379  13.492 -0.0961 -0.0443  0.6228
 5053TIP3   OH236649   3.771   5.780  15.147  0.0741  0.3406  0.3828
 5053TIP3    H136650   3.713   5.706  15.128 -1.8173  2.4427 -2.3848
 5053TIP3    H236651   3.830   5.784  15.072  1.0530  0.8231  1.1651
 5054TIP3   OH236652   2.476   2.912  10.695 -0.5902  0.0204 -0.1437
 5054TIP3    H136653   2.526   2.857  10.755  1.0479 -0.0075 -1.5112
 5054TIP3    H236654   2.537   2.933  10.624 -2.4424  0.1582 -1.7420
 5055TIP3   OH236655   2.063   2.216  13.912  0.6876  0.2778  0.0373
 5055TIP3    H136656   2.006   2.239  13.985  0.2727  1.1264 -0.5410
 5055TIP3    H236657   2.089   2.301  13.875  1.4561 -0.1288 -0.3622
 5056TIP3   OH236658   1.870   2.836  17.070 -0.7471 -0.8155 -0.1861
 5056TIP3    H136659   1.867   2.854  17.164 -1.1546  1.9997 -0.6855
 5056TIP3    H236660   1.958   2.801  17.056 -0.9126 -1.9011  1.3244
 5057TIP3   OH236661   2.681   1.840   5.947 -0.6614  0.4103  0.3588
 5057TIP3    H136662   2.596   1.826   5.989 -0.7915 -0.3973 -0.1536
 5057TIP3    H236663   2.741   1.784   5.996 -0.2002  1.7852  1.4003
 5058TIP3   OH236664   6.357   2.762  14.352 -0.4016  0.3276 -0.4464
 5058TIP3    H136665   6.275   2.780  14.305  0.3597  1.8792 -1.1937
 5058TIP3    H236666   6.392   2.683  14.310 -0.5375  0.7729 -1.4074
 5059TIP3   OH236667   6.583   0.116  15.859  0.0248  0.3930  0.0558
 5059TIP3    H136668   6.608   0.179  15.927 -0.9507  0.5739  0.2495
 5059TIP3    H236669   6.568   0.034  15.906  1.2979 -0.0039 -0.1989
 5060TIP3   OH236670   4.713   4.483   5.821 -0.1587  0.0654 -0.5513
 5060TIP3    H136671   4.801   4.487   5.783 -0.9758  2.2641 -2.3060
 5060TIP3    H236672   4.727   4.447   5.909  2.2597 -1.3468 -1.4548
 5061TIP3   OH236673   2.902   4.585   3.646 -0.2168 -0.4210  0.0939
 5061TIP3    H136674   2.828   4.645   3.636 -0.8244 -0.3839  3.9425
 5061TIP3    H236675   2.862   4.498   3.649  0.1695 -0.6204 -0.5130
 5062TIP3   OH236676   0.863   2.418   0.077 -0.3245  0.3518  0.3713
 5062TIP3    H136677   0.798   2.437   0.146 -2.5194 -2.2720 -0.8790
 5062TIP3    H236678   0.871   2.322   0.078  1.6902  0.4805 -1.1810
 5063TIP3   OH236679   0.589   2.168  11.447 -0.5442 -0.0197 -0.4691
 5063TIP3    H136680   0.594   2.082  11.489 -1.9333 -0.1060 -0.4646
 5063TIP3    H236681   0.530   2.156  11.373 -2.7085  1.4815  0.9400
 5064TIP3   OH236682   4.791   1.059  17.174  0.0309  0.0050 -0.2224
 5064TIP3    H136683   4.758   1.003  17.104  0.0878 -1.0225  0.5500
 5064TIP3    H236684   4.881   1.028  17.189  0.5851  1.3214 -0.8234
 5065TIP3   OH236685   0.495   5.429   3.948 -0.1480 -0.1519 -0.3269
 5065TIP3    H136686   0.541   5.437   3.865 -1.8074  0.4636 -1.2009
 5065TIP3    H236687   0.402   5.431   3.925 -0.6506  1.7663  1.6570
 5066TIP3   OH236688   2.536   6.773  11.230 -0.0214  0.3000 -0.1160
 5066TIP3    H136689   2.506   6.724  11.153 -0.8901  1.8964 -0.8230
 5066TIP3    H236690   2.631   6.781  11.216 -0.2281  0.9616 -1.2820
 5067TIP3   OH236691   1.999   3.635   1.651 -0.3900  0.4694 -0.4911
 5067TIP3    H136692   1.962   3.718   1.622 -3.5106 -0.2561  1.2027
 5067TIP3    H236693   1.942   3.569   1.613  1.4146 -0.8611 -0.9109
 5068TIP3   OH236694   5.614   0.220  12.074  0.0475  0.5484  0.1707
 5068TIP3    H136695   5.542   0.168  12.038  0.3632 -0.1505  0.5326
 5068TIP3    H236696   5.574   0.270  12.146 -1.2450  4.1117 -2.8409
 5069TIP3   OH236697   5.654   0.295   6.627 -0.3772 -0.4824 -0.3075
 5069TIP3    H136698   5.701   0.369   6.666 -0.3791  0.3676 -1.8676
 5069TIP3    H236699   5.710   0.267   6.554 -0.0461 -2.4667  0.6781
 5070TIP3   OH236700   0.795   4.910  17.187 -0.2292 -0.6159  0.1870
 5070TIP3    H136701   0.878   4.922  17.141  0.1562 -0.3377  0.9584
 5070TIP3    H236702   0.729   4.930  17.121  0.3237 -0.0877 -0.2181
 5071TIP3   OH236703   5.769   4.078   1.432  0.1108  0.0319 -0.5076
 5071TIP3    H136704   5.758   3.984   1.419  0.6998  0.1636 -1.9968
 5071TIP3    H236705   5.858   4.096   1.400  1.1176  0.6143  2.4240
 5072TIP3   OH236706   0.219   2.796  16.087 -0.3704 -0.1606 -0.3265
 5072TIP3    H136707   0.230   2.890  16.100 -1.3961 -0.3114  1.8133
 5072TIP3    H236708   0.304   2.758  16.110  0.4160  0.3297 -2.3606
 5073TIP3   OH236709   0.295   1.989   0.673 -0.1581  0.2623  0.2583
 5073TIP3    H136710   0.334   2.009   0.589 -0.2359  2.2966  0.6869
 5073TIP3    H236711   0.356   1.928   0.714 -0.4103 -1.2037 -1.4793
 5074TIP3   OH236712   6.204   4.202  10.263 -0.1273 -0.4818  0.1258
 5074TIP3    H136713   6.241   4.245  10.186  0.5218  2.9132  2.2339
 5074TIP3    H236714   6.137   4.143  10.228 -2.4228  3.6353 -2.8479
 5075TIP3   OH236715   2.558   3.147  11.389 -0.0182  0.1054  0.3571
 5075TIP3    H136716   2.628   3.139  11.325  0.1054 -2.0938  0.7433
 5075TIP3    H236717   2.551   3.060  11.429 -1.6547  0.8132  1.6844
 5076TIP3   OH236718   3.135   5.708  13.221 -0.3592  0.2419  0.0903
 5076TIP3    H136719   3.041   5.704  13.202 -0.2835  0.6401 -0.3770
 5076TIP3    H236720   3.153   5.802  13.233 -0.3169  0.0446  1.6978
 5077TIP3   OH236721   3.601   0.766  15.764 -0.2516 -0.0653  0.2234
 5077TIP3    H136722   3.532   0.812  15.812 -0.5862 -0.7565  0.4176
 5077TIP3    H236723   3.642   0.709  15.829  0.6776  0.5287  0.1673
 5078TIP3   OH236724   0.373   0.822   3.215 -0.2011  0.4427  0.2574
 5078TIP3    H136725   0.301   0.865   3.261 -2.9395 -1.8510 -1.7017
 5078TIP3    H236726   0.400   0.751   3.272 -0.2665  0.5826  0.4634
 5079TIP3   OH236727   2.131   2.283  15.019  0.1074  0.0470 -0.3476
 5079TIP3    H136728   2.108   2.282  14.926 -1.2162 -0.6617 -0.0200
 5079TIP3    H236729   2.158   2.192  15.038  1.6274  0.4843 -0.3382
 5080TIP3   OH236730   5.024   4.768  11.991 -0.1098  0.6753  0.3690
 5080TIP3    H136731   5.041   4.827  11.918 -1.5890  0.8704  0.1663
 5080TIP3    H236732   5.035   4.822  12.069  2.2369  0.2798  0.3473
 5081TIP3   OH236733   4.934   5.869   2.373 -0.0675  0.5344 -0.4049
 5081TIP3    H136734   4.985   5.799   2.412 -1.2329  0.5212  1.1674
 5081TIP3    H236735   4.858   5.825   2.334  0.6225  0.6471 -1.9210
 5082TIP3   OH236736   3.402   2.423   6.802 -0.2386  0.1376  0.3601
 5082TIP3    H136737   3.496   2.436   6.788 -0.3683  0.5282 -0.1633
 5082TIP3    H236738   3.379   2.350   6.746 -0.5238  0.9438 -0.5865
 5083TIP3   OH236739   1.108   3.825   1.793  0.2078  0.3709 -0.2470
 5083TIP3    H136740   1.154   3.829   1.709  0.6384 -1.3542 -0.1031
 5083TIP3    H236741   1.054   3.746   1.788 -1.2869  1.3202  0.3505
 5084TIP3   OH236742   4.270   6.023  13.224 -0.1221  0.2677  0.1687
 5084TIP3    H136743   4.195   5.965  13.220  1.3634 -1.7488  0.7362
 5084TIP3    H236744   4.297   6.021  13.316  0.0341  1.7572  0.1664
 5085TIP3   OH236745   1.020   3.858  13.401 -0.1186  1.1067 -0.2665
 5085TIP3    H136746   0.936   3.902  13.406  0.1221  1.5348  0.0048
 5085TIP3    H236747   1.085   3.928  13.413  0.2479  0.4545  1.8014
 5086TIP3   OH236748   0.999   1.532  13.817 -0.0333  0.0383 -0.8912
 5086TIP3    H136749   0.983   1.438  13.822 -1.6994  0.2640 -1.5170
 5086TIP3    H236750   0.954   1.560  13.737 -0.7877  1.5845  0.0446
 5087TIP3   OH236751   0.099   5.562  15.283 -0.3034  0.2657  0.1400
 5087TIP3    H136752   0.060   5.488  15.330 -1.1631  1.4204  1.2524
 5087TIP3    H236753   0.027   5.598  15.232  0.2312  0.0612 -0.7746
 5088TIP3   OH236754   2.516   4.842   3.000  0.4764  0.3165 -0.0973
 5088TIP3    H136755   2.584   4.909   3.008  0.6747  0.1752 -0.5683
 5088TIP3    H236756   2.540   4.793   2.921  0.1831 -0.1374  0.0922
 5089TIP3   OH236757   0.287   6.681  13.009  0.0986 -0.1219  0.1563
 5089TIP3    H136758   0.259   6.590  13.016 -1.9506  0.3777 -0.9757
 5089TIP3    H236759   0.346   6.682  12.933 -1.4717 -0.1687 -1.0905
 5090TIP3   OH236760   2.215   1.522  11.609  0.0162 -0.3164 -0.1520
 5090TIP3    H136761   2.176   1.444  11.570  1.8859  0.6076 -4.0896
 5090TIP3    H236762   2.177   1.595  11.562  2.4083  0.8399 -0.3900
 5091TIP3   OH236763   5.655   5.551  13.123  0.2213  0.3541  0.4120
 5091TIP3    H136764   5.725   5.540  13.187  0.6710  1.7729  0.1891
 5091TIP3    H236765   5.607   5.629  13.153 -0.4471  0.1768 -0.1736
 5092TIP3   OH236766   3.739   6.039   0.774 -0.6933 -0.0871 -0.5576
 5092TIP3    H136767   3.833   6.028   0.785 -0.8159  0.7752  1.7042
 5092TIP3    H236768   3.727   6.055   0.680  1.3655 -0.4535 -0.9047
 5093TIP3   OH236769   6.075   2.309   1.090 -0.5217  0.4969  0.7303
 5093TIP3    H136770   6.160   2.266   1.077 -0.0338  1.9374 -1.1041
 5093TIP3    H236771   6.011   2.243   1.065  0.1063 -0.0863  0.6329
 5094TIP3   OH236772   1.677   1.299   5.984 -0.6210 -0.2762  0.1661
 5094TIP3    H136773   1.622   1.375   6.006 -0.2495  0.1301 -0.3105
 5094TIP3    H236774   1.766   1.328   6.002 -0.4742 -0.5775 -0.0795
 5095TIP3   OH236775   0.676   0.107   5.422 -0.2514  0.2775  0.8739
 5095TIP3    H136776   0.655   0.119   5.329  0.4085 -1.1854  0.5355
 5095TIP3    H236777   0.645   0.019   5.442  1.7672 -0.3251  1.4310
 5096TIP3   OH236778   3.337   3.492   4.667 -0.0281  0.3676 -0.9680
 5096TIP3    H136779   3.373   3.556   4.728 -0.2741 -0.2594 -0.1452
 5096TIP3    H236780   3.323   3.414   4.721 -2.3549  0.4995 -1.3278
 5097TIP3   OH236781   5.754   2.762  13.887 -0.1931  0.0467 -0.1794
 5097TIP3    H136782   5.686   2.827  13.869  0.3017  0.5594 -0.1949
 5097TIP3    H236783   5.761   2.713  13.805 -1.8189 -1.2058  0.3877
 5098TIP3   OH236784   6.488   6.396  14.227  0.3404 -0.1965 -0.6683
 5098TIP3    H136785   6.556   6.464  14.224  1.2985 -1.1818 -1.9209
 5098TIP3    H236786   6.418   6.428  14.171  0.6098 -0.0387 -0.9157
 5099TIP3   OH236787   2.101   4.280  12.497 -0.0345 -0.0923  0.1903
 5099TIP3    H136788   2.131   4.365  12.529 -0.7110  0.2247 -0.0098
 5099TIP3    H236789   2.076   4.296  12.406 -3.8242  0.3812  1.2533
 5100TIP3   OH236790   4.920   3.025  12.004 -0.5205  0.2786 -0.1400
 5100TIP3    H136791   4.974   2.998  11.930 -0.7341 -1.0049  0.1724
 5100TIP3    H236792   4.913   3.120  11.995  1.2237  0.3809 -0.5703
 5101TIP3   OH236793   6.210   4.465   3.490  0.1559  0.4844  0.5397
 5101TIP3    H136794   6.299   4.463   3.525  0.3668 -0.3109 -0.0351
 5101TIP3    H236795   6.160   4.411   3.550  0.2065  0.3469  0.4577
 5102TIP3   OH236796   5.394   6.713   4.856 -0.2685 -0.1576 -0.3436
 5102TIP3    H136797   5.453   6.778   4.894  0.7487 -0.7286 -0.9303
 5102TIP3    H236798   5.380   6.649   4.925  0.4675 -0.4606 -0.4719
 5103TIP3   OH236799   0.565   6.046   5.545 -0.5908 -0.2648  0.0954
 5103TIP3    H136800   0.501   6.090   5.600 -1.9065 -0.1783 -1.4914
 5103TIP3    H236801   0.519   6.026   5.464  2.0094  1.8722 -2.0119
 5104TIP3   OH236802   5.986   6.351  13.317 -0.5012  0.9700  0.2057
 5104TIP3    H136803   6.051   6.400  13.367 -1.0207  1.7320  0.1291
 5104TIP3    H236804   5.966   6.407  13.242 -0.5052  0.2943 -0.3152
 5105TIP3   OH236805   2.633   1.668  14.618 -0.4279  0.3421 -0.0611
 5105TIP3    H136806   2.720   1.679  14.578  0.7570  2.4702  2.9434
 5105TIP3    H236807   2.585   1.746  14.591 -0.3326  0.7225  0.8477
 5106TIP3   OH236808   3.662   5.259   4.319  0.2860 -0.6573  0.2013
 5106TIP3    H136809   3.623   5.259   4.231 -0.7229 -0.6582  0.6418
 5106TIP3    H236810   3.613   5.327   4.367  1.2972 -0.1774  0.5578
 5107TIP3   OH236811   0.143   2.651  12.955 -0.4405 -0.0241  0.8875
 5107TIP3    H136812   0.196   2.669  13.033  0.8016 -1.2274  0.3306
 5107TIP3    H236813   0.182   2.706  12.886 -1.7922  1.3537  1.1799
 5108TIP3   OH236814   1.789   3.021   1.162 -0.1462 -0.0594  0.1807
 5108TIP3    H136815   1.762   2.987   1.077  0.6287  0.2698 -0.1971
 5108TIP3    H236816   1.806   3.114   1.147 -1.3997  0.3212  1.0132
 5109TIP3   OH236817   3.047   1.331   4.894  0.2731 -0.0560 -0.1805
 5109TIP3    H136818   2.995   1.258   4.861  0.7333 -0.2969 -0.3909
 5109TIP3    H236819   3.032   1.332   4.988 -2.9310  2.1124 -0.6612
 5110TIP3   OH236820   0.225   2.804   2.648  0.6535 -0.0121  0.1861
 5110TIP3    H136821   0.232   2.801   2.743 -0.6585  0.8854  0.3135
 5110TIP3    H236822   0.311   2.836   2.618  1.2552 -0.8258  1.0157
 5111TIP3   OH236823   1.013   5.011  15.261 -0.3051 -0.4853  0.5726
 5111TIP3    H136824   1.008   5.081  15.195 -2.2916 -0.8392  0.3168
 5111TIP3    H236825   0.971   5.049  15.338 -1.5425 -1.4082  0.3852
 5112TIP3   OH236826   5.363   5.506  11.394 -0.1044  0.1445 -0.0457
 5112TIP3    H136827   5.392   5.517  11.485 -1.4987  0.1968  0.3948
 5112TIP3    H236828   5.390   5.418  11.371 -2.2379 -0.9244  1.3612
 5113TIP3   OH236829   5.260   2.811   3.117  0.2544 -0.5247 -0.3441
 5113TIP3    H136830   5.294   2.886   3.068 -1.2412 -0.4604 -1.3284
 5113TIP3    H236831   5.307   2.735   3.081  0.1025 -0.3248 -0.9637
 5114TIP3   OH236832   1.836   3.913  12.006  0.2693 -0.2079 -0.3396
 5114TIP3    H136833   1.926   3.899  11.975  0.1619  0.3985 -0.9188
 5114TIP3    H236834   1.820   3.839  12.066  1.8177  0.6805  1.2381
 5115TIP3   OH236835   0.725   4.818   3.380  0.3358 -0.0030  0.2585
 5115TIP3    H136836   0.788   4.819   3.452  0.1216 -1.1071  0.4812
 5115TIP3    H236837   0.659   4.753   3.407 -0.5353  0.6431 -0.2715
 5116TIP3   OH236838   3.406   2.070  15.155 -0.1682 -0.3471  1.1829
 5116TIP3    H136839   3.478   2.095  15.214  0.2908  0.8445  0.1410
 5116TIP3    H236840   3.448   2.019  15.086 -0.3708  0.1304  0.7081
 5117TIP3   OH236841   1.797   2.105   5.553 -0.2582 -0.3559 -0.1567
 5117TIP3    H136842   1.784   2.194   5.518  1.1623  0.4433  1.3043
 5117TIP3    H236843   1.748   2.049   5.493 -0.1459  1.2816 -1.8287
 5118TIP3   OH236844   0.781   4.678  16.370  0.2340  0.6697 -0.3043
 5118TIP3    H136845   0.854   4.616  16.378  1.2406  1.7232 -1.1970
 5118TIP3    H236846   0.725   4.640  16.302  0.5884  0.4955 -0.5015
 5119TIP3   OH236847   3.177   2.619  15.036  0.2498  0.2971  0.1513
 5119TIP3    H136848   3.227   2.695  15.006  0.3323  0.9185  1.7965
 5119TIP3    H236849   3.243   2.552  15.054  0.3194  0.3920  0.2536
 5120TIP3   OH236850   2.342   2.521   5.307 -0.5818 -0.2642 -0.1148
 5120TIP3    H136851   2.305   2.433   5.301 -0.7759 -0.1137 -1.4754
 5120TIP3    H236852   2.419   2.512   5.362 -0.2637 -1.4078 -0.7349
 5121TIP3   OH236853   5.719   4.980  13.561  0.0534 -0.6008  0.6974
 5121TIP3    H136854   5.798   5.001  13.612  1.3972 -0.4809 -1.3744
 5121TIP3    H236855   5.743   4.902  13.511 -1.5943 -1.3101  0.9728
 5122TIP3   OH236856   1.672   4.440   0.754  0.3929 -0.5118 -0.6527
 5122TIP3    H136857   1.631   4.383   0.819  0.6795 -0.3867 -0.3586
 5122TIP3    H236858   1.625   4.523   0.761 -0.4265 -0.8888 -1.5024
 5123TIP3   OH236859   6.657   2.083   4.711  0.1376  0.0038  0.5852
 5123TIP3    H136860   6.708   2.030   4.649  0.5412  1.3524 -0.2460
 5123TIP3    H236861   6.573   2.097   4.668  0.0509  0.0885  0.7814
 5124TIP3   OH236862   1.207   2.666  11.443 -0.2891 -0.6710  0.3937
 5124TIP3    H136863   1.143   2.714  11.390  0.9676 -0.5382 -1.0449
 5124TIP3    H236864   1.222   2.721  11.520 -1.5498 -0.4872  0.5181
 5125TIP3   OH236865   6.556   1.253  16.433  0.2604 -0.3415  0.1660
 5125TIP3    H136866   6.465   1.223  16.424 -0.1674  0.2000  2.4165
 5125TIP3    H236867   6.589   1.209  16.511  1.2394  1.1042  0.5924
 5126TIP3   OH236868   4.006   2.727  15.870  0.3105  0.1684 -0.0473
 5126TIP3    H136869   3.995   2.794  15.937 -2.7059  1.4726 -1.7546
 5126TIP3    H236870   3.956   2.652  15.903 -0.7526  0.6317 -0.6108
 5127TIP3   OH236871   3.308   0.685  12.599 -0.4416 -0.0223  0.1195
 5127TIP3    H136872   3.387   0.715  12.554 -0.5856  0.4990  0.2020
 5127TIP3    H236873   3.242   0.752  12.578 -0.8279 -0.3920  0.1426
 5128TIP3   OH236874   3.238   1.407   2.529 -0.0738  0.4950 -0.1962
 5128TIP3    H136875   3.309   1.367   2.580 -0.4370  0.8442  0.5839
 5128TIP3    H236876   3.214   1.339   2.466  1.7388  0.8036 -1.2370
 5129TIP3   OH236877   0.287   0.186  12.788 -0.0729  0.0891 -0.2750
 5129TIP3    H136878   0.222   0.128  12.827 -0.3470 -0.7847 -1.9811
 5129TIP3    H236879   0.238   0.264  12.763  0.2049  0.8844  1.5817
 5130TIP3   OH236880   5.185   1.492  11.698 -0.3950 -0.5596 -0.0488
 5130TIP3    H136881   5.224   1.458  11.779  1.8746  2.7596  0.3521
 5130TIP3    H236882   5.116   1.551  11.728  1.5433  1.9616 -0.4256
 5131TIP3   OH236883   3.390   4.937  13.293  0.5269 -0.4249  0.2389
 5131TIP3    H136884   3.351   4.886  13.363  0.4916 -1.0935 -0.2632
 5131TIP3    H236885   3.380   5.028  13.320  0.6663 -0.6881  1.1769
 5132TIP3   OH236886   0.473   1.053  11.767 -0.0782  0.5354 -0.9642
 5132TIP3    H136887   0.387   1.014  11.781  0.0576  0.7279  0.4565
 5132TIP3    H236888   0.492   1.101  11.848  2.5463 -1.7327 -0.1528
 5133TIP3   OH236889   2.730   4.047  14.799  0.1986 -0.5567  0.1073
 5133TIP3    H136890   2.743   3.952  14.794 -0.2946 -0.6198 -0.0292
 5133TIP3    H236891   2.750   4.069  14.890  0.3293 -0.7886  0.1355
 5134TIP3   OH236892   0.248   2.576  15.520  0.3838 -0.1023  0.2728
 5134TIP3    H136893   0.293   2.628  15.453 -0.5010 -0.4198 -0.5985
 5134TIP3    H236894   0.268   2.485  15.497 -0.4718 -0.2357  0.0290
 5135TIP3   OH236895   1.466   5.530  15.628  0.0667  0.2795 -0.1827
 5135TIP3    H136896   1.409   5.463  15.665  2.0983 -0.9865  0.7562
 5135TIP3    H236897   1.426   5.552  15.544 -1.0506 -1.5821 -0.1683
 5136TIP3   OH236898   3.280   4.282  11.611  0.1410 -0.1679 -0.5025
 5136TIP3    H136899   3.291   4.189  11.632 -1.0682  0.2094  2.0952
 5136TIP3    H236900   3.309   4.327  11.690  0.3381  1.6558 -1.5908
 5137TIP3   OH236901   6.105   0.853  16.636 -0.0981  0.5248  0.0188
 5137TIP3    H136902   6.153   0.935  16.648  0.4793  0.3282 -0.8668
 5137TIP3    H236903   6.116   0.832  16.543  0.1557 -0.7898  0.3191
 5138TIP3   OH236904   5.122   6.709  12.016 -0.0885 -0.4715  0.1612
 5138TIP3    H136905   5.036   6.726  12.055 -0.6977 -2.3939 -0.2672
 5138TIP3    H236906   5.103   6.688  11.925  1.0618  1.1553 -0.4844
 5139TIP3   OH236907   6.678   0.435  12.970 -0.5174  0.2884  0.5668
 5139TIP3    H136908   6.676   0.341  12.949  0.8061 -0.0162  1.7441
 5139TIP3    H236909   6.682   0.478  12.884  0.7909 -0.7926  0.0596
 5140TIP3   OH236910   4.296   4.219   0.288  0.7602  0.3031  0.1017
 5140TIP3    H136911   4.361   4.228   0.358  0.1398  1.1508  0.5890
 5140TIP3    H236912   4.347   4.199   0.210  1.5989  0.7692  0.5203
 5141TIP3   OH236913   2.339   0.706   3.017 -0.2475  0.1750 -0.7251
 5141TIP3    H136914   2.413   0.731   2.961  0.2730 -0.7414 -0.4693
 5141TIP3    H236915   2.265   0.698   2.957  0.3498 -1.0031 -1.3390
 5142TIP3   OH236916   0.313   3.992   4.540 -0.0973 -0.2017  0.1160
 5142TIP3    H136917   0.311   3.935   4.617  1.2052 -0.2659  0.1165
 5142TIP3    H236918   0.361   4.069   4.569  1.0654 -0.5566 -0.8449
 5143TIP3   OH236919   1.306   6.066   6.478  0.2347 -0.2194  0.1582
 5143TIP3    H136920   1.225   6.116   6.490 -0.1441 -0.1347 -2.5212
 5143TIP3    H236921   1.376   6.126   6.504 -0.4146  0.5573  0.1104
 5144TIP3   OH236922   1.780   0.049   4.008 -0.7672  0.7730  0.1107
 5144TIP3    H136923   1.867   0.044   3.968  0.2329  2.3134  1.9878
 5144TIP3    H236924   1.734   0.115   3.956 -0.9360 -0.2396 -1.0548
 5145TIP3   OH236925   2.395   5.995   2.286  0.1344  0.0599  0.6804
 5145TIP3    H136926   2.338   5.925   2.254  3.0783 -1.8220 -0.6668
 5145TIP3    H236927   2.390   5.988   2.382  0.1187 -1.7978  0.5636
 5146TIP3   OH236928   2.163   2.320   4.388 -0.6914 -0.6688 -0.0847
 5146TIP3    H136929   2.175   2.253   4.321  1.7196 -0.4816  0.1227
 5146TIP3    H236930   2.146   2.271   4.468  0.9818 -1.0536  0.0497
 5147TIP3   OH236931   3.053   2.788   4.719  0.2690 -0.6868  0.3523
 5147TIP3    H136932   2.978   2.734   4.742  0.2202 -1.7588 -2.2328
 5147TIP3    H236933   3.016   2.875   4.703 -0.2235 -0.8722  0.4940
 5148TIP3   OH236934   1.976   3.640  14.640 -0.1212 -0.5213 -0.3006
 5148TIP3    H136935   2.042   3.635  14.710 -0.4608 -0.7111  0.0046
 5148TIP3    H236936   1.932   3.724  14.655  0.2626 -0.2518 -0.6914
 5149TIP3   OH236937   2.861   4.734   6.690  0.1660  0.2651  0.0120
 5149TIP3    H136938   2.788   4.746   6.630  0.2507  1.4434  0.1304
 5149TIP3    H236939   2.927   4.797   6.662 -0.3105  1.7650  2.1196
 5150TIP3   OH236940   0.341   0.084  16.162 -0.5774  0.1268 -0.1387
 5150TIP3    H136941   0.318   0.162  16.112 -1.0808 -0.1170 -0.2942
 5150TIP3    H236942   0.257   0.042  16.182 -0.3565  0.0388  0.6192
 5151TIP3   OH236943   5.556   3.412   3.276  0.2463 -0.2927 -0.2497
 5151TIP3    H136944   5.515   3.407   3.363  0.5076 -0.9879 -0.1613
 5151TIP3    H236945   5.549   3.504   3.252 -1.7840 -0.4666 -0.4372
 5152TIP3   OH236946   1.780   6.765  15.143  0.4170  0.1893  0.3193
 5152TIP3    H136947   1.801   6.858  15.134 -1.4241  0.6625  0.6477
 5152TIP3    H236948   1.763   6.736  15.053 -0.4832  0.5409  0.3745
 5153TIP3   OH236949   3.297   4.362  14.385 -0.5553  0.0474  0.4940
 5153TIP3    H136950   3.210   4.367  14.424 -0.4690 -1.3547  0.9096
 5153TIP3    H236951   3.354   4.405  14.449 -0.9717  1.2479  0.0759
 5154TIP3   OH236952   4.846   3.428   5.120 -0.5411 -0.2376  0.0620
 5154TIP3    H136953   4.825   3.510   5.165  1.9271  0.0033  0.8536
 5154TIP3    H236954   4.897   3.455   5.043  1.2763 -1.0559  0.9416
 5155TIP3   OH236955   1.075   6.254   3.554 -0.1453 -0.0344  0.0853
 5155TIP3    H136956   1.157   6.232   3.511 -0.9337 -0.0154 -1.4692
 5155TIP3    H236957   1.024   6.173   3.550 -0.7069  0.3229 -0.1855
 5156TIP3   OH236958   5.220   1.451   5.080 -0.0398 -0.0820 -0.2543
 5156TIP3    H136959   5.310   1.445   5.112 -0.2145 -0.4756  0.1745
 5156TIP3    H236960   5.168   1.460   5.160 -0.2538  1.6664 -0.5787
 5157TIP3   OH236961   5.948   5.631   5.652 -0.2324  0.3020  0.3020
 5157TIP3    H136962   5.905   5.679   5.582 -0.1901  1.3765  1.0026
 5157TIP3    H236963   6.002   5.566   5.607 -1.3776 -0.0243 -0.6182
 5158TIP3   OH236964   4.601   0.216  15.586 -0.0333  0.3410 -0.1496
 5158TIP3    H136965   4.565   0.135  15.549  1.3089 -0.2698 -0.1396
 5158TIP3    H236966   4.582   0.209  15.680 -1.7012  0.9818 -0.4266
 5159TIP3   OH236967   5.509   4.051   5.176 -0.0120 -0.1848  0.4708
 5159TIP3    H136968   5.554   3.995   5.240 -0.4091 -1.9901 -0.8081
 5159TIP3    H236969   5.464   4.117   5.230  2.3091  0.3156  1.8808
 5160TIP3   OH236970   6.137   0.308   3.993  0.4507  0.5297  0.2733
 5160TIP3    H136971   6.218   0.358   3.983 -0.1479  1.5681  0.5351
 5160TIP3    H236972   6.069   0.364   3.955 -0.1045 -0.4844 -0.2692
 5161TIP3   OH236973   2.913   2.723   0.550  0.0908  0.1336  0.0744
 5161TIP3    H136974   2.897   2.647   0.493  0.3718  0.0115  0.1569
 5161TIP3    H236975   2.827   2.765   0.558 -0.3977 -1.0456  1.2663
 5162TIP3   OH236976   1.934   4.642  14.751  0.3923  0.1707  0.0810
 5162TIP3    H136977   1.927   4.583  14.676 -1.0788  1.6414 -0.9482
 5162TIP3    H236978   1.864   4.614  14.810 -0.3879  0.9736 -0.4664
 5163TIP3   OH236979   5.083   6.511  11.551  0.1400 -0.8321  0.0247
 5163TIP3    H136980   5.145   6.445  11.583  0.6847 -0.0961  0.5014
 5163TIP3    H236981   5.135   6.591  11.545 -0.5009 -0.4629 -0.6237
 5164TIP3   OH236982   6.197   3.578  13.571 -0.8554  0.0777  0.4845
 5164TIP3    H136983   6.256   3.537  13.634 -0.1388  1.9667  1.0656
 5164TIP3    H236984   6.123   3.610  13.623 -0.0357  2.0631  0.4587
 5165TIP3   OH236985   1.463   5.741  10.591 -0.1108 -0.3869 -0.0839
 5165TIP3    H136986   1.532   5.718  10.653  0.5529 -0.7207 -0.9291
 5165TIP3    H236987   1.507   5.796  10.526 -0.9813  0.6379  0.1890
 5166TIP3   OH236988   6.283   5.873   5.226  0.4021 -0.3422 -0.4984
 5166TIP3    H136989   6.295   5.949   5.284  2.0438 -1.8565  1.2010
 5166TIP3    H236990   6.367   5.828   5.227 -0.6591 -2.4081 -1.1868
 5167TIP3   OH236991   3.501   1.834  13.924 -0.5217  0.0181  0.6642
 5167TIP3    H136992   3.558   1.910  13.933  1.3412 -1.4007  1.0183
 5167TIP3    H236993   3.514   1.804  13.834 -1.2489  0.1063  0.5243
 5168TIP3   OH236994   5.465   3.042   6.796  0.5554  0.9245  0.0819
 5168TIP3    H136995   5.400   2.985   6.839 -0.8817  1.2859 -1.5669
 5168TIP3    H236996   5.506   2.986   6.730  0.9513  1.0962  0.1789
 5169TIP3   OH236997   0.013   6.296  12.003  0.1615 -0.5744  0.3557
 5169TIP3    H136998   0.054   6.211  12.019  1.5481  0.3727  2.0418
 5169TIP3    H236999  -0.077   6.285  12.036 -0.5373 -2.1710 -1.9075
 5170TIP3   OH237000   3.381   1.625   1.864 -0.4826  0.9026  0.7297
 5170TIP3    H137001   3.301   1.592   1.906 -0.2471 -0.4897  0.1291
 5170TIP3    H237002   3.377   1.720   1.876 -1.1334  0.6606  2.6274
 5171TIP3   OH237003   0.392   5.808  11.434  0.1462 -0.4153  0.6814
 5171TIP3    H137004   0.475   5.802  11.388  0.3138 -0.2597  0.9614
 5171TIP3    H237005   0.376   5.902  11.443  0.2028 -0.4443  1.1009
 5172TIP3   OH237006   5.290   3.032  14.722 -0.0481  0.7177 -0.1785
 5172TIP3    H137007   5.319   2.972  14.653  0.2164 -0.1410  0.6587
 5172TIP3    H237008   5.258   2.974  14.791  0.6921  1.5233  0.8540
 5173TIP3   OH237009   5.702   3.292   2.875  0.5101  0.3317 -0.1120
 5173TIP3    H137010   5.775   3.351   2.858 -1.0169  2.1965 -0.4714
 5173TIP3    H237011   5.624   3.348   2.867 -0.9212 -1.4741  0.7823
 5174TIP3   OH237012   3.639   4.392  11.699  0.1228 -0.3838  0.6551
 5174TIP3    H137013   3.620   4.321  11.761  1.7103 -0.5391  0.9736
 5174TIP3    H237014   3.687   4.349  11.628  0.6023  0.2679  0.5838
 5175TIP3   OH237015   5.529   0.309   5.378  0.0173  0.1830 -0.1864
 5175TIP3    H137016   5.469   0.375   5.344  1.1832  0.3203 -2.0034
 5175TIP3    H237017   5.473   0.252   5.431 -1.4895  1.0171 -0.8369
 5176TIP3   OH237018   3.950   6.793   4.615 -0.2740 -0.1596 -0.5683
 5176TIP3    H137019   3.913   6.731   4.678  0.5917  0.5429  0.6628
 5176TIP3    H237020   4.013   6.741   4.565 -0.6277 -0.6229 -0.5348
 5177TIP3   OH237021   2.397   0.290  11.542  0.6246  0.1251  0.5599
 5177TIP3    H137022   2.450   0.341  11.604  0.3853  1.0239  0.0344
 5177TIP3    H237023   2.452   0.215  11.519  1.0002  0.1625  1.3066
 5178TIP3   OH237024   4.167   1.890   2.700  0.1285  0.0517  0.1068
 5178TIP3    H137025   4.147   1.798   2.681 -0.2851  0.1091  0.2689
 5178TIP3    H237026   4.085   1.936   2.685  0.7940  0.6692 -1.7479
 5179TIP3   OH237027   2.531   4.324  11.290 -0.4374 -0.2770  0.6963
 5179TIP3    H137028   2.448   4.357  11.326 -0.8951 -1.7811  1.0828
 5179TIP3    H237029   2.509   4.237  11.257  0.3769  0.4073 -1.7423
 5180TIP3   OH237030   2.009   0.803   2.209  0.0759 -0.0895 -0.0944
 5180TIP3    H137031   1.946   0.800   2.281  0.2484  0.6862  0.0857
 5180TIP3    H237032   2.013   0.712   2.178 -0.2297 -0.3687  0.6654
 5181TIP3   OH237033   1.867   3.341   4.261 -0.0952  0.0043  0.2547
 5181TIP3    H137034   1.933   3.398   4.222 -0.5827 -0.7303 -1.7129
 5181TIP3    H237035   1.784   3.388   4.247 -0.6873 -1.8372 -2.7565
 5182TIP3   OH237036   2.315   2.763   5.661  0.7451 -0.0273  0.4247
 5182TIP3    H137037   2.401   2.802   5.673  0.7056 -0.4758  2.3882
 5182TIP3    H237038   2.324   2.674   5.694 -0.4580 -0.1002  0.5809
 5183TIP3   OH237039   1.225   1.231  11.850 -0.3985  0.0356  0.0296
 5183TIP3    H137040   1.143   1.184  11.864  0.1562 -0.5206  1.6000
 5183TIP3    H237041   1.204   1.322  11.868 -1.0755  0.1492 -1.3086
 5184TIP3   OH237042   3.578   2.733   1.081 -0.3880  0.6386 -0.0847
 5184TIP3    H137043   3.627   2.685   1.015  1.3231  0.0256  1.5773
 5184TIP3    H237044   3.538   2.665   1.136 -1.6489  1.1348 -0.3768
 5185TIP3   OH237045   4.797   6.451   5.267 -0.2042  0.4844  0.3208
 5185TIP3    H137046   4.854   6.526   5.255  0.9896 -0.2688  1.1549
 5185TIP3    H237047   4.716   6.488   5.303  0.8421  1.2512  1.9564
 5186TIP3   OH237048   2.644   1.376  14.048  0.9348  0.8133  0.7917
 5186TIP3    H137049   2.723   1.348  14.002  0.0520  0.4967 -0.5634
 5186TIP3    H237050   2.604   1.294  14.078 -0.0310  0.8156 -0.4680
 5187TIP3   OH237051   6.354   0.471   2.468  0.3037  0.2947  0.3653
 5187TIP3    H137052   6.303   0.548   2.443  0.6872  0.1878 -0.7696
 5187TIP3    H237053   6.441   0.504   2.487 -0.1753  0.4781  2.3207
 5188TIP3   OH237054   2.101   3.524   0.068 -0.0604  0.8862  0.1786
 5188TIP3    H137055   2.018   3.550   0.108  0.2880  2.0622  0.1622
 5188TIP3    H237056   2.104   3.574  -0.014 -0.1572 -0.5058 -0.6902
 5189TIP3   OH237057   4.955   2.769   6.197 -0.1433 -0.0920  0.5583
 5189TIP3    H137058   5.050   2.764   6.212  0.1655 -0.1266 -1.2909
 5189TIP3    H237059   4.932   2.860   6.219  0.4113  0.0790  0.4391
 5190TIP3   OH237060   3.356   3.007   3.452 -0.2444  0.8159 -0.1662
 5190TIP3    H137061   3.381   3.098   3.469  0.9362  0.0990  2.1687
 5190TIP3    H237062   3.396   2.958   3.523 -0.3126 -1.6399 -1.7646
 5191TIP3   OH237063   4.096   3.110   3.299  0.4674 -0.3456  0.1145
 5191TIP3    H137064   4.073   3.097   3.391 -0.3412  1.9261  0.2688
 5191TIP3    H237065   4.026   3.166   3.264  2.4933  1.5661 -1.0130
 5192TIP3   OH237066   1.105   2.748  11.954 -0.6408 -0.3197 -0.7167
 5192TIP3    H137067   1.176   2.800  11.917 -1.0851  1.0412  0.3132
 5192TIP3    H237068   1.147   2.697  12.024 -0.5604  0.0937 -0.4570
 5193TIP3   OH237069   6.593   6.502   5.388 -0.0466 -0.0750  0.4122
 5193TIP3    H137070   6.591   6.584   5.338  0.0289  0.2172  0.8883
 5193TIP3    H237071   6.539   6.519   5.465  0.9527 -0.0722  1.1189
 5194TIP3   OH237072   3.973   3.425   5.178 -0.2086 -0.0194  0.3871
 5194TIP3    H137073   3.935   3.405   5.093  1.2720  0.8136 -0.4877
 5194TIP3    H237074   4.004   3.341   5.211 -0.1372 -0.2308 -0.2161
 5195TIP3   OH237075   3.657   1.255  12.514  0.6291  0.4048 -0.1239
 5195TIP3    H137076   3.563   1.269  12.526  0.5703  0.0273 -0.1433
 5195TIP3    H237077   3.664   1.217  12.427  0.8301  0.7395 -0.2537
 5196TIP3   OH237078   3.280   4.040  15.788  0.4299  0.0058 -0.2231
 5196TIP3    H137079   3.262   3.982  15.862 -0.6194 -0.7503 -1.0466
 5196TIP3    H237080   3.223   4.115  15.802 -2.1029 -1.5209 -1.8248
 5197TIP3   OH237081   0.248   6.565   5.029 -0.1610 -0.2779 -0.3524
 5197TIP3    H137082   0.163   6.551   5.071  0.0696 -1.0158 -0.1295
 5197TIP3    H237083   0.295   6.482   5.040  0.1629 -0.2589 -1.4567
 5198TIP3   OH237084   2.465   2.228  13.485 -0.5780  0.0122  0.3949
 5198TIP3    H137085   2.432   2.317  13.494  0.8963  0.7988 -1.5770
 5198TIP3    H237086   2.446   2.186  13.570  1.1215  3.0062  2.3547
 5199TIP3   OH237087   6.803   2.910  15.669  0.0531  0.1299  0.0280
 5199TIP3    H137088   6.740   2.860  15.721  1.2264  0.2136  1.5649
 5199TIP3    H237089   6.781   3.001  15.686  0.2345  0.1533  0.1386
 5200TIP3   OH237090   3.899   3.769  11.253 -0.0599 -0.0365  0.2579
 5200TIP3    H137091   3.981   3.745  11.296  0.4229  0.3628 -0.4267
 5200TIP3    H237092   3.921   3.773  11.160 -1.3186 -1.8789 -0.1633
 5201TIP3   OH237093   3.397   3.898   3.919  0.1472 -0.0012 -0.6886
 5201TIP3    H137094   3.433   3.984   3.899 -0.1965  0.6695  1.4378
 5201TIP3    H237095   3.353   3.910   4.003 -1.3492 -1.8491 -1.1763
 5202TIP3   OH237096   3.318   6.602  13.036  0.8465 -0.0021  0.4461
 5202TIP3    H137097   3.351   6.541  12.969  0.8984 -0.1433  0.5991
 5202TIP3    H237098   3.362   6.575  13.116  2.2387  1.3757  0.1665
 5203TIP3   OH237099   3.282   4.687   0.567 -0.0810 -0.0201 -0.5460
 5203TIP3    H137100   3.211   4.666   0.628 -0.3803  1.5085 -0.3561
 5203TIP3    H237101   3.239   4.727   0.492  0.4779 -0.1657 -0.9495
 5204TIP3   OH237102   6.619   0.021  16.178 -0.2722 -0.3670  0.2607
 5204TIP3    H137103   6.588  -0.043  16.114  0.9323 -0.1563 -0.5421
 5204TIP3    H237104   6.604   0.106  16.136  0.9058 -0.2430  0.0680
 5205TIP3   OH237105   5.931   0.498   5.369 -0.4600  0.0439 -0.5349
 5205TIP3    H137106   5.864   0.531   5.309 -0.2184 -1.5504 -1.7157
 5205TIP3    H237107   5.883   0.471   5.447 -0.7928  2.0234 -0.0306
 5206TIP3   OH237108   3.091   4.998   4.819 -0.2524  0.3737 -0.0031
 5206TIP3    H137109   3.068   5.063   4.752 -0.0512 -0.7416 -1.1756
 5206TIP3    H237110   3.015   4.940   4.822  0.0709 -0.0371  0.1764
 5207TIP3   OH237111   5.255   2.703   0.067  0.6987  0.4761  0.5639
 5207TIP3    H137112   5.207   2.776   0.107  1.9750  0.8143  1.4950
 5207TIP3    H237113   5.234   2.709  -0.026  0.5753  1.8806  0.6683
 5208TIP3   OH237114   1.893   6.641   4.303  0.1057 -0.6997  0.1920
 5208TIP3    H137115   1.971   6.696   4.296 -2.6723  3.2384 -1.5621
 5208TIP3    H237116   1.868   6.645   4.395 -0.0484  0.9318  0.0790
 5209TIP3   OH237117   2.260   6.272  13.049 -0.5403  0.0670  0.5073
 5209TIP3    H137118   2.193   6.306  12.991  0.3357 -0.5163 -0.8675
 5209TIP3    H237119   2.230   6.184  13.071  0.1605 -0.4925 -0.7495
 5210TIP3   OH237120   0.840   6.555  16.687 -0.0191  0.0032 -0.2614
 5210TIP3    H137121   0.855   6.524  16.598  0.8718  1.0134 -0.4876
 5210TIP3    H237122   0.907   6.622  16.700  0.5310 -0.8647  1.5438
 5211TIP3   OH237123   3.711   5.929   2.605 -0.3396 -0.1742 -0.4050
 5211TIP3    H137124   3.619   5.912   2.584 -0.4854  0.0053  0.0664
 5211TIP3    H237125   3.714   6.023   2.624 -0.2915 -0.3873  0.7033
 5212TIP3   OH237126   6.669   1.019  10.790 -0.0028 -0.2519  0.3582
 5212TIP3    H137127   6.607   0.977  10.731  0.2553  0.4021 -0.3913
 5212TIP3    H237128   6.620   1.093  10.827 -0.0322 -0.4139  0.6449
 5213TIP3   OH237129   3.543   5.736  13.913  0.4891  0.1996 -0.0920
 5213TIP3    H137130   3.566   5.651  13.950 -0.2792 -0.1741 -0.4580
 5213TIP3    H237131   3.563   5.728  13.820 -2.0372 -0.4851 -0.6117
 5214TIP3   OH237132   2.729   0.887  12.684 -0.1991 -0.0261 -0.4048
 5214TIP3    H137133   2.819   0.859  12.698  0.3315  0.8313 -1.9840
 5214TIP3    H237134   2.676   0.817  12.723  1.1333 -1.3990 -1.0029
 5215TIP3   OH237135   5.067   3.517  14.039 -0.0759  0.3946 -0.5336
 5215TIP3    H137136   5.076   3.548  13.949  0.3295 -0.8209 -0.9221
 5215TIP3    H237137   5.119   3.437  14.042 -1.1926 -0.3076  0.4258
 5216TIP3   OH237138   4.451   1.999   3.698  0.6094  0.0621 -0.5306
 5216TIP3    H137139   4.468   2.072   3.638 -0.6339 -1.1881 -2.4573
 5216TIP3    H237140   4.500   1.926   3.659  1.4993 -0.2568  1.1510
 5217TIP3   OH237141   4.361   0.386  11.855  0.1573 -0.0150 -0.3940
 5217TIP3    H137142   4.272   0.397  11.822 -0.0903  0.4436  0.3997
 5217TIP3    H237143   4.413   0.451  11.807  0.0856 -0.3635 -0.9401
 5218TIP3   OH237144   5.607   1.230   1.397  0.4668  0.0220 -0.0161
 5218TIP3    H137145   5.647   1.145   1.417 -0.1675 -0.8663 -2.3888
 5218TIP3    H237146   5.515   1.210   1.382  0.1495  1.2747  0.2124
 5219TIP3   OH237147   2.161   1.314   0.234  0.5095 -0.0535 -0.8202
 5219TIP3    H137148   2.084   1.306   0.178  1.1224  1.1558 -1.8482
 5219TIP3    H237149   2.226   1.256   0.193  0.0745 -1.2975  0.2083
 5220TIP3   OH237150   4.815   2.108   5.497 -0.5108 -0.1251  0.6497
 5220TIP3    H137151   4.901   2.100   5.454 -0.2922 -1.2157  1.2847
 5220TIP3    H237152   4.806   2.201   5.514  1.0440 -0.1298  1.5817
 5221TIP3   OH237153   2.532   5.963  13.882  0.4712 -0.2667 -0.3025
 5221TIP3    H137154   2.530   5.872  13.911  1.0650 -0.5973 -1.2873
 5221TIP3    H237155   2.440   5.986  13.870  0.2119 -0.1261  1.8019
 5222TIP3   OH237156   4.170   6.088   0.230 -0.1803 -0.1197 -0.5789
 5222TIP3    H137157   4.193   6.130   0.147 -1.2982 -1.4991 -1.6140
 5222TIP3    H237158   4.076   6.104   0.240 -0.3968 -1.4340 -0.4511
 5223TIP3   OH237159   1.611   6.137  12.294 -0.2798  0.1007  0.2299
 5223TIP3    H137160   1.696   6.101  12.272 -0.0370 -0.0415  1.3712
 5223TIP3    H237161   1.552   6.104  12.225  0.8282  1.3050 -1.3273
 5224TIP3   OH237162   2.708   0.901   5.110  0.0506  0.3248  0.0523
 5224TIP3    H137163   2.645   0.866   5.173 -0.4850  1.5499  0.2159
 5224TIP3    H237164   2.690   0.853   5.029  0.7611 -1.2744  0.8290
 5225TIP3   OH237165   4.734   4.608  15.210 -0.2106  0.2760  0.1193
 5225TIP3    H137166   4.663   4.557  15.171 -0.8556  0.2817  1.2757
 5225TIP3    H237167   4.691   4.687  15.245 -0.0137 -0.7860  2.8581
 5226TIP3   OH237168   0.610   1.207  15.771 -0.0408 -0.1654  0.3208
 5226TIP3    H137169   0.699   1.233  15.745 -0.1874  0.0841  0.0647
 5226TIP3    H237170   0.566   1.290  15.789 -0.1786 -0.2993  0.5940
 5227TIP3   OH237171   3.092   6.219   3.989 -0.2873 -0.0144 -0.2566
 5227TIP3    H137172   3.033   6.150   4.019 -0.0456 -0.1573 -0.1016
 5227TIP3    H237173   3.154   6.230   4.062  0.1680 -0.2043 -0.6129
 5228TIP3   OH237174   5.843   6.203  14.808  0.0615 -0.1748  0.2820
 5228TIP3    H137175   5.749   6.197  14.826  0.1143  0.2563  0.7074
 5228TIP3    H237176   5.855   6.292  14.776  0.0277 -0.8131 -1.5595
 5229TIP3   OH237177   5.356   5.059  10.900 -0.7790 -0.0419 -0.5782
 5229TIP3    H137178   5.273   5.035  10.859 -0.7532 -1.5665  0.2475
 5229TIP3    H237179   5.353   5.020  10.988  0.7332  0.0133 -0.4743
 5230TIP3   OH237180   0.815   0.822  12.254  0.2062  0.4115  0.3322
 5230TIP3    H137181   0.745   0.821  12.189 -1.3976  1.0959  1.9878
 5230TIP3    H237182   0.776   0.782  12.332  2.1753 -0.6795  0.7871
 5231TIP3   OH237183   5.428   3.957  13.574  0.0586 -0.2187  0.5767
 5231TIP3    H137184   5.411   3.865  13.594  1.5996 -0.3796  1.2197
 5231TIP3    H237185   5.370   3.977  13.500  0.3974 -1.9616 -0.1788
 5232TIP3   OH237186   2.184   5.110  11.804 -0.7033 -0.1510  0.2676
 5232TIP3    H137187   2.112   5.118  11.741 -0.3482 -2.0121 -0.3867
 5232TIP3    H237188   2.211   5.201  11.821 -1.9452  0.4567 -0.9315
 5233TIP3   OH237189   3.067   5.754   3.051 -0.3459  0.1286  0.5196
 5233TIP3    H137190   3.132   5.772   3.119 -0.6183 -1.2409  1.1632
 5233TIP3    H237191   2.988   5.801   3.079  0.2083  1.4209 -0.0320
 5234TIP3   OH237192   1.801   5.049  16.524  0.1383 -0.6083 -0.0926
 5234TIP3    H137193   1.876   5.035  16.466 -0.4349 -1.1462 -0.6990
 5234TIP3    H237194   1.775   4.961  16.551 -2.1382 -0.6307 -2.2413
 5235TIP3   OH237195   1.185   6.778   6.038 -0.4834 -0.6397  0.0531
 5235TIP3    H137196   1.127   6.703   6.034  0.0628 -1.1388  1.2982
 5235TIP3    H237197   1.183   6.806   6.129 -0.7779  0.9367 -0.4204
 5236TIP3   OH237198   0.307   4.019  11.751  0.0033  0.0623  0.0232
 5236TIP3    H137199   0.371   4.010  11.822  0.7835 -0.3917 -0.7216
 5236TIP3    H237200   0.330   3.950  11.689  0.2943  1.3905 -1.3877
 5237TIP3   OH237201   2.042   1.592   4.557  0.3981  0.1676  0.5935
 5237TIP3    H137202   2.135   1.569   4.547 -0.1808 -2.0701  0.1055
 5237TIP3    H237203   2.005   1.519   4.608 -1.7347 -0.5422 -1.8951
 5238TIP3   OH237204   1.075   5.145  14.779  0.1284  0.1935  0.5396
 5238TIP3    H137205   0.995   5.179  14.738 -0.1111  1.7901  2.2772
 5238TIP3    H237206   1.146   5.195  14.737  0.1854 -0.6592 -0.4190
 5239TIP3   OH237207   4.305   0.764   2.842 -0.2019 -0.1414  0.3819
 5239TIP3    H137208   4.290   0.716   2.924  0.7355 -0.4707  0.3665
 5239TIP3    H237209   4.230   0.823   2.835 -0.0031  0.3044  1.7877
 5240TIP3   OH237210   3.866   3.114   4.908 -0.4876  0.4083 -0.0853
 5240TIP3    H137211   3.937   3.058   4.939  1.7810  1.2940 -3.4031
 5240TIP3    H237212   3.795   3.054   4.888  0.4682 -0.8515  0.2067
 5241TIP3   OH237213   0.547   4.758   5.810  0.1807  0.0210 -0.0452
 5241TIP3    H137214   0.622   4.706   5.781  0.9819  0.9184  0.3440
 5241TIP3    H237215   0.553   4.756   5.906  0.1855  0.7585 -0.0250
 5242TIP3   OH237216   6.673   2.116  12.309  0.2583 -0.0954 -0.2655
 5242TIP3    H137217   6.594   2.171  12.308  0.7821  0.7201  1.3480
 5242TIP3    H237218   6.665   2.062  12.230 -1.9163 -0.0411 -0.1309
 5243TIP3   OH237219   1.917   4.540   0.232  0.4945  0.4851  0.1360
 5243TIP3    H137220   1.844   4.592   0.195 -0.1982  1.0670  2.2218
 5243TIP3    H237221   1.895   4.450   0.211 -1.1854  0.5991  1.2201
 5244TIP3   OH237222   2.223   1.671  12.920 -0.2098  0.3739  0.4169
 5244TIP3    H137223   2.179   1.681  12.836  0.1778  2.4824  0.4438
 5244TIP3    H237224   2.162   1.707  12.984  0.0453 -0.0055  0.8764
 5245TIP3   OH237225   5.807   2.883   3.535  0.5747 -0.7242  0.6474
 5245TIP3    H137226   5.816   2.974   3.562 -1.2174  0.0582 -1.3157
 5245TIP3    H237227   5.842   2.880   3.446  2.0591 -2.2973  1.2606
 5246TIP3   OH237228   4.763   6.684  15.884  0.1564  0.0795 -1.2225
 5246TIP3    H137229   4.820   6.696  15.808  2.3037  0.0769  0.3280
 5246TIP3    H237230   4.696   6.752  15.875  1.5681  1.3953 -2.0833
 5247TIP3   OH237231   6.273   2.902  10.601  0.0734 -0.6575  0.1742
 5247TIP3    H137232   6.288   2.831  10.539 -1.3725  1.6382 -2.9188
 5247TIP3    H237233   6.348   2.960  10.590  0.3397 -0.7545  1.3760
 5248TIP3   OH237234   3.953   1.444  15.109 -0.2990  0.6941 -0.2330
 5248TIP3    H137235   3.925   1.460  15.199 -1.4692  1.0587 -0.6592
 5248TIP3    H237236   3.942   1.350  15.096  0.3052  0.5680  0.1466
 5249TIP3   OH237237   1.882   4.069  12.335  0.0850  0.2248  0.3061
 5249TIP3    H137238   1.858   3.983  12.370 -1.8052  0.8653  0.6452
 5249TIP3    H237239   1.882   4.127  12.411  0.5552  0.6788 -0.0409
 5250TIP3   OH237240   0.248   5.991   3.347  0.2387 -0.1089  0.1689
 5250TIP3    H137241   0.172   5.974   3.291 -0.0187  0.5518  0.3068
 5250TIP3    H237242   0.299   6.056   3.300  0.1715  0.2331  0.5602
 5251TIP3   OH237243   4.557   4.733   0.390 -0.1978 -0.3349 -0.0878
 5251TIP3    H137244   4.509   4.709   0.311 -0.3441  0.8731 -0.3824
 5251TIP3    H237245   4.607   4.811   0.365  1.0920 -0.9462  0.5291
 5252TIP3   OH237246   5.459   1.846   1.589  1.3947  0.3460  0.6105
 5252TIP3    H137247   5.528   1.853   1.656  0.9009 -1.2895  1.3101
 5252TIP3    H237248   5.431   1.755   1.593 -0.3511  0.8343 -0.1381
 5253TIP3   OH237249   5.297   2.682   1.378 -0.1989 -0.4670 -0.1450
 5253TIP3    H137250   5.246   2.606   1.350  0.4695 -0.0689 -2.5203
 5253TIP3    H237251   5.349   2.650   1.451 -2.1753 -1.4715  0.8631
 5254TIP3   OH237252   0.421   4.160  16.507 -0.1654 -0.4796  0.2598
 5254TIP3    H137253   0.379   4.103  16.572 -0.9745  0.1693  0.3213
 5254TIP3    H237254   0.415   4.248  16.545 -1.7019  0.0786 -1.1886
 5255TIP3   OH237255   3.494   2.986   3.732  0.6021  0.2577 -0.7067
 5255TIP3    H137256   3.489   3.069   3.779 -0.6726  0.2972 -0.8848
 5255TIP3    H237257   3.567   2.997   3.671  1.0251  0.9072 -0.0895
 5256TIP3   OH237258   6.183   4.164   2.436  0.1479  0.0531 -0.3248
 5256TIP3    H137259   6.178   4.129   2.347  0.8902  1.3224 -0.8792
 5256TIP3    H237260   6.244   4.238   2.429  0.0040  0.3211  1.1832
 5257TIP3   OH237261   4.093   3.486   1.089 -0.7392  0.2680  0.3736
 5257TIP3    H137262   4.085   3.576   1.120 -0.8957  0.2811  0.2972
 5257TIP3    H237263   4.141   3.441   1.159 -0.5214  0.4467  0.3391
 5258TIP3   OH237264   5.182   4.558  16.271  0.3527 -0.3934  0.2471
 5258TIP3    H137265   5.113   4.523  16.214  0.9275 -0.2363 -0.5627
 5258TIP3    H237266   5.157   4.650  16.284  0.4318 -0.3167 -0.1053
 5259TIP3   OH237267   2.155   3.374   3.354 -0.7363  0.2578  0.0014
 5259TIP3    H137268   2.182   3.370   3.446 -1.3211  0.4901  0.1824
 5259TIP3    H237269   2.173   3.464   3.327 -0.0100  0.0349 -0.2884
 5260TIP3   OH237270   5.239   5.364  12.567 -0.0354  0.1646  0.5784
 5260TIP3    H137271   5.307   5.418  12.527  0.4255  0.4865  1.7766
 5260TIP3    H237272   5.267   5.353  12.658 -1.1104 -0.4823  0.8436
 5261TIP3   OH237273   1.813   6.344  16.459 -0.2060 -0.0964  0.6524
 5261TIP3    H137274   1.885   6.354  16.397 -0.2022 -0.1035  0.6573
 5261TIP3    H237275   1.761   6.425  16.449 -0.1294 -0.0357  0.7403
 5262TIP3   OH237276   2.906   2.467   6.663  0.4473  0.1113 -0.7315
 5262TIP3    H137277   2.842   2.484   6.594  1.2473  0.5002 -1.3814
 5262TIP3    H237278   2.988   2.450   6.617  0.7872 -0.5591  0.0882
 5263TIP3   OH237279   0.670   2.709   1.312  0.3435 -0.2232  0.5701
 5263TIP3    H137280   0.676   2.646   1.384 -0.7507 -0.1821  0.6975
 5263TIP3    H237281   0.580   2.701   1.280 -0.6232  3.1095  2.2642
 5264TIP3   OH237282   1.234   3.940  14.735  0.1497 -0.5054  0.4390
 5264TIP3    H137283   1.164   3.932  14.800 -1.8607 -0.8893 -1.7019
 5264TIP3    H237284   1.266   3.850  14.724  1.6684 -0.1998  2.0961
 5265TIP3   OH237285   2.015   5.394  14.978 -0.1827 -0.1053 -0.0005
 5265TIP3    H137286   2.062   5.477  14.989 -0.9798  0.2294  0.9372
 5265TIP3    H237287   1.923   5.419  14.966 -0.2282 -0.7907 -1.2111
 5266TIP3   OH237288   3.231   0.563  14.998 -0.0122  0.5129 -0.0743
 5266TIP3    H137289   3.260   0.523  15.080  0.8195 -0.0389 -0.6205
 5266TIP3    H237290   3.210   0.653  15.020 -0.5065  0.1674  0.8914
 5267TIP3   OH237291   0.648   4.220  14.484  0.3654  0.1549  0.5194
 5267TIP3    H137292   0.742   4.206  14.475  0.4267  1.9958 -1.9421
 5267TIP3    H237293   0.636   4.240  14.577  2.5957  1.1745  0.6219
 5268TIP3   OH237294   5.300   6.317  14.644  0.0768  0.1163  0.3124
 5268TIP3    H137295   5.357   6.246  14.673  1.5345  1.3315  0.4684
 5268TIP3    H237296   5.244   6.278  14.577  2.7019 -0.5307 -1.5813
 5269TIP3   OH237297   2.167   6.014   3.259  0.1455  0.2592  0.1615
 5269TIP3    H137298   2.075   6.000   3.284  0.1240  0.7841  0.3658
 5269TIP3    H237299   2.168   6.100   3.218  0.8139  0.8609  1.4434
 5270TIP3   OH237300   5.943   6.804   0.334 -0.4669  0.1601 -0.0090
 5270TIP3    H137301   5.860   6.847   0.353 -0.7297 -1.7759  3.6032
 5270TIP3    H237302   5.918   6.724   0.287 -0.8784 -1.3187  2.6192
 5271TIP3   OH237303   2.733   4.163  15.975 -0.0763 -0.3472  0.4760
 5271TIP3    H137304   2.740   4.084  15.920  1.3655  0.3074 -0.2975
 5271TIP3    H237305   2.821   4.176  16.009 -0.3987  0.7374  0.8984
 5272TIP3   OH237306   2.288   3.276  12.979 -0.2485 -0.1889 -0.0056
 5272TIP3    H137307   2.381   3.255  12.986 -0.5324 -0.7418  2.2027
 5272TIP3    H237308   2.252   3.210  12.919  0.1692 -1.9518  1.6490
 5273TIP3   OH237309   6.819   1.630   5.541  0.0758 -0.1156  0.0217
 5273TIP3    H137310   6.861   1.607   5.458  0.4671  0.5834  0.0267
 5273TIP3    H237311   6.742   1.680   5.516 -0.4585 -0.9214  0.0356
 5274TIP3   OH237312   3.272   2.917  15.250 -0.1600  0.7491 -1.1942
 5274TIP3    H137313   3.306   2.991  15.301  0.3629 -0.1550 -0.2184
 5274TIP3    H237314   3.343   2.895  15.190  0.7783 -0.7607  0.4420
 5275TIP3   OH237315   1.358   4.008   0.938  0.3402  0.5745  0.1077
 5275TIP3    H137316   1.267   4.037   0.939  0.3949  0.7812 -0.6726
 5275TIP3    H237317   1.356   3.921   0.979 -0.5333 -0.3526 -1.8538
 5276TIP3   OH237318   4.054   4.070   5.717  0.7316  0.0362 -0.1048
 5276TIP3    H137319   4.080   4.154   5.755  1.9280  0.4317 -1.7275
 5276TIP3    H237320   4.090   4.072   5.628 -1.3093 -1.1900 -0.9850
 5277TIP3   OH237321   2.890   3.011  10.408 -0.0732  0.1484 -0.2169
 5277TIP3    H137322   2.803   2.975  10.389  0.4932  0.1662 -3.1640
 5277TIP3    H237323   2.889   3.098  10.368  1.2585  0.1972 -0.1659
 5278TIP3   OH237324   1.754   5.403  14.918  0.2159  0.1526  0.2518
 5278TIP3    H137325   1.672   5.385  14.964 -0.6218 -0.2276 -1.3299
 5278TIP3    H237326   1.755   5.498  14.908  0.1107  0.1849  0.5426
 5279TIP3   OH237327   4.017   6.531  13.461  0.2185  0.1551 -0.0090
 5279TIP3    H137328   4.045   6.543  13.370  1.7687  0.7024  0.5227
 5279TIP3    H237329   4.013   6.437  13.473  1.9047  0.0509 -0.1124
 5280TIP3   OH237330   6.316   2.485  11.718  0.6888  0.1213 -0.3218
 5280TIP3    H137331   6.259   2.504  11.792  0.2744 -0.7710 -0.3997
 5280TIP3    H237332   6.271   2.523  11.642  0.3969 -0.2199 -0.3217
 5281TIP3   OH237333   1.968   5.042  15.207 -0.3049 -0.3595 -0.5944
 5281TIP3    H137334   1.986   5.129  15.242  0.2493 -0.1053 -1.5105
 5281TIP3    H237335   1.875   5.044  15.185 -1.0605 -1.0206  2.2555
 5282TIP3   OH237336   1.672   2.344  16.241  0.5025 -0.3797  0.3665
 5282TIP3    H137337   1.588   2.341  16.195  0.6951 -0.6805  0.0379
 5282TIP3    H237338   1.696   2.437  16.241  0.0325 -0.2560  0.7045
 5283TIP3   OH237339   1.755   2.167   5.870  0.3226  0.2989 -0.0576
 5283TIP3    H137340   1.778   2.259   5.858 -0.1285  0.3837 -0.2810
 5283TIP3    H237341   1.709   2.165   5.954  1.3153  0.0975  0.4848
 5284TIP3   OH237342   5.705   4.564   5.548  0.3412 -0.4489 -0.0819
 5284TIP3    H137343   5.655   4.639   5.582  0.9206  0.6009 -1.4882
 5284TIP3    H237344   5.738   4.520   5.626 -0.4664  0.4583  0.7869
 5285TIP3   OH237345   1.175   1.246   5.979  0.5019 -0.7250 -0.3770
 5285TIP3    H137346   1.255   1.195   5.964  2.5206  2.3787 -0.5186
 5285TIP3    H237347   1.153   1.229   6.070  1.2830 -1.6611 -0.3553
 5286TIP3   OH237348   0.430   1.750  16.504 -0.2037 -0.2541 -0.2516
 5286TIP3    H137349   0.349   1.792  16.474 -0.7575 -1.7806 -0.9718
 5286TIP3    H237350   0.400   1.678  16.560  0.7358  0.4215  1.1523
 5287TIP3   OH237351   4.231   5.185  14.134 -0.2056 -0.3669  0.2367
 5287TIP3    H137352   4.227   5.104  14.185 -1.3809 -0.5138 -0.0683
 5287TIP3    H237353   4.324   5.207  14.131  0.1527 -1.8325  0.1294
 5288TIP3   OH237354   3.584   2.316  16.192 -0.6380  0.5281  0.2647
 5288TIP3    H137355   3.657   2.255  16.203 -1.4572 -0.4343  0.3945
 5288TIP3    H237356   3.563   2.312  16.098 -1.2014  0.0213  0.4135
 5289TIP3   OH237357   2.179   4.193   3.261  0.0938 -0.0213  0.0242
 5289TIP3    H137358   2.220   4.280   3.264 -1.3653  0.6613  0.2206
 5289TIP3    H237359   2.250   4.135   3.232  1.8313  0.7910  2.3930
 5290TIP3   OH237360   4.550   2.202  14.097 -0.1054  0.2684  0.7784
 5290TIP3    H137361   4.572   2.294  14.087  0.0602  0.1128 -0.3340
 5290TIP3    H237362   4.478   2.188  14.035  0.4259 -0.5393  0.3399
 5291TIP3   OH237363   1.458   5.463  14.590  0.3916 -0.2404 -0.8103
 5291TIP3    H137364   1.546   5.426  14.579  0.6315 -0.5683  1.8092
 5291TIP3    H237365   1.438   5.504  14.506  2.6612 -0.9830 -1.7479
 5292TIP3   OH237366   4.160   1.042  12.665 -0.0536  0.1285 -0.2935
 5292TIP3    H137367   4.084   1.071  12.613 -1.1191 -1.4225  0.3732
 5292TIP3    H237368   4.148   0.948  12.674  1.4965  0.0121  0.5838
 5293TIP3   OH237369   1.660   3.340   0.133 -0.1013  1.1483  0.3729
 5293TIP3    H137370   1.605   3.376   0.063  0.0735  2.7533  1.0337
 5293TIP3    H237371   1.714   3.413   0.161 -0.1169  0.5150  2.1405
 5294TIP3   OH237372   0.736   0.460  16.783 -0.7999  0.0211  0.2183
 5294TIP3    H137373   0.669   0.410  16.830 -2.8618  1.4003 -1.2271
 5294TIP3    H237374   0.734   0.424  16.694  1.1320 -0.6413  0.4176
 5295TIP3   OH237375   2.173   3.412  13.888  0.2102 -0.0402 -0.2756
 5295TIP3    H137376   2.091   3.392  13.843 -0.0173 -0.6350  0.4129
 5295TIP3    H237377   2.238   3.413  13.818 -0.5093  1.3069 -0.9672
 5296TIP3   OH237378   2.335   4.971  12.901 -0.9419  0.0561  0.1672
 5296TIP3    H137379   2.350   5.051  12.952  2.4552 -0.6978  0.4931
 5296TIP3    H237380   2.394   4.907  12.940 -2.6407 -2.2358 -0.9672
 5297TIP3   OH237381   6.060   5.158   3.693 -0.0616  0.1475 -0.2410
 5297TIP3    H137382   6.083   5.239   3.738  3.8882 -0.6699 -0.6308
 5297TIP3    H237383   6.080   5.175   3.601  0.9222 -1.2962 -0.3048
 5298TIP3   OH237384   1.225   3.768  12.760  0.0124 -0.2647 -0.3406
 5298TIP3    H137385   1.285   3.789  12.688  1.2954  0.8465  1.0402
 5298TIP3    H237386   1.231   3.673  12.769  1.1819 -0.2131 -0.5375
 5299TIP3   OH237387   1.579   2.711   3.707  0.2430 -0.1951  0.3188
 5299TIP3    H137388   1.625   2.637   3.745  0.3803 -0.4965 -0.4202
 5299TIP3    H237389   1.641   2.784   3.713  0.4163 -0.3410  0.3080
 5300TIP3   OH237390   4.215   4.373   3.544 -0.0626 -0.0187  0.3316
 5300TIP3    H137391   4.150   4.328   3.491 -0.0562  2.5734 -1.9641
 5300TIP3    H237392   4.299   4.335   3.516 -0.1842  0.2501 -0.4024
 5301TIP3   OH237393   2.124   4.741   2.151 -0.4061 -0.4019  0.7738
 5301TIP3    H137394   2.166   4.662   2.114 -2.0543 -0.7912 -0.3116
 5301TIP3    H237395   2.186   4.811   2.132 -0.4945 -0.8645 -1.4008
 5302TIP3   OH237396   2.879   2.874   1.443  0.6084  0.0586 -0.2051
 5302TIP3    H137397   2.826   2.847   1.369  1.7732  0.0612 -1.0480
 5302TIP3    H237398   2.834   2.952   1.477 -2.1705 -2.2387  1.6059
 5303TIP3   OH237399   1.032   6.484  14.457  0.4719  0.4211  0.0108
 5303TIP3    H137400   0.954   6.502  14.509  0.7479  1.3126  0.1366
 5303TIP3    H237401   1.100   6.466  14.521  1.2125  3.1362  0.0644
 5304TIP3   OH237402   5.865   4.720  11.614  0.2906 -0.1241 -0.2554
 5304TIP3    H137403   5.880   4.805  11.655 -0.4809  0.0106 -0.2368
 5304TIP3    H237404   5.785   4.732  11.561 -0.4585 -1.1333  0.6174
 5305TIP3   OH237405   1.456   4.356  15.710 -1.3805 -0.1910  0.0775
 5305TIP3    H137406   1.486   4.444  15.733  0.9022 -0.8373 -0.3366
 5305TIP3    H237407   1.420   4.366  15.622  1.7098 -0.2235 -1.2629
 5306TIP3   OH237408   5.525   5.439   4.993  0.1113 -0.5929  0.7441
 5306TIP3    H137409   5.475   5.502   5.046  1.4278  1.2373 -0.1129
 5306TIP3    H237410   5.474   5.430   4.913 -0.4833 -1.2333  1.1926
 5307TIP3   OH237411   2.910   5.335   2.894 -0.1075 -0.9406 -0.1334
 5307TIP3    H137412   2.854   5.272   2.849  0.1219 -1.2840  0.0579
 5307TIP3    H237413   2.930   5.402   2.829 -1.0015 -0.6490 -0.1157
 5308TIP3   OH237414   4.185   4.713   2.211  0.1819  0.6091  0.4850
 5308TIP3    H137415   4.177   4.804   2.239 -0.2354  0.6113  0.3671
 5308TIP3    H237416   4.275   4.704   2.180  0.7185  0.5603  2.0083
 5309TIP3   OH237417   3.113   3.912   2.335 -0.7476 -0.3445 -0.2255
 5309TIP3    H137418   3.156   3.844   2.283  0.3616  1.7655 -2.1353
 5309TIP3    H237419   3.181   3.977   2.351 -1.2975 -0.5468  3.2188
 5310TIP3   OH237420   1.033   3.455  15.162 -0.6350 -0.3367  0.1561
 5310TIP3    H137421   1.074   3.372  15.137 -1.3721 -0.6803  0.0819
 5310TIP3    H237422   0.990   3.485  15.082  0.3985  0.5801 -0.0717
 5311TIP3   OH237423   2.632   5.492  14.316 -0.4973  0.3596  0.0413
 5311TIP3    H137424   2.668   5.436  14.248 -1.8630 -0.0154 -0.3885
 5311TIP3    H237425   2.587   5.562  14.269 -0.0452  1.0054  0.5654
 5312TIP3   OH237426   0.585   5.053   0.670  0.3192 -0.0878  0.4154
 5312TIP3    H137427   0.521   5.069   0.739  0.1229  0.3306  0.1324
 5312TIP3    H237428   0.659   5.110   0.693 -0.4044  1.3125 -0.6252
 5313TIP3   OH237429   2.472   3.254  16.468  0.2344 -0.4816  0.0809
 5313TIP3    H137430   2.504   3.205  16.543 -0.5837 -1.8031 -0.4351
 5313TIP3    H237431   2.452   3.341  16.503  0.0016 -1.0447  1.3517
 5314TIP3   OH237432   2.320   0.563  15.799 -0.3802 -0.2413 -0.1074
 5314TIP3    H137433   2.325   0.523  15.713 -0.5927 -0.0837 -0.1919
 5314TIP3    H237434   2.230   0.548  15.828  0.5023 -3.0027  1.4009
 5315TIP3   OH237435   6.177   6.605   5.300  0.4370 -0.3609  0.1633
 5315TIP3    H137436   6.161   6.512   5.312 -1.5470 -0.2285 -1.1184
 5315TIP3    H237437   6.092   6.641   5.272  1.2670  1.7387  0.2108
 5316TIP3   OH237438   3.848   0.448  14.744  0.4123  0.0479 -0.4125
 5316TIP3    H137439   3.776   0.422  14.802  0.1097 -1.7523 -1.5407
 5316TIP3    H237440   3.805   0.492  14.671  0.5674  0.0814 -0.4835
 5317TIP3   OH237441   3.713   5.758  12.533 -0.1138 -0.1658 -0.4051
 5317TIP3    H137442   3.799   5.800  12.528  0.3856 -1.2697 -1.2751
 5317TIP3    H237443   3.682   5.757  12.442 -1.4523  1.0165  0.0039
 5318TIP3   OH237444   4.009   2.725   1.431  0.4248 -0.6446 -0.1083
 5318TIP3    H137445   3.987   2.740   1.523  1.8547 -0.6987  0.2474
 5318TIP3    H237446   4.061   2.801   1.406  1.5225 -1.4777 -0.3743
 5319TIP3   OH237447   4.240   3.014   0.210 -0.3788  0.0465  0.1412
 5319TIP3    H137448   4.286   3.082   0.161 -0.6445  1.3068  1.6093
 5319TIP3    H237449   4.163   2.993   0.157 -0.6689  1.4036  0.0206
 5320TIP3   OH237450   1.021   4.756  13.409 -0.6878 -0.3891 -0.3646
 5320TIP3    H137451   0.986   4.821  13.348 -1.5091 -2.4196 -2.1122
 5320TIP3    H237452   1.099   4.722  13.367  1.0013  0.9905  1.5512
 5321TIP3   OH237453   4.675   2.124   0.977  0.1633 -0.5565  0.3793
 5321TIP3    H137454   4.642   2.187   1.041  2.0244  0.0925  0.7359
 5321TIP3    H237455   4.663   2.038   1.019 -3.0209 -0.5731 -0.3902
 5322TIP3   OH237456   0.959   2.341  16.012 -0.0709 -0.0167 -0.6020
 5322TIP3    H137457   0.918   2.255  16.020  1.6302 -0.6322  1.9277
 5322TIP3    H237458   1.044   2.322  15.970  1.6767 -0.0528  2.8178
 5323TIP3   OH237459   2.616   5.075   3.655  0.2465 -0.7719  0.0712
 5323TIP3    H137460   2.521   5.076   3.648  0.2462  0.0388  0.1621
 5323TIP3    H237461   2.647   5.065   3.565  0.1321  2.7948 -0.4281
 5324TIP3   OH237462   0.293   6.120   1.303 -0.0815 -0.0669  0.0826
 5324TIP3    H137463   0.355   6.048   1.309 -0.2445 -0.2678 -0.5932
 5324TIP3    H237464   0.210   6.079   1.279  0.2528  0.5186 -2.2314
 5325TIP3   OH237465   6.007   2.588  16.111  0.0097  0.0880 -0.3469
 5325TIP3    H137466   6.031   2.496  16.104 -1.2867 -0.1821 -1.6592
 5325TIP3    H237467   5.997   2.617  16.020  1.3347  1.7895  0.0213
 5326TIP3   OH237468   1.373   2.385   1.577  0.2365 -0.0165  0.5088
 5326TIP3    H137469   1.296   2.434   1.550 -0.7306 -1.7839 -0.0460
 5326TIP3    H237470   1.342   2.295   1.590  2.3168 -0.9396 -0.4526
 5327TIP3   OH237471   1.734   4.780  15.968 -0.0913 -0.2280 -0.5278
 5327TIP3    H137472   1.817   4.762  15.925  0.4091 -0.0530  0.3658
 5327TIP3    H237473   1.749   4.759  16.060 -0.5460  1.3254 -0.0781
 5328TIP3   OH237474   5.365   6.102  16.820 -0.5102  0.4393  0.2441
 5328TIP3    H137475   5.275   6.126  16.798 -0.0458  2.1249  0.0771
 5328TIP3    H237476   5.406   6.185  16.844  1.3750 -0.1127 -1.0123
 5329TIP3   OH237477   5.926   4.768  15.268 -0.1225  0.7416  0.2248
 5329TIP3    H137478   5.981   4.844  15.251  0.7654  0.6841  2.5752
 5329TIP3    H237479   5.988   4.696  15.282 -0.8808  0.0660  0.1770
 5330TIP3   OH237480   5.942   4.312   4.565 -0.2166  0.4018  0.1378
 5330TIP3    H137481   5.892   4.371   4.508 -0.0136  1.2349  0.8090
 5330TIP3    H237482   5.880   4.287   4.633  0.0376  0.7773  0.5079
 5331TIP3   OH237483   2.551   5.812  14.584  0.1476  0.2217  0.4146
 5331TIP3    H137484   2.540   5.718  14.598  0.4962 -0.1542 -1.7033
 5331TIP3    H237485   2.467   5.850  14.612 -0.1662 -0.7677  0.8329
 5332TIP3   OH237486   2.467   0.908  13.529  0.4315 -0.0552 -0.6486
 5332TIP3    H137487   2.552   0.866  13.518  0.1244 -1.1498  1.1052
 5332TIP3    H237488   2.405   0.850  13.484  0.3732 -0.1106 -0.4964
 5333TIP3   OH237489   1.612   5.609  16.809 -0.3403  0.6091 -0.4671
 5333TIP3    H137490   1.568   5.692  16.789 -0.3993  1.0834  1.5074
 5333TIP3    H237491   1.547   5.542  16.789 -0.4171  1.0435 -1.7336
 5334TIP3   OH237492   2.372   5.463  13.512 -0.1926  0.5778 -0.3422
 5334TIP3    H137493   2.382   5.403  13.586  0.7645  0.6540 -0.3988
 5334TIP3    H237494   2.327   5.539  13.549 -0.0515  0.4596  0.0830
 5335TIP3   OH237495   0.372   3.145   2.678  0.2339  0.4031 -0.3134
 5335TIP3    H137496   0.445   3.095   2.714  0.3310  0.1911 -0.7902
 5335TIP3    H237497   0.393   3.237   2.697  1.0427  0.4084 -1.1774
 5336TIP3   OH237498   6.758   1.929   3.391  0.4373 -0.3726 -0.4337
 5336TIP3    H137499   6.758   1.991   3.464  0.1143 -1.0008  0.1004
 5336TIP3    H237500   6.850   1.926   3.363  0.9146 -1.5841  1.1960
 5337TIP3   OH237501   4.421   4.193  14.982 -0.4276 -0.1693  0.0443
 5337TIP3    H137502   4.408   4.242  15.063  3.7066  0.0358  0.7159
 5337TIP3    H237503   4.481   4.248  14.931  0.4209 -2.2656 -1.2764
 5338TIP3   OH237504   3.658   3.801  10.567  0.0982 -0.0255  0.6297
 5338TIP3    H137505   3.706   3.794  10.650  2.3697 -0.6325 -0.7024
 5338TIP3    H237506   3.658   3.713  10.532  0.7431  0.5674 -0.8926
 5339TIP3   OH237507   4.360   0.790   6.041  0.4085 -0.0499 -0.7080
 5339TIP3    H137508   4.398   0.813   6.126 -1.6257 -1.1344  0.5426
 5339TIP3    H237509   4.379   0.697   6.030  0.9646  0.1677 -1.6139
 5340TIP3   OH237510   3.083   6.204  16.994  0.1008  0.0300  0.3713
 5340TIP3    H137511   3.013   6.221  17.057  0.3474 -0.9227  0.9166
 5340TIP3    H237512   3.159   6.181  17.048  0.1891 -1.2491 -0.2826
 5341TIP3   OH237513   3.196   4.113   1.007  0.1386 -0.2818  0.5244
 5341TIP3    H137514   3.151   4.068   0.936 -0.2887 -0.3574  0.8426
 5341TIP3    H237515   3.284   4.075   1.007  0.4302  0.3769 -0.5551
 5342TIP3   OH237516   3.504   4.689  10.861  0.0079 -0.6276  0.2780
 5342TIP3    H137517   3.524   4.623  10.794  0.1112  1.1834 -1.5179
 5342TIP3    H237518   3.491   4.770  10.812  1.1055  0.9691  2.5573
 5343TIP3   OH237519   4.648   2.967   3.816 -1.0367 -0.1675  0.2907
 5343TIP3    H137520   4.579   3.006   3.870 -0.8564  3.1625 -1.7610
 5343TIP3    H237521   4.722   3.028   3.823 -0.3250 -0.6962 -2.1455
 5344TIP3   OH237522   6.421   2.888  11.654  0.0419  0.0672  0.4862
 5344TIP3    H137523   6.487   2.914  11.720  0.0762  0.1981  0.4009
 5344TIP3    H237524   6.415   2.793  11.662  0.2949  0.0470  0.4433
 5345TIP3   OH237525   2.773   1.068  16.208 -0.4361  0.2938 -0.8121
 5345TIP3    H137526   2.812   1.155  16.200  2.7483 -1.1340 -1.7853
 5345TIP3    H237527   2.679   1.083  16.205  0.0345  3.7237 -0.5456
 5346TIP3   OH237528   3.567   3.766   0.328  0.5497 -0.2314 -0.5704
 5346TIP3    H137529   3.566   3.861   0.340  0.9800 -0.2938  0.0024
 5346TIP3    H237530   3.480   3.738   0.354  0.9310 -0.1660  0.8137
 5347TIP3   OH237531   4.809   0.587   0.960 -0.3675 -0.5538  0.0080
 5347TIP3    H137532   4.766   0.604   0.876 -0.1046  1.3191  0.2264
 5347TIP3    H237533   4.898   0.619   0.948 -0.0116 -1.2788  0.6666
 5348TIP3   OH237534   6.291   0.036  14.540  0.1945 -0.0048  0.3939
 5348TIP3    H137535   6.231  -0.012  14.482 -1.4661  2.5993 -0.1509
 5348TIP3    H237536   6.374   0.036  14.494 -0.3784 -0.4051 -0.6656
 5349TIP3   OH237537   5.705   5.957  10.556 -0.6871 -0.1406 -0.6441
 5349TIP3    H137538   5.763   5.881  10.552 -1.9065 -1.0109 -2.6838
 5349TIP3    H237539   5.736   6.013  10.485 -0.7581  0.5615 -0.1214
 5350TIP3   OH237540   5.791   3.394   3.720 -0.4989  0.0441  0.0346
 5350TIP3    H137541   5.701   3.399   3.753 -1.2882 -0.5195 -1.9943
 5350TIP3    H237542   5.794   3.314   3.669  2.2111 -1.9144  3.0636
 5351TIP3   OH237543   5.431   0.926  11.498  0.1411 -0.3697  0.3092
 5351TIP3    H137544   5.391   1.006  11.462  0.8769 -0.5760 -1.0103
 5351TIP3    H237545   5.451   0.873  11.421 -0.3520 -1.8475  1.1801
 5352TIP3   OH237546   4.015   3.293   2.929 -0.1693 -0.2156 -0.1771
 5352TIP3    H137547   4.106   3.272   2.911 -0.4796 -1.3405 -0.4818
 5352TIP3    H237548   4.018   3.366   2.991  0.9238  0.2082 -0.7182
 5353TIP3   OH237549   4.307   6.028  13.502 -0.5110  0.5810  0.3304
 5353TIP3    H137550   4.302   6.068  13.589 -1.0486  0.4964  0.3404
 5353TIP3    H237551   4.332   5.937  13.519 -0.9517  0.4775  0.4170
 5354TIP3   OH237552   5.420   1.648   4.047 -0.0899  0.2652  0.3117
 5354TIP3    H137553   5.456   1.645   3.958 -0.6232  2.0530  0.0337
 5354TIP3    H237554   5.467   1.578   4.093  2.3555  1.2678 -0.5712
 5355TIP3   OH237555   6.123   2.325   0.318 -0.4994  0.2800  0.4872
 5355TIP3    H137556   6.130   2.271   0.396 -0.4696  1.7307  1.4919
 5355TIP3    H237557   6.205   2.310   0.271  0.1284  0.5768  1.4878
 5356TIP3   OH237558   2.650   0.750  14.276  0.1015  0.0621  0.5366
 5356TIP3    H137559   2.634   0.679  14.339 -1.2278  0.8587  1.1163
 5356TIP3    H237560   2.571   0.804  14.280  1.2300  1.7730  0.3460
 5357TIP3   OH237561   2.298   1.816  14.943  0.6868  0.9305  0.2235
 5357TIP3    H137562   2.245   1.737  14.927  1.8380  0.1091  0.4091
 5357TIP3    H237563   2.385   1.793  14.910  1.4256  1.5661  1.6890
 5358TIP3   OH237564   4.020   0.349  15.621 -0.4549 -0.6532  0.6035
 5358TIP3    H137565   3.950   0.388  15.673 -2.0902 -2.1519 -0.4078
 5358TIP3    H237566   4.002   0.377  15.531  0.2156 -1.0727  0.3310
 5359TIP3   OH237567   3.837   3.989  14.213 -0.2616 -0.9501  0.2640
 5359TIP3    H137568   3.827   4.008  14.307  0.7119 -0.4417  0.2732
 5359TIP3    H237569   3.876   4.068  14.177  1.1830 -1.8551 -0.2222
 5360TIP3   OH237570   3.244   0.295   4.334 -0.5126  0.2273  0.1852
 5360TIP3    H137571   3.225   0.366   4.396 -3.0363 -1.3391  1.3008
 5360TIP3    H237572   3.239   0.337   4.248 -0.3659  1.7333  0.8910
 5361TIP3   OH237573   2.594   4.161   6.768  0.2392 -0.3296  0.5948
 5361TIP3    H137574   2.669   4.197   6.815  2.3768 -2.8750 -0.7060
 5361TIP3    H237575   2.633   4.114   6.693 -2.7298 -0.6866 -0.7972
 5362TIP3   OH237576   3.579   2.175  11.718  0.0494 -0.2242 -0.4003
 5362TIP3    H137577   3.622   2.192  11.634  0.4240 -0.4530 -0.2570
 5362TIP3    H237578   3.485   2.180  11.698  0.1129 -1.5535 -1.1004
 5363TIP3   OH237579   3.777   2.342  12.558  0.2245  0.1086 -0.4245
 5363TIP3    H137580   3.761   2.381  12.472  0.7031  0.5871 -0.2984
 5363TIP3    H237581   3.851   2.390  12.593 -0.6405  0.6316  0.7141
 5364TIP3   OH237582   0.298   2.745   5.956  0.2816 -0.5735 -0.0915
 5364TIP3    H137583   0.365   2.759   5.889  1.2497 -1.5226  0.6530
 5364TIP3    H237584   0.220   2.720   5.907  0.1405  1.6445 -1.0353
 5365TIP3   OH237585   5.355   5.147   3.419 -0.5414  0.6259 -0.5167
 5365TIP3    H137586   5.286   5.114   3.361 -0.3178  0.5133 -0.7226
 5365TIP3    H237587   5.355   5.086   3.493  0.6828 -0.5636 -1.4715
 5366TIP3   OH237588   6.360   0.979   2.064 -0.4250  0.3708  0.2186
 5366TIP3    H137589   6.302   0.910   2.095 -1.0884  1.8681  2.3502
 5366TIP3    H237590   6.334   0.993   1.973 -1.8134 -0.5980  0.4536
 5367TIP3   OH237591   6.499   3.834   4.462 -0.8182 -0.1196  0.0651
 5367TIP3    H137592   6.450   3.916   4.470 -1.2909 -0.2942 -0.9347
 5367TIP3    H237593   6.517   3.826   4.368  3.5707  1.3355  0.6663
 5368TIP3   OH237594   5.467   3.581   0.092 -0.4163 -0.1443  0.1525
 5368TIP3    H137595   5.403   3.619   0.151  0.5858  2.8101 -0.5723
 5368TIP3    H237596   5.416   3.529   0.030 -1.6586 -1.4245  2.2213
 5369TIP3   OH237597   4.431   4.332  13.653 -0.2779 -0.2367 -0.2694
 5369TIP3    H137598   4.418   4.333  13.558 -3.2902  0.8592  0.0849
 5369TIP3    H237599   4.366   4.269  13.685  2.2141 -2.2651  0.9141
 5370TIP3   OH237600   4.291   5.063  14.871  0.0416 -0.3603  0.1298
 5370TIP3    H137601   4.271   5.066  14.964 -1.3413 -1.4594 -0.1116
 5370TIP3    H237602   4.217   5.107  14.828  0.0613 -0.9480 -0.5189
 5371TIP3   OH237603   5.987   4.829  15.662 -0.4637  0.5296 -0.5305
 5371TIP3    H137604   5.969   4.904  15.605 -1.8422 -0.3953 -1.3284
 5371TIP3    H237605   6.012   4.759  15.601 -0.7379 -0.1157  0.1015
 5372TIP3   OH237606   0.055   4.439   4.749  0.0824  0.6240  0.0651
 5372TIP3    H137607  -0.000   4.517   4.756  0.7121  0.9264  1.9132
 5372TIP3    H237608   0.073   4.415   4.839  3.1117  0.6209 -0.5077
 5373TIP3   OH237609   1.869   2.852  11.289  0.4398  0.1996  0.2030
 5373TIP3    H137610   1.833   2.870  11.376  2.2929 -1.7513  1.4100
 5373TIP3    H237611   1.799   2.878  11.229 -0.6333  2.1603  2.2214
 5374TIP3   OH237612   3.424   6.626  16.292 -0.0446 -0.2567 -0.5020
 5374TIP3    H137613   3.395   6.716  16.277  0.6250  0.0160 -0.1928
 5374TIP3    H237614   3.377   6.598  16.371 -0.6931 -0.3814 -0.9330
 5375TIP3   OH237615   1.126   3.106  12.703  0.0090  0.7281 -0.5657
 5375TIP3    H137616   1.065   3.166  12.745  0.4433  1.1256 -0.5045
 5375TIP3    H237617   1.105   3.113  12.609 -0.3203  0.5486 -0.5067
 5376TIP3   OH237618   2.326   6.242   0.795 -0.1887  1.0049 -0.2809
 5376TIP3    H137619   2.313   6.326   0.753  1.4734  0.8827 -1.1038
 5376TIP3    H237620   2.271   6.181   0.747 -0.5906  1.4274 -0.3522
 5377TIP3   OH237621   3.668   6.806   2.811  0.1189  0.8342  0.8096
 5377TIP3    H137622   3.626   6.854   2.882 -0.1849  1.2467  0.3529
 5377TIP3    H237623   3.613   6.823   2.735  0.6198  0.6541  0.4049
 5378TIP3   OH237624   4.581   5.209  13.827  0.2130 -0.1224 -0.0044
 5378TIP3    H137625   4.628   5.161  13.758  2.3998 -1.5146  2.4083
 5378TIP3    H237626   4.530   5.141  13.871  1.2398  0.2166  1.7237
 5379TIP3   OH237627   1.693   4.261   3.311  0.4547  0.1109 -0.1166
 5379TIP3    H137628   1.626   4.253   3.243  1.0152  0.4002 -0.7139
 5379TIP3    H237629   1.758   4.194   3.288  1.8586  1.8131 -1.2924
 5380TIP3   OH237630   1.293   0.290  11.286  0.0687 -0.6182 -0.3720
 5380TIP3    H137631   1.306   0.304  11.192  0.5514 -0.1728 -0.2461
 5380TIP3    H237632   1.291   0.195  11.296  0.4245 -0.6727 -0.7820
 5381TIP3   OH237633   1.197   2.702  12.595  0.1830  0.2634  0.1804
 5381TIP3    H137634   1.147   2.730  12.519 -0.7127 -1.4202  0.1198
 5381TIP3    H237635   1.133   2.661  12.653  1.3807 -1.4733  0.3271
 5382TIP3   OH237636   1.233   6.203  13.847  0.2187 -0.2286 -1.1324
 5382TIP3    H137637   1.268   6.181  13.761 -0.9641 -2.4088 -1.0936
 5382TIP3    H237638   1.152   6.251  13.829  0.1118 -0.4454 -1.2252
 5383TIP3   OH237639   5.173   3.169   0.384 -0.0692 -0.0697 -0.4175
 5383TIP3    H137640   5.161   3.264   0.386  2.9813  0.3853 -1.6165
 5383TIP3    H237641   5.105   3.138   0.325 -1.0800  1.3467 -0.0491
 5384TIP3   OH237642   0.365   5.980   2.291 -0.0427  0.1609 -0.3095
 5384TIP3    H137643   0.286   5.972   2.236  1.1218 -0.6758 -1.8945
 5384TIP3    H237644   0.431   5.927   2.247  1.1660  0.0957  1.5086
 5385TIP3   OH237645   1.231   4.530  14.098  0.1552  0.0043  0.7328
 5385TIP3    H137646   1.188   4.609  14.066 -0.2640 -0.5771 -0.1593
 5385TIP3    H237647   1.315   4.561  14.133 -0.2163  0.9018  0.8396
 5386TIP3   OH237648   5.222   6.043  11.194  0.0977  0.5081 -0.3041
 5386TIP3    H137649   5.221   6.134  11.224 -0.3517 -0.1116  1.6266
 5386TIP3    H237650   5.140   6.006  11.227  1.5482 -1.3444  1.3767
 5387TIP3   OH237651   4.858   5.247   3.052 -0.5000  0.1070  0.4695
 5387TIP3    H137652   4.930   5.272   3.111  0.0492 -2.8486  1.0919
 5387TIP3    H237653   4.781   5.244   3.108 -0.4616 -0.1423  0.5095
 5388TIP3   OH237654   4.067   2.642  16.453  0.4493  0.5379  0.1669
 5388TIP3    H137655   4.054   2.721  16.400 -0.5879  1.8526  2.3087
 5388TIP3    H237656   4.137   2.665  16.514  0.3330 -0.2906  0.6224
 5389TIP3   OH237657   1.497   3.675   0.691 -0.6403 -0.0235 -0.3803
 5389TIP3    H137658   1.577   3.696   0.738 -0.5573 -1.1951  0.0051
 5389TIP3    H237659   1.501   3.580   0.677 -1.4140  0.0774 -1.3494
 5390TIP3   OH237660   6.441   5.193  12.670  0.3593  0.0706  0.1675
 5390TIP3    H137661   6.442   5.288  12.669  0.4327  0.0795  0.8077
 5390TIP3    H237662   6.369   5.169  12.612 -0.4393  0.5361  0.9579
 5391TIP3   OH237663   4.570   5.979  14.183  0.4279  0.6769 -0.7343
 5391TIP3    H137664   4.555   5.973  14.089  2.5681  1.0224 -1.1237
 5391TIP3    H237665   4.553   5.890  14.216  2.7337 -0.2541 -1.9388
 5392TIP3   OH237666   6.603   0.169  14.812 -0.2774 -0.5165 -0.3651
 5392TIP3    H137667   6.561   0.227  14.748 -0.2688 -1.7977 -1.5509
 5392TIP3    H237668   6.694   0.164  14.783  0.3733  1.0459  1.3249
 5393TIP3   OH237669   2.828   3.656  11.384  0.1489 -0.7565 -0.0445
 5393TIP3    H137670   2.863   3.626  11.468 -0.4056  1.1880  0.9186
 5393TIP3    H237671   2.887   3.726  11.356 -1.5274  0.9076  0.4130
 5394TIP3   OH237672   5.135   0.787  13.552 -0.1578  0.0637  0.2501
 5394TIP3    H137673   5.225   0.756  13.561  0.0776  0.5096 -0.5554
 5394TIP3    H237674   5.142   0.882  13.550 -0.7165  0.1233  0.9046
 5395TIP3   OH237675   2.580   5.803  16.641  0.1275  0.7905 -0.3550
 5395TIP3    H137676   2.563   5.837  16.729 -1.2562  2.0053 -1.0799
 5395TIP3    H237677   2.671   5.772  16.645  0.0120  0.6183  1.5590
 5396TIP3   OH237678   2.147   3.455   0.520  0.4859  0.5331  0.7213
 5396TIP3    H137679   2.233   3.465   0.480 -0.2323  1.6198 -0.5744
 5396TIP3    H237680   2.131   3.540   0.562 -0.6295  0.8600 -0.3704
 5397TIP3   OH237681   5.483   3.360  17.152  0.2411  0.0163  0.0073
 5397TIP3    H137682   5.498   3.306  17.074  0.8476 -1.2000  0.9585
 5397TIP3    H237683   5.548   3.331  17.215 -1.3115 -0.1665  1.5696
 5398TIP3   OH237684   6.601   1.205   0.742  0.0900 -0.3367  0.0880
 5398TIP3    H137685   6.569   1.225   0.830  0.3619  0.3927  0.0203
 5398TIP3    H237686   6.696   1.192   0.753 -0.0528 -1.4043  0.1000
 5399TIP3   OH237687   3.691   3.893   2.492  0.1911  0.1100  0.2778
 5399TIP3    H137688   3.729   3.807   2.476 -0.8205 -0.3042  0.0500
 5399TIP3    H237689   3.696   3.904   2.587 -1.2092 -0.9387  0.4965
 5400TIP3   OH237690   0.060   2.557   4.118 -0.0545 -0.2700  0.0447
 5400TIP3    H137691   0.070   2.581   4.210 -1.4247  1.9662 -0.3533
 5400TIP3    H237692  -0.015   2.498   4.116 -0.0468 -0.2897  0.3739
 5401TIP3   OH237693   1.544   3.945   4.705 -0.0353  0.3198  0.5288
 5401TIP3    H137694   1.480   3.952   4.776  0.6475  0.6306  1.1219
 5401TIP3    H237695   1.607   3.880   4.736  0.2532  0.4420  0.2017
 5402TIP3   OH237696   4.257   2.582  16.885 -0.5491 -0.3195 -0.3799
 5402TIP3    H137697   4.227   2.498  16.920 -1.3154 -0.4166 -1.2531
 5402TIP3    H237698   4.205   2.647  16.933  1.8803 -0.1617  2.2013
 5403TIP3   OH237699   6.326   1.695   4.917  0.0168 -0.1538  0.4843
 5403TIP3    H137700   6.379   1.770   4.944 -0.2267 -0.0772  0.7493
 5403TIP3    H237701   6.374   1.619   4.949  0.0670 -0.0936  0.5524
 5404TIP3   OH237702   1.845   3.857  10.955  0.4957 -0.5263 -0.2585
 5404TIP3    H137703   1.908   3.838  10.885 -1.0488 -0.5829 -1.6750
 5404TIP3    H237704   1.848   3.779  11.011  0.7544 -1.0858 -1.0294
 5405TIP3   OH237705   0.718   5.410  13.408 -0.8704  0.0277 -0.2706
 5405TIP3    H137706   0.735   5.358  13.330  0.9939 -1.3172  0.9688
 5405TIP3    H237707   0.782   5.481  13.404 -1.9181  0.9502 -0.8244
 5406TIP3   OH237708   0.230   2.365   4.302  0.0357 -0.1955  0.2724
 5406TIP3    H137709   0.290   2.382   4.229 -0.9713  3.4896  0.1966
 5406TIP3    H237710   0.269   2.412   4.376 -1.8108  0.8449  0.6333
 5407TIP3   OH237711   3.078   4.967  14.563  0.4667  0.1654 -0.6591
 5407TIP3    H137712   3.129   4.889  14.583 -0.4113 -0.3005 -0.2064
 5407TIP3    H237713   3.085   5.021  14.641  1.6196  0.8494 -1.2209
 5408TIP3   OH237714   0.940   1.980   2.410  0.2734 -0.1137 -1.0188
 5408TIP3    H137715   0.995   2.020   2.478 -0.6501  0.4694 -0.5982
 5408TIP3    H237716   0.984   1.898   2.388 -0.0773 -0.9431  1.2229
 5409TIP3   OH237717   5.087   5.683   5.690 -0.3442  0.6208  0.0564
 5409TIP3    H137718   5.133   5.606   5.656 -2.7381 -0.9245  0.1607
 5409TIP3    H237719   5.144   5.757   5.667 -0.5390 -0.5728 -4.9884
 5410TIP3   OH237720   2.894   5.624   2.203 -0.3812 -0.0109 -0.5278
 5410TIP3    H137721   2.909   5.574   2.123  0.8089  1.1040 -1.0308
 5410TIP3    H237722   2.808   5.664   2.191 -1.0327 -1.3734 -0.4163
 5411TIP3   OH237723   0.211   4.983   0.867  0.0800 -0.3549  0.1258
 5411TIP3    H137724   0.207   5.052   0.801  0.4749  0.3024  0.7800
 5411TIP3    H237725   0.304   4.980   0.893 -0.6192  1.7672  3.1314
 5412TIP3   OH237726   0.667   6.728  15.641  0.2857 -0.1002 -0.4324
 5412TIP3    H137727   0.745   6.758  15.689  0.3505 -0.0554 -0.5684
 5412TIP3    H237728   0.698   6.652  15.591 -0.2536 -1.4483  1.2054
 5413TIP3   OH237729   3.159   4.923  13.986 -0.1471  0.3160 -0.5986
 5413TIP3    H137730   3.124   5.009  14.009  1.4517  2.1559 -4.6169
 5413TIP3    H237731   3.254   4.934  13.986  0.1275 -1.7214 -0.4113
 5414TIP3   OH237732   0.728   0.366  15.717  0.4497 -0.3508 -0.0906
 5414TIP3    H137733   0.726   0.455  15.683 -2.1967  1.1424  3.6572
 5414TIP3    H237734   0.683   0.314  15.650  0.9585  1.3118 -1.7622
 5415TIP3   OH237735   2.170   4.961  11.532 -0.2952  0.3691  0.0525
 5415TIP3    H137736   2.109   4.991  11.464 -0.1258  0.8769  0.1149
 5415TIP3    H237737   2.122   4.971  11.614  0.3406  2.1014  0.2386
 5416TIP3   OH237738   0.917   5.632   1.737 -0.1219 -0.6405  0.2004
 5416TIP3    H137739   0.976   5.563   1.769  0.6787  0.6321  1.5508
 5416TIP3    H237740   0.968   5.712   1.747 -1.8746  0.4137  0.7983
 5417TIP3   OH237741   1.211   2.914   2.614 -0.0115  0.0603 -0.0661
 5417TIP3    H137742   1.292   2.949   2.576  0.3361 -0.5692  0.0739
 5417TIP3    H237743   1.231   2.906   2.707  0.7685 -2.7369 -0.4134
 5418TIP3   OH237744   5.680   4.991   2.588  0.3189 -0.3641 -0.3593
 5418TIP3    H137745   5.614   5.048   2.548  1.8171  2.5679  1.1724
 5418TIP3    H237746   5.664   4.905   2.550 -2.8252  0.8053 -1.8327
 5419TIP3   OH237747   6.818   3.579  17.139  0.4090 -0.5416  0.3080
 5419TIP3    H137748   6.774   3.503  17.176  1.5324 -2.3082 -1.8140
 5419TIP3    H237749   6.772   3.596  17.057  0.2648  1.0007  0.6905
 5420TIP3   OH237750   5.890   0.800  13.087 -0.2751  0.1657  0.2208
 5420TIP3    H137751   5.877   0.895  13.082 -1.9435 -0.0705 -0.5239
 5420TIP3    H237752   5.841   0.765  13.012  1.3417 -1.2077 -0.2407
 5421TIP3   OH237753   5.286   6.714  17.176 -0.2173  0.6143 -0.5185
 5421TIP3    H137754   5.227   6.716  17.252 -0.6746  3.2503 -0.8882
 5421TIP3    H237755   5.365   6.670  17.208 -0.9644  0.3736  1.0607
 5422TIP3   OH237756   5.196   4.012   6.743  0.0708 -0.2511 -0.2171
 5422TIP3    H137757   5.254   4.062   6.684 -0.4792 -0.3680 -0.8659
 5422TIP3    H237758   5.243   3.930   6.759  0.4932  0.0290 -0.0129
 5423TIP3   OH237759   5.584   6.721  11.687  0.2285  0.6154  0.0144
 5423TIP3    H137760   5.525   6.755  11.754 -1.1370  0.6196 -1.1784
 5423TIP3    H237761   5.622   6.798  11.646  1.3027  0.6104  0.9707
 5424TIP3   OH237762   0.904   0.343  14.993 -0.5802 -0.4105 -0.3561
 5424TIP3    H137763   0.984   0.334  15.046 -1.3256  0.6528  0.9903
 5424TIP3    H237764   0.835   0.308  15.048 -1.2137 -0.2952 -1.0682
 5425TIP3   OH237765   3.073   3.231  11.074  0.2522 -0.1340 -0.0027
 5425TIP3    H137766   3.009   3.174  11.032  0.4640  0.4464 -1.1188
 5425TIP3    H237767   3.076   3.200  11.165 -2.1961  0.3529  0.2711
 5426TIP3   OH237768   2.347   0.599  16.276 -0.7423  0.4355 -0.4823
 5426TIP3    H137769   2.302   0.517  16.253  0.4058 -0.4368  0.3093
 5426TIP3    H237770   2.294   0.637  16.345  0.0133 -0.8829  0.8612
 5427TIP3   OH237771   3.859   6.096  11.760 -0.1994 -0.2824 -0.2304
 5427TIP3    H137772   3.858   6.123  11.668  0.6371 -0.4144 -0.2811
 5427TIP3    H237773   3.941   6.131  11.795 -1.4996  1.6050  1.0299
 5428TIP3   OH237774   3.374   1.782   5.033 -0.2125  0.2967 -0.4227
 5428TIP3    H137775   3.358   1.789   4.939  1.1198  3.4019 -0.4548
 5428TIP3    H237776   3.461   1.743   5.040 -0.3773 -0.0841 -0.4466
 5429TIP3   OH237777   1.154   6.261  12.803  0.5984 -0.0905 -0.2715
 5429TIP3    H137778   1.158   6.332  12.868  1.2462 -0.3767  0.0111
 5429TIP3    H237779   1.171   6.305  12.720 -0.3738  0.3007 -0.2691
 5430TIP3   OH237780   5.783   6.417  16.479 -0.1179  0.3804 -0.5050
 5430TIP3    H137781   5.765   6.324  16.490  0.0293  0.3713 -0.3380
 5430TIP3    H237782   5.750   6.438  16.392 -4.1959  1.1528  1.1463
 5431TIP3   OH237783   2.780   1.618  15.650  0.2860 -0.0565 -0.7054
 5431TIP3    H137784   2.685   1.625  15.645  0.3178 -0.6209 -2.5662
 5431TIP3    H237785   2.813   1.682  15.588  1.1515  0.4785  0.2781
 5432TIP3   OH237786   4.486   5.783   0.283 -0.8212  0.5267 -0.3537
 5432TIP3    H137787   4.406   5.824   0.313 -1.2985 -0.6679  0.0553
 5432TIP3    H237788   4.557   5.837   0.318 -1.4116  0.3423  1.1299
 5433TIP3   OH237789   2.680   5.562   3.550 -0.4048 -0.3258  0.0135
 5433TIP3    H137790   2.728   5.493   3.594 -1.5427 -0.4002  1.1856
 5433TIP3    H237791   2.661   5.626   3.619 -1.3122  0.0613 -0.5827
 5434TIP3   OH237792   0.883   4.745   0.912 -0.4675 -0.1036  0.0403
 5434TIP3    H137793   0.876   4.670   0.971 -3.4101 -0.4109 -0.6597
 5434TIP3    H237794   0.925   4.710   0.834 -0.0777 -0.5708  0.4518
 5435TIP3   OH237795   6.338   4.487   0.469 -0.0640 -0.3977 -1.0025
 5435TIP3    H137796   6.262   4.515   0.418 -0.1208  0.2369 -0.5766
 5435TIP3    H237797   6.365   4.566   0.517 -0.4512 -1.1533  0.5009
 5436TIP3   OH237798   6.374   3.873  16.228  0.4928  0.2013 -0.3497
 5436TIP3    H137799   6.456   3.827  16.210 -0.0916 -0.8463 -0.3899
 5436TIP3    H237800   6.339   3.894  16.141  0.5744  0.3980 -0.3360
 5437TIP3   OH237801   0.805   4.167  12.133  0.0970  0.5351  0.3935
 5437TIP3    H137802   0.791   4.095  12.194 -0.8342  0.3771  0.0042
 5437TIP3    H237803   0.891   4.150  12.095 -0.6340 -1.1033 -0.6371
 5438TIP3   OH237804   1.471   3.544   3.060 -0.3552 -0.3605  0.3156
 5438TIP3    H137805   1.504   3.534   3.149 -2.0563 -0.9202  0.9108
 5438TIP3    H237806   1.541   3.590   3.013  0.0494  1.0574  2.2524
 5439TIP3   OH237807   0.554   0.769   2.595 -0.3198  0.0483  0.3438
 5439TIP3    H137808   0.571   0.702   2.661 -0.5420 -0.9843 -0.6267
 5439TIP3    H237809   0.564   0.723   2.511  0.6945  1.5060 -0.3620
 5440TIP3   OH237810   6.561   5.132   0.181  0.2816 -0.1166  0.8161
 5440TIP3    H137811   6.554   5.220   0.218  0.8477 -0.2635  1.2803
 5440TIP3    H237812   6.483   5.086   0.212 -0.1276  0.2904  0.3872
 5441TIP3   OH237813   3.306   0.317   2.638  0.7024  0.0877  0.6250
 5441TIP3    H137814   3.278   0.343   2.550 -1.1483 -0.3858  1.0446
 5441TIP3    H237815   3.401   0.310   2.632  0.4582 -1.8420 -1.8653
 5442TIP3   OH237816   3.669   5.484   6.571  0.0674 -0.1391  0.4930
 5442TIP3    H137817   3.762   5.464   6.579  0.0474 -0.1088  0.7814
 5442TIP3    H237818   3.625   5.415   6.621  0.0787  1.6287  3.0265
 5443TIP3   OH237819   5.694   2.108  14.978  0.0917  0.1991 -0.4092
 5443TIP3    H137820   5.692   2.098  15.074  1.3108  1.9594 -0.1589
 5443TIP3    H237821   5.745   2.033  14.947 -2.9001 -2.0843  0.0018
 5444TIP3   OH237822   1.294   1.449   1.488  0.3690  0.1112 -0.6603
 5444TIP3    H137823   1.292   1.365   1.533 -0.0499  0.3336 -0.2645
 5444TIP3    H237824   1.329   1.428   1.401  0.4863 -0.4319 -0.4873
 5445TIP3   OH237825   0.094   6.513  11.837 -0.1896  0.4749 -0.2556
 5445TIP3    H137826   0.080   6.442  11.900 -2.4559  0.2717 -0.9339
 5445TIP3    H237827   0.053   6.589  11.877 -1.0154  0.5099 -1.1566
 5446TIP3   OH237828   1.233   1.791   3.500  0.1852  0.2724  0.3268
 5446TIP3    H137829   1.233   1.815   3.593  0.4903 -1.7306  0.8794
 5446TIP3    H237830   1.217   1.873   3.454  2.1541  1.7060  2.0548
 5447TIP3   OH237831   4.666   5.564   4.637 -0.3840 -0.1162 -0.0857
 5447TIP3    H137832   4.652   5.634   4.701 -2.0502 -0.7479  0.2757
 5447TIP3    H237833   4.709   5.607   4.563  1.5185  0.6288  1.4293
 5448TIP3   OH237834   3.688   0.350   5.820  0.8482  0.1854  0.4042
 5448TIP3    H137835   3.773   0.389   5.798  1.3849 -0.9769  0.3418
 5448TIP3    H237836   3.709   0.259   5.841 -0.2715  0.1292  1.3104
 5449TIP3   OH237837   5.550   4.748   2.019 -0.6005 -0.3423  0.0049
 5449TIP3    H137838   5.634   4.782   2.050 -1.3842  1.9323 -0.2104
 5449TIP3    H237839   5.571   4.666   1.976  1.7993  1.0622 -1.6189
 5450TIP3   OH237840   4.655   3.804  13.255  0.5230 -0.8333  0.2492
 5450TIP3    H137841   4.577   3.856  13.238  1.5689  0.6043 -0.1957
 5450TIP3    H237842   4.676   3.821  13.347  2.0042  1.1432 -0.4089
 5451TIP3   OH237843   2.210   0.277   0.725 -0.8395 -0.3465 -0.2152
 5451TIP3    H137844   2.285   0.252   0.779 -0.0174  0.2673 -1.0741
 5451TIP3    H237845   2.247   0.296   0.639 -1.7140  1.7906 -0.1486
 5452TIP3   OH237846   4.722   5.377  12.532  0.3478 -0.2019 -0.0348
 5452TIP3    H137847   4.781   5.374  12.457  2.2564 -0.1186  1.4153
 5452TIP3    H237848   4.780   5.388  12.607 -1.5240 -0.2972  1.4562
 5453TIP3   OH237849   3.204   4.364  12.055  0.4553 -0.0028  0.2526
 5453TIP3    H137850   3.139   4.348  12.123  0.3117  0.9795  0.3410
 5453TIP3    H237851   3.153   4.382  11.976  0.6207 -1.1866 -0.1376
 5454TIP3   OH237852   5.181   5.273  12.238  0.2542  0.3758  1.0680
 5454TIP3    H137853   5.221   5.327  12.170  0.5607 -0.4794  0.5503
 5454TIP3    H237854   5.250   5.210  12.261 -0.8762 -1.2944 -0.0388
 5455TIP3   OH237855   4.963   2.186   3.025 -0.1603  0.0005 -0.1804
 5455TIP3    H137856   4.869   2.173   3.037 -0.4085  0.5189 -1.4220
 5455TIP3    H237857   4.985   2.136   2.947  0.1685  1.5702 -1.1259
 5456TIP3   OH237858   4.423   4.881   4.386  0.6167 -0.2386 -0.6744
 5456TIP3    H137859   4.488   4.950   4.400  1.0488 -0.8702  0.5276
 5456TIP3    H237860   4.421   4.869   4.291  1.0989  0.8788 -0.8387
 5457TIP3   OH237861   4.800   5.798  13.717 -0.0145  0.0490 -0.6200
 5457TIP3    H137862   4.731   5.733  13.701 -1.3672  0.7749  2.0679
 5457TIP3    H237863   4.864   5.752  13.770  1.3545 -0.4545 -2.6495
 5458TIP3   OH237864   6.632   1.145   3.559 -0.1005 -0.0554  0.7333
 5458TIP3    H137865   6.549   1.112   3.593 -1.5514  2.4115 -0.2949
 5458TIP3    H237866   6.645   1.229   3.603  1.3849  0.0202  0.1985
 5459TIP3   OH237867   5.995   3.163   0.752  0.3168 -0.5778 -0.1280
 5459TIP3    H137868   5.926   3.117   0.704 -0.9727 -0.2556  1.3326
 5459TIP3    H237869   5.997   3.119   0.837 -1.8363  2.7435  1.7910
 5460TIP3   OH237870   3.357   1.288  12.077 -0.9729 -0.1041 -0.6214
 5460TIP3    H137871   3.378   1.357  12.015  0.3773  0.4094  0.3921
 5460TIP3    H237872   3.297   1.328  12.139 -0.4105  0.0941 -0.1964
 5461TIP3   OH237873   0.678   6.762  16.583 -0.4417  0.1191 -0.1146
 5461TIP3    H137874   0.586   6.736  16.578 -0.2483 -0.7116  0.4588
 5461TIP3    H237875   0.719   6.695  16.639  0.6018  0.2080 -0.7524
 5462TIP3   OH237876   2.162   5.786  10.908 -0.5532  0.0310 -0.4903
 5462TIP3    H137877   2.106   5.711  10.888 -2.3478  1.2281 -0.0476
 5462TIP3    H237878   2.203   5.808  10.824 -0.2939 -1.1956 -0.7003
 5463TIP3   OH237879   3.158   3.750  11.645  0.3064 -0.2043 -0.5712
 5463TIP3    H137880   3.143   3.750  11.551 -3.1154  1.5647 -0.0938
 5463TIP3    H237881   3.246   3.712  11.655  1.3672  0.9706 -4.5123
 5464TIP3   OH237882   4.305   5.537  16.348 -0.0522 -0.8226  0.1261
 5464TIP3    H137883   4.263   5.460  16.309 -0.6677  0.7399 -2.4283
 5464TIP3    H237884   4.299   5.605  16.281  0.8073  1.3796  2.1687
 5465TIP3   OH237885   0.295   4.991  13.618  0.1084  0.1714  0.0073
 5465TIP3    H137886   0.219   5.030  13.660 -0.5301 -1.1329  0.0902
 5465TIP3    H237887   0.324   4.923  13.680  2.3639  1.7552  0.7861
 5466TIP3   OH237888   2.381   2.936   5.890  0.1883 -0.7700  0.3848
 5466TIP3    H137889   2.297   2.923   5.933  0.2401  0.0246  0.7494
 5466TIP3    H237890   2.446   2.916   5.957  0.3075 -2.1550 -0.1302
 5467TIP3   OH237891   1.857   1.354   5.089  0.1712 -0.3101 -0.1829
 5467TIP3    H137892   1.797   1.416   5.048  0.3938 -0.0861 -0.1693
 5467TIP3    H237893   1.944   1.389   5.070  0.2445  1.9148  3.7354
 5468TIP3   OH237894   2.846   3.385   5.065 -0.6489  0.6207  0.1224
 5468TIP3    H137895   2.880   3.426   5.144  1.3729 -0.1438 -0.3264
 5468TIP3    H237896   2.753   3.373   5.082 -0.2610  0.6070  2.3172
 5469TIP3   OH237897   2.165   0.192  11.657  0.6635  0.0173  0.2722
 5469TIP3    H137898   2.228   0.250  11.614 -0.7444  1.0193 -0.4990
 5469TIP3    H237899   2.206   0.105  11.654  1.4421  0.4184 -1.3552
 5470TIP3   OH237900   2.017   0.448  11.374 -0.2925  0.5450  0.2155
 5470TIP3    H137901   2.100   0.430  11.330 -0.8946  1.3574 -1.2781
 5470TIP3    H237902   1.950   0.424  11.310 -1.2522 -0.9858  1.7447
 5471TIP3   OH237903   2.358   2.460  13.521  0.3558  0.1460 -0.3414
 5471TIP3    H137904   2.430   2.511  13.558  0.0685  1.0069 -0.9800
 5471TIP3    H237905   2.343   2.498  13.435 -1.8127  0.8918  0.3371
 5472TIP3   OH237906   5.740   3.088  14.758 -0.3082  0.6300  0.1002
 5472TIP3    H137907   5.673   3.107  14.692  1.0472  1.3152 -1.1191
 5472TIP3    H237908   5.813   3.051  14.708  0.4231  0.3635  1.3343
 5473TIP3   OH237909   5.228   1.429   3.280  0.2131 -0.0027 -0.4713
 5473TIP3    H137910   5.316   1.443   3.316  0.7330 -0.3372 -1.5721
 5473TIP3    H237911   5.217   1.498   3.215  0.4337 -1.0880 -1.6906
 5474TIP3   OH237912   5.586   1.604   4.987 -0.1397  0.0585 -0.6041
 5474TIP3    H137913   5.517   1.540   4.969 -2.1824  1.6219  1.3979
 5474TIP3    H237914   5.570   1.632   5.077  2.1558  1.6467 -0.6457
 5475TIP3   OH237915   3.531   1.329   2.436 -0.5305  0.8236 -0.7411
 5475TIP3    H137916   3.524   1.424   2.437 -2.2153  0.7131 -0.4690
 5475TIP3    H237917   3.537   1.306   2.343 -0.2464  1.1857 -0.8113
 5476TIP3   OH237918   2.694   1.890  16.417  0.0412 -0.0680  0.6538
 5476TIP3    H137919   2.605   1.920  16.434  0.3649  2.7347 -2.3333
 5476TIP3    H237920   2.702   1.887  16.322  2.5666 -2.1588  0.8523
 5477TIP3   OH237921   6.486   5.968  11.654 -0.7582  0.3688  0.5937
 5477TIP3    H137922   6.451   5.880  11.657  0.5671 -0.3207 -2.2091
 5477TIP3    H237923   6.412   6.024  11.631 -1.2028 -0.2816  0.4572
 5478TIP3   OH237924   0.554   5.745   4.199 -0.0023  1.0225 -0.1516
 5478TIP3    H137925   0.562   5.691   4.278 -0.2713  2.0978  0.6106
 5478TIP3    H237926   0.460   5.755   4.187  0.0546  2.6412  0.6197
 5479TIP3   OH237927   1.443   2.295  15.460 -0.1726 -0.7558 -0.1492
 5479TIP3    H137928   1.414   2.206  15.477 -2.8315  0.1279  0.1809
 5479TIP3    H237929   1.454   2.300  15.365  0.8362 -1.6461 -0.0895
 5480TIP3   OH237930   1.662   4.577   5.756 -0.3848  0.5615 -0.3988
 5480TIP3    H137931   1.724   4.508   5.781  0.6978  0.8883 -2.0833
 5480TIP3    H237932   1.717   4.645   5.717 -1.7902  0.8668 -1.8890
 5481TIP3   OH237933   0.672   3.397  12.059  0.3141 -0.5348  0.5046
 5481TIP3    H137934   0.693   3.374  12.150 -1.5194 -0.6917  0.8906
 5481TIP3    H237935   0.618   3.325  12.028  0.5938 -0.2756 -0.5984
 5482TIP3   OH237936   5.565   4.183   4.896  0.6733 -0.2355  0.2086
 5482TIP3    H137937   5.610   4.106   4.931  0.9327  0.1100  0.6423
 5482TIP3    H237938   5.626   4.219   4.832 -0.3387 -1.5987 -1.5506
 5483TIP3   OH237939   2.450   0.758  13.832 -0.5705  0.3453 -0.3683
 5483TIP3    H137940   2.533   0.709  13.828 -2.1216 -2.6082  1.8078
 5483TIP3    H237941   2.476   0.849  13.818  2.8707 -0.6483 -1.1444
 5484TIP3   OH237942   1.259   5.265  16.132 -0.8788 -0.0711 -0.0785
 5484TIP3    H137943   1.166   5.275  16.111 -0.4545 -1.5772 -2.8934
 5484TIP3    H237944   1.289   5.194  16.076  2.1330  0.8440  0.2817
 5485TIP3   OH237945   0.521   6.550  13.438  0.0515 -0.0703  0.0473
 5485TIP3    H137946   0.449   6.513  13.387  0.1733  0.9828 -0.8943
 5485TIP3    H237947   0.522   6.498  13.518 -1.3194 -0.5413 -0.2237
 5486TIP3   OH237948   3.900   4.356   6.023  0.3556  0.2127  0.2364
 5486TIP3    H137949   3.830   4.296   6.051  0.9467 -0.5403  0.1213
 5486TIP3    H237950   3.954   4.304   5.963  1.9098  0.2937  1.5270
 5487TIP3   OH237951   0.574   5.633  11.518  0.6962  0.3878  0.3578
 5487TIP3    H137952   0.615   5.698  11.461 -0.4754 -0.9838 -2.1197
 5487TIP3    H237953   0.483   5.663  11.527  0.2398 -0.6933 -0.5181
 5488TIP3   OH237954   2.457   1.299  12.860 -0.0576  1.0862  0.2621
 5488TIP3    H137955   2.405   1.301  12.941 -1.9972 -1.6541 -0.8676
 5488TIP3    H237956   2.460   1.391  12.832 -3.5837  1.4569  0.8497
 5489TIP3   OH237957   1.032   1.951  12.565 -0.2451  0.0315 -0.3532
 5489TIP3    H137958   1.122   1.977  12.545 -0.2725 -0.0886 -0.6384
 5489TIP3    H237959   0.980   1.984  12.491 -0.6419  1.2822  0.4648
 5490TIP3   OH237960   3.458   2.122  12.129 -0.0316  0.9889  0.3969
 5490TIP3    H137961   3.470   2.192  12.065 -3.4699  2.3052  1.0658
 5490TIP3    H237962   3.541   2.118  12.176  0.4360  4.3313  0.0184
 5491TIP3   OH237963   6.766   2.522   2.943 -0.6680 -0.1993  0.5461
 5491TIP3    H137964   6.772   2.596   2.882  1.2932 -0.9952 -0.2663
 5491TIP3    H237965   6.672   2.506   2.952 -1.0103 -0.0425 -2.2642
 5492TIP3   OH237966   5.717   0.535  10.675  0.5505  0.5652 -0.3149
 5492TIP3    H137967   5.640   0.485  10.650  1.3537  0.1322 -2.0381
 5492TIP3    H237968   5.715   0.538  10.770 -1.2621  0.0550 -0.3262
 5493TIP3   OH237969   1.715   3.882  15.461  0.0479  0.4223 -0.0580
 5493TIP3    H137970   1.666   3.807  15.428  1.0669  0.5173 -1.8521
 5493TIP3    H237971   1.752   3.853  15.544  0.8444 -1.2470 -0.9731
 5494TIP3   OH237972   5.428   2.314   4.876  0.3070 -0.0599  0.6556
 5494TIP3    H137973   5.384   2.340   4.956 -0.8341  1.9138 -0.5703
 5494TIP3    H237974   5.504   2.264   4.905  0.5437  1.6045  2.9858
 5495TIP3   OH237975   2.297   3.370   5.346  0.2967 -0.3285  0.4229
 5495TIP3    H137976   2.224   3.318   5.380 -0.1032  0.4564  0.7707
 5495TIP3    H237977   2.354   3.384   5.421  1.3412 -1.8061 -0.0640
 5496TIP3   OH237978   5.086   6.387   6.243 -0.3891 -0.5898  0.1733
 5496TIP3    H137979   5.134   6.363   6.323 -2.1920 -1.6679  0.9532
 5496TIP3    H237980   5.068   6.480   6.254  1.1220 -0.2646  0.0661
 5497TIP3   OH237981   3.301   6.312  12.171  0.1636 -0.2027 -0.2198
 5497TIP3    H137982   3.369   6.247  12.188  0.8231  0.9844  1.8370
 5497TIP3    H237983   3.240   6.302  12.244  1.9163  3.5647  1.8667
 5498TIP3   OH237984   1.259   2.203  11.601  0.4149  0.5625  0.0382
 5498TIP3    H137985   1.256   2.136  11.669  1.6675  1.0801  0.6188
 5498TIP3    H237986   1.235   2.284  11.646  1.0096  0.8630 -0.1702
 5499TIP3   OH237987   1.753   3.899   3.310 -0.2456 -0.0609 -0.6143
 5499TIP3    H137988   1.700   3.894   3.231 -1.1889  0.0771 -0.0066
 5499TIP3    H237989   1.791   3.812   3.319 -2.0957 -0.8270  0.0967
 5500TIP3   OH237990   6.634   5.579   4.106 -0.4114  0.5456  0.5044
 5500TIP3    H137991   6.630   5.578   4.011  1.0638  1.8615  0.4131
 5500TIP3    H237992   6.582   5.654   4.133  0.2052  0.9300  0.6556
 5501TIP3   OH237993   1.426   2.657  12.738  0.2976  0.4886 -0.7261
 5501TIP3    H137994   1.343   2.671  12.692  1.3035  1.3195 -2.3298
 5501TIP3    H237995   1.493   2.689  12.677  1.7792  0.0843  0.6598
 5502TIP3   OH237996   4.470   5.362  11.047  0.1323 -0.6300 -0.4148
 5502TIP3    H137997   4.414   5.374  10.970  0.6756 -2.4098 -1.0944
 5502TIP3    H237998   4.526   5.288  11.025  0.9040 -0.5904  1.3482
 5503TIP3   OH237999   6.230   2.298   4.955  0.1338 -0.6151  0.2194
 5503TIP3    H138000   6.208   2.281   5.047 -0.5960  1.1482  0.3987
 5503TIP3    H238001   6.319   2.334   4.959  0.8365 -2.3153  0.0470
 5504TIP3   OH238002   4.370   5.050   3.030 -0.0563 -0.2607 -0.0122
 5504TIP3    H138003   4.397   5.017   3.116  1.2069 -0.1190 -0.3499
 5504TIP3    H238004   4.274   5.054   3.036 -0.0680 -1.3824  0.9782
 5505TIP3   OH238005   5.660   0.749   5.591 -0.1684  0.3483  0.2042
 5505TIP3    H138006   5.718   0.786   5.525  0.5992 -1.8613 -0.4048
 5505TIP3    H238007   5.573   0.754   5.552 -0.0322  1.2376  0.0180
 5506TIP3   OH238008   6.025   1.177   2.479 -0.3224  0.4816 -0.3491
 5506TIP3    H138009   6.027   1.236   2.554  1.0324 -0.2942  0.2571
 5506TIP3    H238010   5.968   1.220   2.416 -4.8093 -0.6978  2.6179
 5507TIP3   OH238011   0.987   5.216  12.800 -0.3475 -0.0306 -0.2438
 5507TIP3    H138012   0.928   5.278  12.758 -0.5848 -0.2617 -0.2515
 5507TIP3    H238013   1.071   5.261  12.802 -0.7389  0.6632  0.6111
 5508TIP3   OH238014   5.741   4.476   5.821  0.6266 -0.0572 -0.1637
 5508TIP3    H138015   5.756   4.498   5.913 -0.6454 -0.9765  0.2860
 5508TIP3    H238016   5.652   4.440   5.819  1.4821 -2.2349 -1.3507
 5509TIP3   OH238017   5.998   4.190   0.515  0.6031  0.0688 -0.3246
 5509TIP3    H138018   6.024   4.112   0.563  1.2935  0.7004  0.3334
 5509TIP3    H238019   6.006   4.261   0.578 -0.8230  0.5618 -0.6763
 5510TIP3   OH238020   5.001   1.626   4.655 -0.2952  0.3689 -0.4388
 5510TIP3    H138021   5.070   1.572   4.694 -0.2487 -0.3220 -1.4410
 5510TIP3    H238022   4.928   1.620   4.716 -0.3994 -1.0917 -0.6836
 5511TIP3   OH238023   1.813   2.435   5.854  0.4660 -0.1799  0.1053
 5511TIP3    H138024   1.892   2.484   5.876  0.2957 -0.1287  0.6039
 5511TIP3    H238025   1.768   2.489   5.790  0.8798 -0.2506 -0.2500
 5512TIP3   OH238026   2.946   6.305  15.470  0.6047  1.1687  0.5240
 5512TIP3    H138027   2.895   6.367  15.521 -0.0859  1.3090 -0.3230
 5512TIP3    H238028   2.883   6.264  15.411  1.4499  1.2912 -0.4795
 5513TIP3   OH238029   1.850   4.713   2.871  0.1485  0.1367 -0.7069
 5513TIP3    H138030   1.819   4.642   2.814  2.1892 -0.8765 -0.6215
 5513TIP3    H238031   1.874   4.669   2.952 -0.2040  1.1970 -0.0189
 5514TIP3   OH238032   5.306   5.361   2.977 -0.0440 -0.1950  0.4259
 5514TIP3    H138033   5.297   5.265   2.973  1.5519 -0.3428  0.1315
 5514TIP3    H238034   5.397   5.378   2.951  0.3955  1.2303  2.7770
 5515TIP3   OH238035   4.618   6.551  11.494 -0.1912 -0.2157 -0.2500
 5515TIP3    H138036   4.631   6.646  11.494 -2.2419  0.1037  1.7525
 5515TIP3    H238037   4.533   6.538  11.535 -0.0325 -2.9261 -0.6759
 5516TIP3   OH238038   1.484   3.650  11.347 -0.0554  0.0852 -0.1935
 5516TIP3    H138039   1.498   3.745  11.345 -0.0713  0.1145  0.8799
 5516TIP3    H238040   1.491   3.623  11.256  1.2880  0.9277 -0.3443
 5517TIP3   OH238041   2.026   4.106   5.894 -0.0887  0.2376 -0.1690
 5517TIP3    H138042   1.955   4.086   5.833 -0.5071 -0.5950  0.5791
 5517TIP3    H238043   1.982   4.118   5.978  0.5971  0.3087  0.1801
 5518TIP3   OH238044   4.413   0.307   1.494 -0.1176 -0.3035 -0.1131
 5518TIP3    H138045   4.423   0.389   1.542 -0.8426  0.1851 -0.7917
 5518TIP3    H238046   4.444   0.327   1.405  1.7085 -1.3375  0.2710
 5519TIP3   OH238047   5.345   6.617   3.904  0.4575 -0.1719 -0.1718
 5519TIP3    H138048   5.410   6.651   3.842  1.5180 -0.2238  0.8907
 5519TIP3    H238049   5.372   6.653   3.988 -0.8897 -0.2285  0.2880
 5520TIP3   OH238050   0.865   2.811   0.264  0.0753  0.9234  0.3992
 5520TIP3    H138051   0.909   2.757   0.330  0.4467 -0.2525 -0.7681
 5520TIP3    H238052   0.865   2.899   0.300  1.0224  0.4470  1.5943
 5521TIP3   OH238053   6.093   6.104  12.810 -0.3814 -0.4137  0.0792
 5521TIP3    H138054   6.107   6.014  12.839 -1.9299  0.0668  2.4107
 5521TIP3    H238055   6.067   6.151  12.889 -1.2134  1.7138 -1.4204
 5522TIP3   OH238056   4.355   2.588   0.724 -0.5978 -0.2139 -0.1744
 5522TIP3    H138057   4.305   2.587   0.805  0.6364  0.0093  0.6000
 5522TIP3    H238058   4.375   2.681   0.710  1.2975 -0.4847  0.5954
 5523TIP3   OH238059   3.155   1.121   4.134 -0.3533  0.1587  0.4121
 5523TIP3    H138060   3.183   1.092   4.047  0.3368 -0.6599  0.8945
 5523TIP3    H238061   3.081   1.065   4.155  0.1423 -0.3647  0.7856
 5524TIP3   OH238062   5.543   0.272  15.436 -0.3874 -0.0106 -0.1873
 5524TIP3    H138063   5.489   0.287  15.513 -0.2928  0.8046 -0.2732
 5524TIP3    H238064   5.600   0.198  15.459 -0.5569  0.0500  0.4122
 5525TIP3   OH238065   5.011   3.365   6.066  0.3156  0.3359 -1.1407
 5525TIP3    H138066   4.939   3.329   6.014 -0.6207  0.6117 -0.0552
 5525TIP3    H238067   5.015   3.309   6.143  0.3416  1.1783 -0.5277
 5526TIP3   OH238068   0.312   4.035  16.706 -0.2990  0.1934  0.2407
 5526TIP3    H138069   0.263   3.957  16.734 -1.8330  0.5884 -1.2253
 5526TIP3    H238070   0.309   4.093  16.782  0.2223 -0.8702  1.0942
 5527TIP3   OH238071   2.573   3.946  12.212  0.3470 -0.3066 -0.2059
 5527TIP3    H138072   2.528   3.986  12.286 -1.5554 -1.3184 -0.7693
 5527TIP3    H238073   2.602   3.861  12.244  1.9612  0.3829  0.1826
 5528TIP3   OH238074   3.072   2.551   2.934  0.1646 -0.4985 -0.3050
 5528TIP3    H138075   3.086   2.582   2.844  0.5012  1.2172  0.3231
 5528TIP3    H238076   3.029   2.466   2.923  0.4839 -0.4625 -2.0909
 5529TIP3   OH238077   4.756   1.608  10.847  0.0892 -0.5380 -0.6813
 5529TIP3    H138078   4.670   1.647  10.833 -0.0543 -0.6991 -0.2627
 5529TIP3    H238079   4.782   1.575  10.761 -0.9606 -1.8910 -0.4997
 5530TIP3   OH238080   1.113   3.038   0.752 -0.1642  0.2388  0.3441
 5530TIP3    H138081   1.108   2.947   0.782  3.7201 -0.3369 -0.4661
 5530TIP3    H238082   1.135   3.088   0.830 -0.3880  0.2059  0.4281
 5531TIP3   OH238083   1.842   5.405  11.794  0.3488 -0.7493 -0.0040
 5531TIP3    H138084   1.773   5.425  11.731 -0.3816 -2.7523  0.1281
 5531TIP3    H238085   1.915   5.373  11.741  1.4125  1.9063 -0.1941
 5532TIP3   OH238086   3.684   6.323  13.934 -0.2122 -0.5541  0.0584
 5532TIP3    H138087   3.765   6.360  13.969  0.2149  0.9574 -2.3578
 5532TIP3    H238088   3.627   6.399  13.921 -0.8598 -1.2206 -1.1101
 5533TIP3   OH238089   3.171   4.351   5.873 -0.1250  0.5998 -0.4891
 5533TIP3    H138090   3.082   4.364   5.907 -0.4324 -0.2910 -0.9256
 5533TIP3    H238091   3.220   4.315   5.947 -0.9004 -1.7452 -1.0631
 5534TIP3   OH238092   4.113   4.251   1.666  0.2286 -0.1797 -0.3851
 5534TIP3    H138093   4.064   4.212   1.594 -0.4230  1.0622 -0.6336
 5534TIP3    H238094   4.072   4.337   1.679  0.0016 -0.5797  1.7924
 5535TIP3   OH238095   0.948   1.775   4.791  0.3386  0.3185 -0.1399
 5535TIP3    H138096   0.875   1.825   4.829 -0.5720 -0.3328 -1.0325
 5535TIP3    H238097   0.922   1.684   4.798  1.4941  0.0143  0.4024
 5536TIP3   OH238098   4.828   1.926   0.191  0.1163  0.7328  0.3814
 5536TIP3    H138099   4.862   2.006   0.229  1.2843 -0.6271  2.3005
 5536TIP3    H238100   4.733   1.937   0.194  0.2745  2.7871 -1.1029
 5537TIP3   OH238101   0.865   4.561  12.995  0.1742  0.0993  0.1833
 5537TIP3    H138102   0.822   4.643  12.971  1.3674  0.2983 -1.4040
 5537TIP3    H238103   0.840   4.500  12.925 -0.2012 -0.7078  1.0203
 5538TIP3   OH238104   3.442   5.117   6.251  0.6510  0.3593 -0.2550
 5538TIP3    H138105   3.474   5.082   6.167 -0.0160  0.9865 -0.7786
 5538TIP3    H238106   3.517   5.161   6.289  1.6839 -2.1250  0.6946
 5539TIP3   OH238107   3.382   3.253  16.910 -0.0102  0.2199 -0.0032
 5539TIP3    H138108   3.297   3.244  16.867 -0.2239  1.8012  0.0381
 5539TIP3    H238109   3.446   3.234  16.841 -0.3916 -0.5944 -0.1325
 5540TIP3   OH238110   2.787   6.432   0.917 -0.1869  0.2918 -1.0589
 5540TIP3    H138111   2.849   6.422   0.844  0.5507 -0.3972 -0.3464
 5540TIP3    H238112   2.707   6.391   0.886 -0.0466  0.4798 -1.6871
 5541TIP3   OH238113   6.218   5.132  11.824 -0.1163 -0.1440  0.1880
 5541TIP3    H138114   6.176   5.218  11.820 -1.8290 -0.8675  1.8488
 5541TIP3    H238115   6.278   5.138  11.899 -1.1948 -0.7945  1.1130
 5542TIP3   OH238116   5.034   0.307  16.340 -0.6105  0.5106 -0.0948
 5542TIP3    H138117   5.065   0.360  16.414 -1.7149  1.5360 -0.3483
 5542TIP3    H238118   4.969   0.362  16.297 -1.4569 -0.8833 -0.6330
 5543TIP3   OH238119   6.687   2.126   3.828 -0.2514  0.1363 -0.0705
 5543TIP3    H138120   6.646   2.068   3.892  2.0404 -1.1776  0.2554
 5543TIP3    H238121   6.615   2.182   3.797 -1.4602  0.6975  3.4962
 5544TIP3   OH238122   0.786   2.119  13.793 -0.5707  0.4512  0.2273
 5544TIP3    H138123   0.764   2.185  13.728  1.0251  1.1325  0.3595
 5544TIP3    H238124   0.706   2.066  13.801 -1.0335  0.8074 -1.7117
 5545TIP3   OH238125   6.638   2.926  11.816 -0.0576  0.0771 -0.3441
 5545TIP3    H138126   6.707   2.973  11.770 -0.2076  0.4402 -0.2034
 5545TIP3    H238127   6.674   2.839  11.832  0.9559  0.7217  1.0486
 5546TIP3   OH238128   1.895   2.677  13.129  0.2841 -0.1521 -0.3287
 5546TIP3    H138129   1.835   2.604  13.118 -1.7547  1.4541 -0.0985
 5546TIP3    H238130   1.904   2.714  13.041 -0.2495  0.5141 -0.1057
 5547TIP3   OH238131   6.681   5.591   6.172  0.1483  0.2142  0.3345
 5547TIP3    H138132   6.610   5.536   6.204  0.1651 -0.0926 -0.1612
 5547TIP3    H238133   6.718   5.631   6.252  0.7100 -1.1732  0.7774
 5548TIP3   OH238134   0.739   2.371  15.210  0.1424 -0.0131  0.6520
 5548TIP3    H138135   0.659   2.407  15.173 -0.0219 -0.0992  0.9233
 5548TIP3    H238136   0.744   2.410  15.298  1.8993  2.2922 -0.3915
 5549TIP3   OH238137   2.102   5.383   0.661  0.1582  0.0513  0.2463
 5549TIP3    H138138   2.054   5.415   0.737 -2.1187 -0.1999 -1.0387
 5549TIP3    H238139   2.121   5.461   0.610 -0.6779 -0.0553 -0.2377
 5550TIP3   OH238140   3.092   5.103  15.113 -0.6079 -0.4796  0.5242
 5550TIP3    H138141   3.086   5.150  15.197  2.1117  1.5297 -0.3441
 5550TIP3    H238142   3.168   5.046  15.122 -0.8816 -0.9838 -0.2543
 5551TIP3   OH238143   2.177   1.741   2.170 -0.7695 -0.0509  0.1767
 5551TIP3    H138144   2.122   1.759   2.245  0.4136 -1.5917  1.4420
 5551TIP3    H238145   2.265   1.728   2.206  0.1340  0.7974 -1.6250
 5552TIP3   OH238146   1.469   5.017   2.348 -0.2011  0.2977 -0.2858
 5552TIP3    H138147   1.438   4.926   2.345  0.5520  0.0732 -2.3142
 5552TIP3    H238148   1.404   5.063   2.401  0.2136 -1.7082  2.0321
 5553TIP3   OH238149   2.387   6.151   2.014 -0.1663  0.2442  0.0685
 5553TIP3    H138150   2.387   6.114   2.102  1.4859  0.1362  0.0284
 5553TIP3    H238151   2.332   6.091   1.963 -0.3272 -0.2287  0.7874
 5554TIP3   OH238152   0.527   5.362  13.861 -0.1287 -0.3371  0.1830
 5554TIP3    H138153   0.572   5.394  13.783  0.2244 -0.3095  0.3971
 5554TIP3    H238154   0.437   5.345  13.831 -0.3899  1.0670  0.1178
 5555TIP3   OH238155   0.981   0.607   3.403 -0.2645 -0.4821  0.0014
 5555TIP3    H138156   0.956   0.689   3.446 -0.2723 -1.0634  1.1124
 5555TIP3    H238157   1.037   0.635   3.331 -0.6369  0.5369  0.0976
 5556TIP3   OH238158   1.173   5.844   0.449  0.0861  0.2971  0.2617
 5556TIP3    H138159   1.152   5.937   0.454  0.3465  0.2982  1.4106
 5556TIP3    H238160   1.259   5.836   0.490  1.4294 -0.0223 -2.5377
 5557TIP3   OH238161   5.615   4.142   1.004 -0.0490  0.3334  0.6346
 5557TIP3    H138162   5.703   4.112   1.027  0.2984  0.9578  0.1567
 5557TIP3    H238163   5.627   4.235   0.982 -1.0696  0.7861  1.9431
 5558TIP3   OH238164   5.848   0.112   4.281 -0.0634  0.4055 -0.4349
 5558TIP3    H138165   5.781   0.152   4.225 -0.9354 -1.5296 -0.8209
 5558TIP3    H238166   5.889   0.046   4.225  3.4351  2.7417 -0.7853
 5559TIP3   OH238167   1.581   6.069   2.306 -0.0741  0.0537 -0.0936
 5559TIP3    H138168   1.555   6.160   2.319 -0.1806  0.0278 -0.1229
 5559TIP3    H238169   1.510   6.031   2.254 -0.2307 -0.1511  0.2696
 5560TIP3   OH238170   6.230   4.703   2.174 -0.3397 -0.5514  0.1402
 5560TIP3    H138171   6.150   4.675   2.130 -0.5266 -0.1867  0.2494
 5560TIP3    H238172   6.288   4.731   2.103 -1.1120  1.2745  0.1876
 5561TIP3   OH238173   1.510   2.423  14.667  0.5493  0.1710  0.1409
 5561TIP3    H138174   1.477   2.460  14.586  1.4060 -0.1007 -0.3360
 5561TIP3    H238175   1.466   2.473  14.736 -0.5801  0.0377 -0.4806
 5562TIP3   OH238176   6.099   6.294   6.419 -0.3038  0.2952  0.0111
 5562TIP3    H138177   6.026   6.349   6.448  0.6374  0.4442  2.1492
 5562TIP3    H238178   6.173   6.355   6.409  0.5092 -0.4153  1.5427
 5563TIP3   OH238179   5.567   3.694   3.260 -0.2973  0.7163 -0.2738
 5563TIP3    H138180   5.575   3.747   3.339 -1.7111 -0.2530  0.5413
 5563TIP3    H238181   5.482   3.718   3.223 -0.5226 -0.2709 -0.4184
 5564TIP3   OH238182   1.480   3.716   2.602  0.1531 -0.2713 -0.0304
 5564TIP3    H138183   1.457   3.665   2.680  0.0168 -2.6654 -1.5536
 5564TIP3    H238184   1.572   3.695   2.586  0.2454  0.3815 -0.3636
 5565TIP3   OH238185   1.360   3.338  12.113  0.5428  0.5480  0.4192
 5565TIP3    H138186   1.419   3.399  12.156  1.3273  0.5134 -0.5749
 5565TIP3    H238187   1.418   3.286  12.056 -0.0923 -1.1501  1.2911
 5566TIP3   OH238188   1.612   4.518  12.922 -0.3614 -0.3505  0.1965
 5566TIP3    H138189   1.553   4.563  12.861 -1.5579 -1.4738  0.5112
 5566TIP3    H238190   1.659   4.589  12.967 -0.8641  0.5287 -0.6470
 5567TIP3   OH238191   6.179   3.823  12.470 -0.5216 -0.2507  0.5207
 5567TIP3    H138192   6.151   3.795  12.382 -0.6662  2.0454 -0.1978
 5567TIP3    H238193   6.097   3.836  12.518 -0.4738 -0.4476  0.6558
 5568TIP3   OH238194   2.254   2.961   0.177 -0.8085  0.1655 -0.5347
 5568TIP3    H138195   2.195   2.900   0.221 -0.2895  0.4046  0.5143
 5568TIP3    H238196   2.336   2.955   0.226 -0.3367  0.7343 -1.2337
 5569TIP3   OH238197   4.791   2.189  13.330  0.4529 -0.1466 -0.3467
 5569TIP3    H138198   4.706   2.219  13.364  1.5936  1.9757  0.7162
 5569TIP3    H238199   4.773   2.167  13.239 -1.1839  0.5292 -0.2157
 5570TIP3   OH238200   3.525   1.597  15.575  0.2523  0.1575 -0.4324
 5570TIP3    H138201   3.532   1.692  15.568  0.2366  0.3544  1.9076
 5570TIP3    H238202   3.433   1.579  15.555 -0.1580  0.8048  0.8584
 5571TIP3   OH238203   0.760   5.726  16.060 -0.1081 -0.5089  0.2224
 5571TIP3    H138204   0.825   5.781  16.104 -0.9170  0.1405  0.6238
 5571TIP3    H238205   0.766   5.753  15.968 -0.8247  0.5849  0.4911
 5572TIP3   OH238206   3.640   0.816  14.286  0.0381 -0.2514 -0.3692
 5572TIP3    H138207   3.609   0.726  14.292 -0.3275 -0.1904 -1.2391
 5572TIP3    H238208   3.652   0.832  14.192  1.4306  0.1639 -0.1300
 5573TIP3   OH238209   5.976   4.112   0.111 -0.3862 -0.4107 -0.5245
 5573TIP3    H138210   5.889   4.095   0.075 -0.9255  0.5629  0.3097
 5573TIP3    H238211   5.966   4.192   0.161  1.5629  1.0263 -2.3693
 5574TIP3   OH238212   3.267   1.442   5.425 -0.0362  0.3733 -0.4843
 5574TIP3    H138213   3.328   1.506   5.463 -0.6269  1.1092 -0.7556
 5574TIP3    H238214   3.272   1.366   5.483  0.0712  0.9752  0.2998
 5575TIP3   OH238215   0.801   3.655  13.223  0.2686 -0.0610 -0.4464
 5575TIP3    H138216   0.707   3.636  13.221  0.0351  0.2137  3.9870
 5575TIP3    H238217   0.842   3.569  13.234  0.2658  0.1762  1.5644
 5576TIP3   OH238218   1.400   0.831   0.346 -0.6362  0.0060  0.1178
 5576TIP3    H138219   1.445   0.776   0.411 -0.9601 -0.7669 -0.2991
 5576TIP3    H238220   1.314   0.789   0.336 -0.7441  0.3735 -0.4873
 5577TIP3   OH238221   5.058   3.093   1.655 -0.1386  0.1818 -0.0987
 5577TIP3    H138222   5.076   3.004   1.626 -1.0956  0.4828 -1.7382
 5577TIP3    H238223   5.141   3.139   1.645 -0.1945  0.0222 -1.5184
 5578TIP3   OH238224   3.117   4.371  15.164  0.1222  0.6069 -0.6343
 5578TIP3    H138225   3.035   4.419  15.178 -0.3093 -0.7769  1.8475
 5578TIP3    H238226   3.183   4.421  15.213  0.5446  1.0544 -1.6432
 5579TIP3   OH238227   0.226   4.056   2.235  0.6105 -0.4505  0.3935
 5579TIP3    H138228   0.294   4.122   2.249 -0.5227  0.7646  0.3243
 5579TIP3    H238229   0.147   4.094   2.273 -0.4548 -1.0105 -1.1888
 5580TIP3   OH238230   0.480   1.812   3.530  0.1626  0.4428  0.3951
 5580TIP3    H138231   0.482   1.746   3.462 -1.4701  0.7691  0.0001
 5580TIP3    H238232   0.449   1.765   3.608 -1.8300  0.8924 -0.0980
 5581TIP3   OH238233   4.028   2.660   3.286 -0.0518 -0.1513 -0.1118
 5581TIP3    H138234   3.958   2.623   3.233  0.5802 -0.8990 -0.4173
 5581TIP3    H238235   3.994   2.658   3.375 -0.8469  0.4854 -0.3943
 5582TIP3   OH238236   5.785   2.649   2.610  0.0312  0.9050  0.7498
 5582TIP3    H138237   5.850   2.694   2.662  2.6164 -1.9513  0.1165
 5582TIP3    H238238   5.834   2.610   2.538 -2.5154 -0.4954 -0.3089
 5583TIP3   OH238239   4.094   2.467  15.033  0.0766 -0.0532 -0.9085
 5583TIP3    H138240   4.059   2.543  14.987  2.5078  0.9340 -1.2032
 5583TIP3    H238241   4.132   2.412  14.964 -1.3433 -1.3933 -0.6597
 5584TIP3   OH238242   4.027   0.597   5.543 -0.0604  0.3514  0.0363
 5584TIP3    H138243   4.096   0.663   5.534 -1.4549  1.7616 -0.4338
 5584TIP3    H238244   3.961   0.621   5.478 -0.3158 -1.8849 -0.5784
 5585TIP3   OH238245   2.220   5.025  15.121 -0.0463  0.6269 -0.6294
 5585TIP3    H138246   2.237   5.016  15.028  0.0576 -3.3628 -0.3386
 5585TIP3    H238247   2.126   5.009  15.130 -0.1768  1.6601 -0.1168
 5586TIP3   OH238248   0.102   3.086  11.445  0.8226  0.7534  0.0019
 5586TIP3    H138249   0.177   3.103  11.388 -0.9596 -0.2335 -2.7485
 5586TIP3    H238250   0.079   3.172  11.480  0.2118  1.9036 -3.0626
 5587TIP3   OH238251   2.148   1.841   6.525 -0.6788 -0.3428  0.4028
 5587TIP3    H138252   2.083   1.797   6.580 -0.3603  0.6392  1.5861
 5587TIP3    H238253   2.231   1.823   6.568 -0.0080 -2.3572 -1.5944
 5588TIP3   OH238254   0.730   6.384  12.655 -0.4933  0.1065  0.4830
 5588TIP3    H138255   0.712   6.370  12.562  1.5360  0.9345 -0.0717
 5588TIP3    H238256   0.737   6.296  12.692 -2.1713 -0.2312  0.0565
 5589TIP3   OH238257   4.854   3.672  13.872  0.3926  0.3139  0.3668
 5589TIP3    H138258   4.867   3.615  13.948  1.0798  1.3499  1.0416
 5589TIP3    H238259   4.770   3.715  13.888  2.2400  3.3654  2.4590
 5590TIP3   OH238260   5.617   4.612  12.945  0.3757 -0.5666 -0.1447
 5590TIP3    H138261   5.633   4.522  12.976  0.6748 -0.3957  0.1944
 5590TIP3    H238262   5.524   4.627  12.964  0.3678 -0.7435 -0.0356
 5591TIP3   OH238263   3.007   3.986  12.660  0.1933  0.1828  0.1573
 5591TIP3    H138264   2.963   3.977  12.575  0.6946 -1.1097  0.0199
 5591TIP3    H238265   2.953   4.048  12.709 -0.5605  0.2973 -0.8042
 5592TIP3   OH238266   2.425   2.316  14.972  0.3043  0.1685 -0.1748
 5592TIP3    H138267   2.453   2.406  14.961 -1.7452  0.8502 -0.0276
 5592TIP3    H238268   2.331   2.322  14.990 -0.2192 -2.0936 -1.9854
 5593TIP3   OH238269   2.342   5.269  12.038  0.1342  0.6567 -0.5130
 5593TIP3    H138270   2.339   5.314  11.954  0.5138  1.3325 -0.1667
 5593TIP3    H238271   2.419   5.304  12.082  1.2815 -1.4104 -0.8430
 5594TIP3   OH238272   2.587   2.793   3.083 -0.3060 -0.0477  0.3180
 5594TIP3    H138273   2.641   2.823   3.157  0.6459  0.0165 -0.4019
 5594TIP3    H238274   2.539   2.718   3.118 -0.5402  0.5235  1.2750
 5595TIP3   OH238275   2.595   3.131  13.334 -0.0032 -0.2208 -0.2935
 5595TIP3    H138276   2.521   3.070  13.333 -0.0090 -0.3753 -5.6224
 5595TIP3    H238277   2.555   3.217  13.342 -0.6501 -0.4321 -1.1404
 5596TIP3   OH238278   1.628   4.322  12.568  0.0473 -0.8414 -0.2602
 5596TIP3    H138279   1.556   4.386  12.568 -2.2227 -3.2881  0.0335
 5596TIP3    H238280   1.643   4.304  12.475 -1.1924 -1.8222 -0.3004
 5597TIP3   OH238281   3.948   2.348   0.936  0.6896 -0.3700 -0.3043
 5597TIP3    H138282   3.879   2.299   0.890  1.3778  0.6270 -2.4979
 5597TIP3    H238283   3.929   2.440   0.918  0.1600  0.1467  2.6850
 5598TIP3   OH238284   6.668   2.747  14.597 -0.3939  0.6764  0.0133
 5598TIP3    H138285   6.743   2.740  14.656 -0.3505  1.3097  0.0329
 5598TIP3    H238286   6.592   2.732  14.653 -0.2574 -0.5959 -0.1217
 5599TIP3   OH238287   2.452   5.608  16.095  0.1765  0.0426 -0.3621
 5599TIP3    H138288   2.485   5.666  16.026  0.7830 -1.7393 -1.6010
 5599TIP3    H238289   2.373   5.570  16.058  0.4108 -0.7973 -0.0098
 5600TIP3   OH238290   1.354   0.731   0.743 -0.2274  0.1859 -0.5301
 5600TIP3    H138291   1.386   0.819   0.763  1.8381 -0.7770  0.5678
 5600TIP3    H238292   1.341   0.690   0.829 -3.4410  0.1630 -0.9756
 5601TIP3   OH238293   1.583   2.652  15.922  0.2085  0.5704 -0.1042
 5601TIP3    H138294   1.653   2.682  15.980  0.2043  2.0180 -0.8356
 5601TIP3    H238295   1.594   2.703  15.842 -1.1320  0.1512 -0.5713
 5602TIP3   OH238296   4.920   6.553  17.087  0.3375  0.5958 -0.6464
 5602TIP3    H138297   4.977   6.600  17.026  0.0415 -0.7183 -1.9693
 5602TIP3    H238298   4.834   6.554  17.045  0.4064 -1.4428 -0.9158
 5603TIP3   OH238299   5.387   0.739  13.610 -0.7258  0.3643 -1.0876
 5603TIP3    H138300   5.466   0.788  13.588 -0.6269 -0.8315 -3.5866
 5603TIP3    H238301   5.417   0.671  13.670 -0.2852  1.3271 -0.2050
 5604TIP3   OH238302   6.627   3.498   4.279  0.1632  0.2515 -0.3274
 5604TIP3    H138303   6.683   3.453   4.216  1.3670  0.3054  0.6834
 5604TIP3    H238304   6.646   3.456   4.363 -1.2096  0.3728  0.0638
 5605TIP3   OH238305   2.772   5.955   0.950 -0.0867 -0.0785  0.0829
 5605TIP3    H138306   2.694   5.975   0.899 -0.3013 -0.4421  0.2745
 5605TIP3    H238307   2.806   6.041   0.975 -0.5388  0.0745  0.1739
 5606TIP3   OH238308   2.756   4.011   4.232  0.2464 -0.2355 -0.0992
 5606TIP3    H138309   2.844   4.043   4.253 -0.1280  0.3414  0.6036
 5606TIP3    H238310   2.764   3.977   4.143  1.4242 -1.1001  0.3159
 5607TIP3   OH238311   4.859   0.659   0.343  0.2619  0.1305 -0.0577
 5607TIP3    H138312   4.803   0.736   0.357  1.1272  0.7115  0.2503
 5607TIP3    H238313   4.909   0.680   0.264  0.7791  0.0514  0.2459
 5608TIP3   OH238314   1.177   1.748   0.222  0.2008 -0.0832 -0.1109
 5608TIP3    H138315   1.234   1.823   0.239  2.0948 -0.9974 -2.2531
 5608TIP3    H238316   1.106   1.784   0.169  0.7105  0.3502 -0.5101
 5609TIP3   OH238317   4.321   3.737   3.283 -0.2098  0.3033 -0.1309
 5609TIP3    H138318   4.297   3.768   3.370  2.4109  0.3377  0.6471
 5609TIP3    H238319   4.392   3.674   3.299  0.1951  0.1772 -2.2179
 5610TIP3   OH238320   4.316   1.836  14.163 -0.1897 -0.0823  0.0043
 5610TIP3    H138321   4.362   1.817  14.244 -0.9947  0.0921  0.5066
 5610TIP3    H238322   4.235   1.879  14.191  1.3079  3.6498 -1.0244
 5611TIP3   OH238323   2.377   4.492  13.147  0.2797  0.4933 -0.4974
 5611TIP3    H138324   2.384   4.511  13.054  0.3581  1.5914 -0.2710
 5611TIP3    H238325   2.363   4.577  13.188 -1.5974 -0.1703  0.3110
 5612TIP3   OH238326   0.213   5.462   2.454 -0.2457  0.1088  0.1071
 5612TIP3    H138327   0.189   5.444   2.363 -1.7964  1.0179  0.3246
 5612TIP3    H238328   0.153   5.409   2.505  0.8682 -0.6853  0.6162
 5613TIP3   OH238329   2.802   5.802  13.682 -0.2522  0.0219 -0.1822
 5613TIP3    H138330   2.735   5.857  13.641  0.5601  1.4980  0.4333
 5613TIP3    H238331   2.884   5.846  13.662  0.2062  0.5350  2.6388
 5614TIP3   OH238332   1.773   1.639   0.420  0.2183  0.1592  0.6800
 5614TIP3    H138333   1.851   1.694   0.408 -0.4016  1.1302  1.0288
 5614TIP3    H238334   1.807   1.550   0.427  1.3068  0.5890  0.9260
 5615TIP3   OH238335   5.742   4.766   3.649  0.3255 -0.1001 -0.1725
 5615TIP3    H138336   5.774   4.698   3.708 -0.2146 -1.1164 -1.0304
 5615TIP3    H238337   5.805   4.768   3.578 -0.3272 -0.5605 -0.7632
 5616TIP3   OH238338   6.265   1.686   3.151 -0.1156 -0.2809  0.3267
 5616TIP3    H138339   6.245   1.779   3.143  1.1599  0.0343  0.7579
 5616TIP3    H238340   6.191   1.651   3.201 -0.4739  0.5475  0.3946
 5617TIP3   OH238341   6.025   2.894  13.760  0.5133 -0.4142 -0.0786
 5617TIP3    H138342   6.041   2.886  13.666 -0.0609  0.1913 -0.2307
 5617TIP3    H238343   6.069   2.818  13.799  0.8930 -0.5719 -0.8181
 5618TIP3   OH238344   2.791   5.131  14.756  0.0390 -0.0575  0.2252
 5618TIP3    H138345   2.798   5.041  14.788  1.2448  0.7680  2.3442
 5618TIP3    H238346   2.879   5.167  14.766 -0.3638  1.2776 -0.8920
 5619TIP3   OH238347   4.239   5.141  11.701  0.1963  0.2802  0.0109
 5619TIP3    H138348   4.226   5.175  11.789  0.5000  0.5789 -0.0576
 5619TIP3    H238349   4.297   5.204  11.659  0.7766 -0.3356 -0.1207
 5620TIP3   OH238350   1.046   6.354   3.791  0.4731 -0.3103  0.0536
 5620TIP3    H138351   1.008   6.419   3.731  0.6947  1.5235  1.8393
 5620TIP3    H238352   1.085   6.288   3.734  2.4581  2.4054 -1.8525
 5621TIP3   OH238353   1.750   0.317   2.123  0.1488  0.0948  0.2336
 5621TIP3    H138354   1.658   0.306   2.099  1.0072 -0.4691 -2.9722
 5621TIP3    H238355   1.772   0.405   2.092  1.5332 -1.0060 -2.0269
 5622TIP3   OH238356   6.653   4.788   0.807 -0.5671  0.4082  0.5939
 5622TIP3    H138357   6.652   4.785   0.903 -1.9145 -0.1717  0.5761
 5622TIP3    H238358   6.744   4.774   0.783 -0.4857 -1.1585  1.7471
 5623TIP3   OH238359   1.050   6.705  13.371 -0.1131  0.0340 -0.1403
 5623TIP3    H138360   1.024   6.796  13.355  0.6857  0.4304  0.7518
 5623TIP3    H238361   1.072   6.670  13.285 -2.1111  0.1348 -0.7364
 5624TIP3   OH238362   3.695   6.468   0.439  0.9371  0.1385  0.4634
 5624TIP3    H138363   3.705   6.488   0.532  2.1260  3.4146 -0.3048
 5624TIP3    H238364   3.779   6.493   0.400  0.5516 -1.4308 -1.4706
 5625TIP3   OH238365   4.084   2.383   6.199 -0.0283 -0.6860 -0.1536
 5625TIP3    H138366   4.028   2.382   6.121  0.4203  1.0813 -0.5217
 5625TIP3    H238367   4.084   2.474   6.227  1.0123 -1.0441  1.0582
 5626TIP3   OH238368   1.266   2.124   0.557 -0.4835  0.0213  0.0821
 5626TIP3    H138369   1.194   2.063   0.572  0.4510 -1.9231 -2.9574
 5626TIP3    H238370   1.251   2.159   0.470  0.6276  1.9496  0.6277
 5627TIP3   OH238371   4.662   1.826   3.577  0.5787 -0.1593  0.3801
 5627TIP3    H138372   4.707   1.767   3.516  0.2386 -0.2392  0.2039
 5627TIP3    H238373   4.685   1.914   3.547 -0.8717 -0.1727 -0.8586
 5628TIP3   OH238374   0.390   6.709  14.836 -0.1960 -0.3392 -0.2766
 5628TIP3    H138375   0.393   6.647  14.909  1.3022 -1.4206 -1.2141
 5628TIP3    H238376   0.455   6.775  14.859 -0.9251  0.2361  0.1484
 5629TIP3   OH238377   4.843   3.170  10.984  0.7645 -0.5422  0.2684
 5629TIP3    H138378   4.792   3.242  11.022 -1.2363 -1.0768 -1.3345
 5629TIP3    H238379   4.856   3.196  10.892  0.2062 -2.1368 -0.2708
 5630TIP3   OH238380   2.494   1.943   5.760  0.4107 -0.3601  0.3329
 5630TIP3    H138381   2.546   1.970   5.684 -1.2641  0.8752 -0.4137
 5630TIP3    H238382   2.555   1.892   5.814  2.7002  1.8513 -0.0143
 5631TIP3   OH238383   5.887   4.790  15.908  0.2225 -0.5858 -0.1252
 5631TIP3    H138384   5.925   4.819  15.825 -0.6041  1.8375  0.3194
 5631TIP3    H238385   5.809   4.740  15.883 -0.9765  1.5808 -0.7632
 5632TIP3   OH238386   5.255   2.309  14.792 -0.1234  0.1542 -0.6793
 5632TIP3    H138387   5.306   2.385  14.762  0.1155 -0.4758 -1.9485
 5632TIP3    H238388   5.314   2.235  14.778 -0.2368 -0.2320  0.8576
 5633TIP3   OH238389   2.057   0.106   5.577  0.7890 -0.4364 -0.3107
 5633TIP3    H138390   1.991   0.168   5.610 -0.2095 -1.2865 -0.7109
 5633TIP3    H238391   2.088   0.061   5.656  0.0318 -0.8819 -0.2708
 5634TIP3   OH238392   0.938   6.802  11.974 -0.2226 -0.6557  0.5471
 5634TIP3    H138393   0.997   6.877  11.961  0.2802 -0.9619  1.0432
 5634TIP3    H238394   0.886   6.825  12.051 -1.3568 -0.0075 -0.4026
 5635TIP3   OH238395   2.400   4.182  11.687 -0.3504  0.1943  0.8358
 5635TIP3    H138396   2.457   4.157  11.760 -0.0778  0.1687  0.6130
 5635TIP3    H238397   2.424   4.123  11.616  1.4205  2.0977 -0.2148
 5636TIP3   OH238398   1.401   2.157  16.813 -0.6038  0.6258  0.5115
 5636TIP3    H138399   1.378   2.236  16.863 -3.3985 -0.7149  1.4714
 5636TIP3    H238400   1.461   2.110  16.870 -1.7458  0.3644  1.5347
 5637TIP3   OH238401   1.076   5.826  12.921 -0.2171 -0.5738 -0.4777
 5637TIP3    H138402   1.108   5.821  12.831  0.0519  1.2962 -0.5161
 5637TIP3    H238403   1.155   5.821  12.975 -0.3255 -1.1030 -0.3663
 5638TIP3   OH238404   5.220   1.351  13.087 -0.1931 -0.0235 -0.2504
 5638TIP3    H138405   5.225   1.386  12.999 -1.0180 -0.0032 -0.2949
 5638TIP3    H238406   5.147   1.289  13.084  0.2901 -0.6271  0.2072
 5639TIP3   OH238407   2.040   4.989   2.963  0.2198 -0.1370 -0.4105
 5639TIP3    H138408   2.037   5.041   2.883  0.4622 -0.3834 -0.5794
 5639TIP3    H238409   2.061   4.900   2.934 -1.4093 -0.5873 -0.2372
 5640TIP3   OH238410   3.357   1.862   2.223  0.1713 -0.0615 -0.1372
 5640TIP3    H138411   3.368   1.906   2.139  3.0628 -1.4482 -0.5771
 5640TIP3    H238412   3.299   1.789   2.204  0.3727 -0.0546 -0.8138
 5641TIP3   OH238413   5.092   0.420   1.120 -0.4103  0.9311 -0.0045
 5641TIP3    H138414   5.069   0.493   1.062 -2.2061 -0.5331 -1.2354
 5641TIP3    H238415   5.152   0.366   1.068 -1.7547 -0.2048 -0.4339
 5642TIP3   OH238416   5.658   5.996  17.017 -0.0947 -0.3916 -0.3881
 5642TIP3    H138417   5.670   5.902  17.034  0.8423 -0.0886  0.6921
 5642TIP3    H238418   5.744   6.026  16.987  0.8816  0.9781  3.4939
 5643TIP3   OH238419   1.539   5.989   5.162 -0.6616  0.2646 -0.2923
 5643TIP3    H138420   1.580   6.028   5.239 -0.0790 -1.6349  0.4007
 5643TIP3    H238421   1.611   5.978   5.099  0.5195 -4.8962  1.6497
 5644TIP3   OH238422   5.150   2.264   2.391 -0.0845  0.2988 -0.1425
 5644TIP3    H138423   5.225   2.255   2.450 -0.7113  0.7824  0.7320
 5644TIP3    H238424   5.073   2.247   2.446 -0.6578  0.4010 -0.8964
 5645TIP3   OH238425   3.704   3.501  14.302  1.2162  0.5158 -0.5429
 5645TIP3    H138426   3.792   3.465  14.317  1.2718  0.8718  0.0424
 5645TIP3    H238427   3.645   3.437  14.341  1.1636 -0.1150 -1.6489
 5646TIP3   OH238428   1.664   0.043  14.273 -0.7690 -0.0778 -0.1418
 5646TIP3    H138429   1.610   0.066  14.349  0.1165  3.4669 -0.4853
 5646TIP3    H238430   1.604   0.049  14.198 -1.2243 -1.8570  0.0551
 5647TIP3   OH238431   0.044   6.083  14.084  0.3408  0.0851  0.4214
 5647TIP3    H138432   0.011   6.139  14.013  0.6949 -0.2798 -0.0301
 5647TIP3    H238433   0.090   6.144  14.141  0.7552  0.2619 -0.0901
 5648TIP3   OH238434   3.782   2.436  12.300 -0.2069  0.4223 -0.1885
 5648TIP3    H138435   3.742   2.506  12.249  0.5595 -0.0806 -1.4951
 5648TIP3    H238436   3.735   2.357  12.274 -1.2468  0.4758  1.4773
 5649TIP3   OH238437   4.372   3.784  11.429 -0.3858 -0.7614  1.0518
 5649TIP3    H138438   4.456   3.792  11.475  0.7921 -1.1921 -0.9455
 5649TIP3    H238439   4.396   3.781  11.337 -2.8891  3.5443  0.1080
 5650TIP3   OH238440   3.455   2.161   0.962 -0.0802  0.2314 -0.0680
 5650TIP3    H138441   3.418   2.229   1.020  3.4664  1.3301  1.0443
 5650TIP3    H238442   3.485   2.093   1.022 -0.6072 -0.8035 -0.9724
 5651TIP3   OH238443   5.305   4.549  13.289 -1.0761  0.6510 -0.5853
 5651TIP3    H138444   5.334   4.591  13.208 -0.4272  0.0908 -0.6531
 5651TIP3    H238445   5.366   4.475  13.300 -0.5571  1.2968  0.9336
 5652TIP3   OH238446   4.751   1.002   1.455 -0.4609 -0.0536 -0.6571
 5652TIP3    H138447   4.733   0.966   1.542  0.6357 -1.3140 -0.9314
 5652TIP3    H238448   4.769   0.925   1.400 -3.4891  0.5314 -2.5909
 5653TIP3   OH238449   5.861   6.750   3.272  0.3432 -0.4665  0.1444
 5653TIP3    H138450   5.789   6.691   3.248  0.7107 -0.5860 -0.7096
 5653TIP3    H238451   5.918   6.750   3.194  0.9399  0.1095  0.5793
 5654TIP3   OH238452   0.122   6.352   1.914 -0.6117 -0.2378 -0.3089
 5654TIP3    H138453   0.058   6.300   1.963 -0.5245 -1.6291 -1.6324
 5654TIP3    H238454   0.198   6.293   1.904  0.7158  1.2309  0.8472
 5655TIP3   OH238455   2.308   5.962  12.638 -0.2396  0.5047  0.5437
 5655TIP3    H138456   2.358   5.887  12.671 -1.2955 -0.8199 -0.8250
 5655TIP3    H238457   2.354   5.989  12.558 -0.5590  0.5605  0.3777
 5656TIP3   OH238458   6.059   2.345  17.162  0.4642 -0.1999  0.2465
 5656TIP3    H138459   6.062   2.402  17.239 -2.8081 -0.2132  0.4384
 5656TIP3    H238460   5.982   2.289  17.175  1.9241 -2.7061 -1.3213
 5657TIP3   OH238461   3.382   0.180  11.359  0.4182 -0.7062 -0.2567
 5657TIP3    H138462   3.440   0.224  11.422  1.3840 -1.0463 -0.8979
 5657TIP3    H238463   3.338   0.251  11.313  0.8562 -0.4371 -0.2621
 5658TIP3   OH238464   4.322   1.400  14.446 -0.0026 -0.0244 -0.3349
 5658TIP3    H138465   4.398   1.363  14.400  0.2034 -0.1233  0.0867
 5658TIP3    H238466   4.357   1.474  14.495 -0.4868  0.9721 -1.4853
 5659TIP3   OH238467   6.027   4.016   1.056 -0.3625  0.8133 -0.1056
 5659TIP3    H138468   6.059   4.016   1.146 -1.8930  0.0550  0.4526
 5659TIP3    H238469   5.955   4.079   1.056 -0.6141  0.5321 -0.6934
 5660TIP3   OH238470   1.963   1.315   2.301 -0.2049 -0.4448  0.5237
 5660TIP3    H138471   1.906   1.324   2.378  0.9848  0.9483  1.2730
 5660TIP3    H238472   1.930   1.381   2.240  1.2878  1.1915  1.4253
 5661TIP3   OH238473   4.217   0.601  12.051  0.4363 -0.9563 -0.1198
 5661TIP3    H138474   4.207   0.506  12.058  0.9292 -1.0825 -0.9846
 5661TIP3    H238475   4.157   0.626  11.981 -1.9102 -0.2052  2.0698
 5662TIP3   OH238476   6.483   6.150   1.218 -0.9676 -0.1349  0.0928
 5662TIP3    H138477   6.484   6.062   1.181 -0.3541  0.0392 -0.3332
 5662TIP3    H238478   6.458   6.206   1.144  3.0635  0.5457 -0.9077
 5663TIP3   OH238479   0.849   6.276   2.946  0.3582 -0.7418  0.3021
 5663TIP3    H138480   0.848   6.212   2.875  1.0852 -0.1840 -0.2226
 5663TIP3    H238481   0.910   6.343   2.916  0.0824 -0.1211  1.1254
 5664TIP3   OH238482   2.257   3.840  16.388 -0.6030  0.5394  0.4240
 5664TIP3    H138483   2.204   3.760  16.381 -0.4500  0.5367 -0.7591
 5664TIP3    H238484   2.200   3.909  16.354  0.5189  0.3648 -1.9012
 5665TIP3   OH238485   1.431   2.723   4.577  0.0220 -0.7128 -0.1369
 5665TIP3    H138486   1.422   2.715   4.482 -2.4597 -1.5791  0.1174
 5665TIP3    H238487   1.404   2.637   4.611  1.9247 -0.7633  1.3079
 5666TIP3   OH238488   5.065   3.245   5.735 -0.0558  0.3877 -0.1371
 5666TIP3    H138489   5.140   3.294   5.702 -0.8300 -0.1071 -2.7754
 5666TIP3    H238490   5.068   3.162   5.688 -0.3650 -1.0092  2.2160
 5667TIP3   OH238491   3.179   0.635   4.903 -0.2040  0.1671 -0.0771
 5667TIP3    H138492   3.231   0.675   4.972 -0.9576  1.5542 -0.2914
 5667TIP3    H238493   3.173   0.542   4.927 -0.1690  0.5739  1.5251
 5668TIP3   OH238494   3.056   3.711   4.934  1.0389  0.0212  0.3780
 5668TIP3    H138495   3.092   3.622   4.931 -0.9542 -0.7739 -0.3903
 5668TIP3    H238496   3.011   3.716   5.019 -0.7582 -0.4737 -0.5286
 5669TIP3   OH238497   2.430   4.967   4.939  0.3369 -0.0260 -0.2937
 5669TIP3    H138498   2.342   4.944   4.911  0.4344  0.0872 -0.6980
 5669TIP3    H238499   2.420   5.050   4.986  0.0940 -0.5026  0.5059
 5670TIP3   OH238500   3.937   6.774   2.834  0.2408 -0.1861 -0.0573
 5670TIP3    H138501   3.860   6.826   2.857 -0.3567 -0.4091 -1.4755
 5670TIP3    H238502   3.920   6.688   2.872  0.9171  0.4460  1.7072
 5671TIP3   OH238503   3.309   0.037   5.229 -0.1529 -0.2376  0.1372
 5671TIP3    H138504   3.269   0.028   5.316 -0.3736  3.3080  0.4947
 5671TIP3    H238505   3.234   0.049   5.170  0.1235  2.4780  0.2524
 5672TIP3   OH238506   1.956   6.193   3.522 -0.4747 -0.3756 -0.0729
 5672TIP3    H138507   1.944   6.116   3.466 -0.0852 -0.3467 -0.2026
 5672TIP3    H238508   1.914   6.264   3.474 -0.9958 -0.5432  0.1333
 5673TIP3   OH238509   6.134   6.293  14.811  0.1950 -0.3356  0.1038
 5673TIP3    H138510   6.051   6.245  14.801  0.9301 -1.5789 -0.0517
 5673TIP3    H238511   6.142   6.308  14.905  0.9654 -2.3266  0.3731
 5674TIP3   OH238512   4.196   6.527   4.796 -0.1345  0.4246  0.0756
 5674TIP3    H138513   4.170   6.449   4.845  0.3605  0.3783  0.2693
 5674TIP3    H238514   4.158   6.599   4.846  0.1317  0.3597  0.3802
 5675TIP3   OH238515   5.504   3.892   5.911 -0.4976 -0.6862 -0.2661
 5675TIP3    H138516   5.556   3.936   5.979 -0.1175  1.2625 -1.7733
 5675TIP3    H238517   5.511   3.799   5.933  3.6289 -0.5019 -0.3668
 5676TIP3   OH238518   6.713   6.343   2.756  0.1841  0.2960  0.3894
 5676TIP3    H138519   6.697   6.290   2.834  3.0364  0.6592  1.2577
 5676TIP3    H238520   6.796   6.387   2.773  0.4808  0.9784 -2.5525
 5677TIP3   OH238521   5.217   5.935  13.913  0.0408  0.3284 -0.4774
 5677TIP3    H138522   5.295   5.879  13.912 -0.8280 -0.9770  1.3567
 5677TIP3    H238523   5.171   5.913  13.831  1.6844  1.3008 -1.7019
 5678TIP3   OH238524   5.823   4.031   2.699  0.1215 -0.0400  0.3094
 5678TIP3    H138525   5.805   3.991   2.784  0.9530 -0.0973  0.4579
 5678TIP3    H238526   5.743   4.081   2.679  0.1434  0.4303  1.3823
 5679TIP3   OH238527   0.216   2.702  13.761  0.0162  0.4787  0.4033
 5679TIP3    H138528   0.172   2.716  13.845 -0.2868  2.5421 -0.0597
 5679TIP3    H238529   0.273   2.779  13.751 -1.3536  1.2269 -2.1412
 5680TIP3   OH238530   2.624   1.411   4.462 -0.0399  0.1995 -0.4304
 5680TIP3    H138531   2.709   1.454   4.476 -0.5834  2.0792 -2.6611
 5680TIP3    H238532   2.628   1.378   4.372 -0.6281 -2.2198  0.3905
 5681TIP3   OH238533   3.580   5.135  13.602 -0.2247  0.0148  0.0596
 5681TIP3    H138534   3.570   5.107  13.511 -0.3712  2.2747 -0.6450
 5681TIP3    H238535   3.579   5.230  13.598  0.7440  0.1468  2.3370
 5682TIP3   OH238536   3.052   1.883  16.440  0.4123 -0.2654 -0.2619
 5682TIP3    H138537   3.041   1.790  16.460  0.4368 -0.5124 -1.3718
 5682TIP3    H238538   3.062   1.886  16.345 -0.9633  1.0018 -0.3804
 5683TIP3   OH238539   4.689   0.042   0.694 -0.1402 -0.4358 -0.2909
 5683TIP3    H138540   4.716   0.006   0.610  0.8912 -2.2756  0.7870
 5683TIP3    H238541   4.770   0.073   0.734 -0.6356  0.5067  0.0019
 5684TIP3   OH238542   4.164   2.315   2.987  0.2802 -0.0852  0.2546
 5684TIP3    H138543   4.209   2.235   2.959  2.1012  0.6445  0.9707
 5684TIP3    H238544   4.145   2.301   3.080  1.2383  0.5742  0.5599
 5685TIP3   OH238545   1.895   2.126   1.512 -0.1243  0.3303 -0.3036
 5685TIP3    H138546   1.910   2.044   1.559  0.1446 -1.3398 -3.1944
 5685TIP3    H238547   1.801   2.140   1.519 -0.0164  0.4005  1.1780
 5686TIP3   OH238548   3.355   2.274   2.871 -0.1541 -0.2958  0.2063
 5686TIP3    H138549   3.370   2.194   2.922 -2.0360 -0.9518 -0.2286
 5686TIP3    H238550   3.264   2.267   2.842 -0.5458  2.3037  0.6721
 5687TIP3   OH238551   6.707   1.972  15.208 -0.1748 -0.6133  0.0653
 5687TIP3    H138552   6.614   1.969  15.230 -0.3106  0.7953 -0.2548
 5687TIP3    H238553   6.711   2.019  15.125  1.0694  2.3303  1.7162
 5688TIP3   OH238554   5.434   3.921   1.007  0.1572 -0.7683 -0.3859
 5688TIP3    H138555   5.487   3.999   0.988 -0.0550 -0.7290 -0.8158
 5688TIP3    H238556   5.453   3.862   0.934  1.1455 -1.5509  0.4874
 5689TIP3   OH238557   1.444   1.192   1.045 -0.5444 -0.5201 -0.3072
 5689TIP3    H138558   1.503   1.183   0.970 -2.4031 -0.7513 -1.8053
 5689TIP3    H238559   1.487   1.144   1.115  0.4179 -1.8134 -1.7395
 5690TIP3   OH238560   2.827   6.444  15.156 -0.1615 -0.2822  0.5979
 5690TIP3    H138561   2.870   6.530  15.158  0.0215 -0.3677  0.2504
 5690TIP3    H238562   2.894   6.383  15.185 -0.2975 -0.3069  0.8615
 5691TIP3   OH238563   1.805   2.150  16.796  0.4369  0.0991  0.2728
 5691TIP3    H138564   1.736   2.103  16.842  2.1362 -0.4636  2.3103
 5691TIP3    H238565   1.761   2.227  16.760 -1.5119 -0.9315  0.3880
 5692TIP3   OH238566   3.878   0.823   4.039  0.1689 -0.3736  0.7800
 5692TIP3    H138567   3.903   0.731   4.030  0.4309 -0.3800  1.4686
 5692TIP3    H238568   3.817   0.839   3.968  1.7506 -0.5095 -0.6316
 5693TIP3   OH238569   2.068   3.711   4.587 -0.6315 -0.1210  0.1756
 5693TIP3    H138570   2.053   3.625   4.548 -0.1499  0.1551 -0.6410
 5693TIP3    H238571   2.162   3.711   4.607 -0.5848  0.3004 -0.0476
 5694TIP3   OH238572   5.290   2.282   0.435  0.5130 -0.2859  0.0961
 5694TIP3    H138573   5.320   2.335   0.361  0.2748 -1.3367 -0.7508
 5694TIP3    H238574   5.218   2.332   0.473  1.3023  0.7551  0.2545
 5695TIP3   OH238575   1.854   0.655  13.158  0.0773 -0.1365  0.0988
 5695TIP3    H138576   1.873   0.692  13.072 -0.0492  0.8680  0.4906
 5695TIP3    H238577   1.760   0.669  13.170 -0.0476 -0.9511  0.0830
 5696TIP3   OH238578   2.050   4.739   5.469 -0.1009  0.2417 -0.3289
 5696TIP3    H138579   2.090   4.707   5.550 -0.6991 -1.4810 -0.6821
 5696TIP3    H238580   1.997   4.666   5.439 -2.8918  2.1669 -0.2902
 5697TIP3   OH238581   6.392   5.487   1.667  0.0806 -0.0516  0.0970
 5697TIP3    H138582   6.304   5.456   1.686 -0.6256  0.9687 -1.4518
 5697TIP3    H238583   6.432   5.417   1.616 -0.1664 -0.0996 -0.0319
 5698TIP3   OH238584   4.616   2.876  16.080 -0.2252  0.0851  0.5858
 5698TIP3    H138585   4.693   2.931  16.092  0.6443 -1.0586  0.2932
 5698TIP3    H238586   4.611   2.861  15.986 -0.0243 -0.9662  0.7451
 5699TIP3   OH238587   5.678   4.249  10.742  0.3125  0.4627 -0.4627
 5699TIP3    H138588   5.690   4.344  10.736  1.2114  0.4171  0.6040
 5699TIP3    H238589   5.620   4.228  10.668  0.9861  1.6846 -1.3598
 5700TIP3   OH238590   4.838   5.751   3.328 -0.6833  0.1029  0.5291
 5700TIP3    H138591   4.780   5.684   3.293  1.4291 -1.7159  0.4015
 5700TIP3    H238592   4.899   5.770   3.256 -1.5361  2.5336  0.3922
 5701TIP3   OH238593   4.537   0.773   2.288  0.7422  0.4306  0.4260
 5701TIP3    H138594   4.618   0.772   2.337  0.6206  0.0868  0.6183
 5701TIP3    H238595   4.546   0.702   2.224 -0.0244 -0.6143  1.4544
 5702TIP3   OH238596   6.444   5.180  12.968 -0.1377  0.0423 -0.4331
 5702TIP3    H138597   6.489   5.109  13.013  1.3316  0.9518 -0.4337
 5702TIP3    H238598   6.435   5.150  12.878  0.9031  0.0540 -0.5431
 5703TIP3   OH238599   4.891   4.269   4.419  0.7635 -0.4463  0.1754
 5703TIP3    H138600   4.873   4.296   4.509  2.0397  0.0485  0.2917
 5703TIP3    H238601   4.984   4.288   4.406  0.8373 -1.4676 -0.9107
 5704TIP3   OH238602   2.517   1.879  13.445  0.4135  0.5178  0.3311
 5704TIP3    H138603   2.427   1.910  13.444  0.2034 -0.0691 -1.3981
 5704TIP3    H238604   2.552   1.907  13.529 -1.2362  1.1733  0.8085
 5705TIP3   OH238605   3.635   5.284  16.940  0.1691  0.1890  0.2598
 5705TIP3    H138606   3.552   5.330  16.950 -0.2987 -0.8419  1.2184
 5705TIP3    H238607   3.635   5.253  16.849 -0.8796 -0.5249  0.4962
 5706TIP3   OH238608   1.103   1.330   4.689  0.0153 -0.6932 -0.3215
 5706TIP3    H138609   1.134   1.241   4.676  0.8973 -0.4856  0.3378
 5706TIP3    H238610   1.175   1.386   4.659  0.3298 -0.2148  1.3018
 5707TIP3   OH238611   2.187   4.482  12.309  0.0368  0.3816  0.2712
 5707TIP3    H138612   2.274   4.513  12.335  0.0788 -1.2138  2.1274
 5707TIP3    H238613   2.131   4.560  12.318  1.0443  1.1200  0.2451
 5708TIP3   OH238614   1.664   0.334   5.246  0.0513 -0.2510 -0.1821
 5708TIP3    H138615   1.706   0.262   5.294  1.5682  0.6699 -0.0953
 5708TIP3    H238616   1.711   0.337   5.163  1.1668  1.7042  0.4752
 5709TIP3   OH238617   6.029   4.574  12.005 -0.3252  0.3473 -0.1671
 5709TIP3    H138618   5.980   4.578  12.087 -2.3969 -1.8110 -1.2316
 5709TIP3    H238619   6.114   4.539  12.030 -0.9031 -0.1986  1.0805
 5710TIP3   OH238620   1.576   3.399   0.855  0.2346  0.2332  0.4966
 5710TIP3    H138621   1.528   3.322   0.884 -0.3295 -0.2098 -1.5658
 5710TIP3    H238622   1.659   3.364   0.822 -0.0234  0.5053 -0.4461
 5711TIP3   OH238623   3.305   2.125  16.673  0.1702 -0.3963 -0.2200
 5711TIP3    H138624   3.369   2.194  16.690 -0.3829  0.3653 -1.1863
 5711TIP3    H238625   3.297   2.122  16.578 -2.2613  0.4641 -0.0618
 5712TIP3   OH238626   5.221   4.546  12.117  0.2580 -0.2206  0.0232
 5712TIP3    H138627   5.177   4.626  12.088  2.2087  0.2773 -1.7336
 5712TIP3    H238628   5.315   4.567  12.112  0.7714 -2.1010  1.0952
 5713TIP3   OH238629   5.941   4.185  12.256 -0.0228 -0.1338  0.3234
 5713TIP3    H138630   5.904   4.108  12.299  0.5656  0.1930  1.4413
 5713TIP3    H238631   6.021   4.153  12.214 -0.9245 -0.5875 -1.0981
 5714TIP3   OH238632   0.177   2.892   1.206  0.2869  0.2767  0.1524
 5714TIP3    H138633   0.160   2.986   1.193 -3.4850 -0.2988  0.4452
 5714TIP3    H238634   0.177   2.855   1.118 -0.6405  0.2003  0.1781
 5715TIP3   OH238635   6.243   4.817  10.839  0.3372  0.9167  0.0146
 5715TIP3    H138636   6.224   4.883  10.906  0.5401  1.3869 -0.3863
 5715TIP3    H238637   6.176   4.832  10.771  0.5083  0.8431 -0.1717
 5716TIP3   OH238638   2.820   2.352  16.423  0.3109 -0.2637 -0.0429
 5716TIP3    H138639   2.902   2.338  16.470  0.7543  2.0723 -0.0886
 5716TIP3    H238640   2.758   2.381  16.491  0.0514 -0.0722 -0.3643
 5717TIP3   OH238641   1.614   3.411   5.439  0.1678 -0.6748  0.4172
 5717TIP3    H138642   1.580   3.475   5.501 -1.0130 -1.4893  0.6272
 5717TIP3    H238643   1.642   3.463   5.364 -1.9576  0.0084  0.0535
 5718TIP3   OH238644   6.267   5.323   5.633  0.7547 -0.4256 -0.6847
 5718TIP3    H138645   6.352   5.286   5.656  0.8788  0.2323 -0.1073
 5718TIP3    H238646   6.282   5.417   5.627  0.0731 -0.3124 -0.6213
 5719TIP3   OH238647   4.783   3.285   5.935  0.6116 -0.1176  0.0185
 5719TIP3    H138648   4.745   3.228   5.868  1.7971  0.4070 -1.1346
 5719TIP3    H238649   4.747   3.253   6.018  0.0157 -1.5057 -0.7675
 5720TIP3   OH238650   3.410   0.495  13.434  0.3587 -0.0629  0.1964
 5720TIP3    H138651   3.439   0.579  13.399 -1.9410  0.8243  0.3182
 5720TIP3    H238652   3.490   0.444  13.444  1.6787  1.7525 -0.8265
 5721TIP3   OH238653   0.933   6.573   6.565  0.0851  0.1855  0.7374
 5721TIP3    H138654   0.964   6.597   6.477  0.0184  1.4001  1.0412
 5721TIP3    H238655   0.860   6.513   6.550  0.6356 -0.3091 -0.0194
 5722TIP3   OH238656   6.379   1.162  17.034  0.3797  1.0385 -0.0311
 5722TIP3    H138657   6.424   1.192  17.113  0.8965 -0.2331  0.1695
 5722TIP3    H238658   6.395   1.231  16.970 -0.0525  2.0856  0.9788
 5723TIP3   OH238659   5.561   4.755   5.692 -0.2598  0.4460 -0.1326
 5723TIP3    H138660   5.467   4.741   5.681  0.1174 -0.5990 -2.1815
 5723TIP3    H238661   5.573   4.755   5.787 -2.4578  1.6420  0.1999
 5724TIP3   OH238662   5.375   0.321  11.797  0.0767  0.3456  0.1774
 5724TIP3    H138663   5.352   0.299  11.707  0.4536  2.2305 -0.4147
 5724TIP3    H238664   5.304   0.285  11.850  0.0360 -1.0945 -0.8304
 5725TIP3   OH238665   2.459   3.355  12.127 -0.1234 -0.2687  0.2223
 5725TIP3    H138666   2.443   3.380  12.036  0.8359 -1.9591 -0.4474
 5725TIP3    H238667   2.410   3.418  12.179 -0.4492  0.8919 -1.4658
 5726TIP3   OH238668   4.964   1.949  14.967  0.1434  0.1220 -0.0533
 5726TIP3    H138669   5.017   1.939  15.047 -0.1322  0.4822  0.1760
 5726TIP3    H238670   5.028   1.961  14.897  0.4075 -0.8654  0.0114
 5727TIP3   OH238671   1.756   4.934   4.277  0.0344  0.4317  0.1320
 5727TIP3    H138672   1.695   4.886   4.333 -0.4422 -0.2100 -0.9220
 5727TIP3    H238673   1.814   4.867   4.241 -1.1674  0.5082 -2.0196
 5728TIP3   OH238674   1.527   4.485  11.293  0.5691  0.1221  0.4249
 5728TIP3    H138675   1.499   4.403  11.334 -0.9404  0.6028  0.3962
 5728TIP3    H238676   1.551   4.541  11.367 -1.2377  0.6609  0.6126
 5729TIP3   OH238677   3.750   3.642   4.699  0.1020 -0.2466 -0.2911
 5729TIP3    H138678   3.795   3.681   4.774  0.6254 -0.0383 -0.7144
 5729TIP3    H238679   3.695   3.713   4.665 -1.4954 -0.8522  0.9722
 5730TIP3   OH238680   5.268   4.617   1.260 -0.1805 -0.1814  0.0573
 5730TIP3    H138681   5.292   4.586   1.347 -0.9985 -0.8294  0.0559
 5730TIP3    H238682   5.178   4.649   1.269  0.4723  1.7812 -0.0545
 5731TIP3   OH238683   5.942   0.161   1.329  0.1409  0.5670  0.4747
 5731TIP3    H138684   5.912   0.144   1.240 -0.3032  1.2780  0.4856
 5731TIP3    H238685   6.011   0.226   1.320 -0.4221  1.2083  0.7060
 5732TIP3   OH238686   6.549   6.463   0.513  0.1808  0.3083  0.5469
 5732TIP3    H138687   6.605   6.386   0.517  1.9056  1.3863 -1.7653
 5732TIP3    H238688   6.600   6.532   0.555 -0.7447  0.5634  1.2724
 5733TIP3   OH238689   6.186   0.360   1.558  0.1162 -0.1839 -0.2873
 5733TIP3    H138690   6.239   0.284   1.581  0.1390  0.5762  2.4239
 5733TIP3    H238691   6.096   0.334   1.579 -0.3573 -0.6927 -2.7844
 5734TIP3   OH238692   1.963   1.257   0.008  0.3792 -0.3310 -0.3934
 5734TIP3    H138693   1.880   1.247  -0.037  0.9289 -1.7664 -1.1463
 5734TIP3    H238694   2.012   1.319  -0.045  0.6220 -1.2021 -1.1966
 5735TIP3   OH238695   0.955   3.628  16.962  0.2519  0.0525 -0.6730
 5735TIP3    H138696   0.918   3.679  16.890  1.0331  1.3006 -0.1989
 5735TIP3    H238697   1.003   3.692  17.014  0.3532 -0.9873  0.5198
 5736TIP3   OH238698   4.461   2.650   4.475 -0.2107  0.1475 -0.2670
 5736TIP3    H138699   4.541   2.626   4.523 -1.5359  0.0111  1.9358
 5736TIP3    H238700   4.413   2.568   4.466  0.7486 -0.1272 -3.2932
 5737TIP3   OH238701   3.025   4.553   0.351  0.4259  0.1003  0.3620
 5737TIP3    H138702   3.031   4.493   0.426  1.1212  1.7050  1.6236
 5737TIP3    H238703   2.971   4.625   0.382  1.1167  1.0098 -0.5277
 5738TIP3   OH238704   0.104   0.715  10.246 -0.9241  0.0049  0.3721
 5738TIP3    H138705   0.147   0.635  10.278 -1.5337 -0.0868  0.9604
 5738TIP3    H238706   0.170   0.756  10.191 -0.1862 -0.3114  1.0027
 5739TIP3   OH238707   0.512   1.306  15.505  1.1476 -0.0049  0.2854
 5739TIP3    H138708   0.449   1.331  15.573  0.5867  1.1019 -0.6115
 5739TIP3    H238709   0.531   1.214  15.522 -1.2478 -0.5526  0.1793
 5740TIP3   OH238710   6.283   2.702   3.149  0.2070 -0.1243  0.4554
 5740TIP3    H138711   6.315   2.612   3.152  0.0960 -0.1491  0.8443
 5740TIP3    H238712   6.188   2.693   3.140 -0.0649 -0.0531  2.9149
 5741TIP3   OH238713   6.452   5.475  10.694 -0.3888  0.1390  0.2414
 5741TIP3    H138714   6.366   5.441  10.666  0.2725  0.3468 -2.2016
 5741TIP3    H238715   6.495   5.400  10.735 -0.9257 -0.5845 -0.4894
 5742TIP3   OH238716   6.680   1.625  16.358  0.6360  0.3528 -0.2508
 5742TIP3    H138717   6.703   1.715  16.380  2.2153 -0.0661 -0.0901
 5742TIP3    H238718   6.697   1.576  16.439 -0.5203 -0.0301 -0.2392
 5743TIP3   OH238719   1.058   0.806   0.582  0.2889  0.3113 -0.2373
 5743TIP3    H138720   0.988   0.749   0.614  0.8292  0.4780  1.2829
 5743TIP3    H238721   1.138   0.754   0.590  0.1986 -0.3017 -3.1049
 5744TIP3   OH238722   4.082   1.262   4.200  0.1242 -0.6220  0.4116
 5744TIP3    H138723   3.989   1.259   4.225 -0.1705  0.0890 -0.5774
 5744TIP3    H238724   4.081   1.278   4.106  1.2545 -1.5135  0.2430
 5745TIP3   OH238725   1.137   3.164  14.849  0.7889  0.3851 -0.7285
 5745TIP3    H138726   1.054   3.195  14.887  1.5918 -0.4398  1.8012
 5745TIP3    H238727   1.111   3.121  14.768 -0.9777  2.3632 -1.2610
 5746TIP3   OH238728   0.154   6.279   1.473  0.3824 -0.1287 -0.4742
 5746TIP3    H138729   0.216   6.230   1.419 -0.2931 -0.4927 -0.9165
 5746TIP3    H238730   0.099   6.212   1.514  0.7446  0.1551  0.4914
 5747TIP3   OH238731   3.223   6.664  16.861  0.0879 -0.1183  0.0790
 5747TIP3    H138732   3.203   6.682  16.953 -1.2648 -1.1466  0.0051
 5747TIP3    H238733   3.240   6.570  16.858 -0.4955 -0.1957 -0.8342
 5748TIP3   OH238734   4.048   4.161  11.405 -0.2131 -0.2660 -0.3152
 5748TIP3    H138735   4.087   4.188  11.322 -1.7150 -1.6865 -1.5171
 5748TIP3    H238736   4.121   4.123  11.455  0.9333  1.6383 -0.4934
 5749TIP3   OH238737   3.465   4.072   0.995 -0.0724 -0.1820 -0.6085
 5749TIP3    H138738   3.517   4.152   0.989  0.8510 -0.5148  2.1700
 5749TIP3    H238739   3.520   4.004   0.956  0.3187  0.0271 -0.4197
 5750TIP3   OH238740   5.282   2.021  13.768  0.0210  0.0425 -0.0743
 5750TIP3    H138741   5.288   1.931  13.736 -1.3124 -0.7918  1.9423
 5750TIP3    H238742   5.189   2.041  13.767  0.2858  1.3317 -0.3005
 5751TIP3   OH238743   5.279   2.209  15.416  0.0684  0.0971 -0.4395
 5751TIP3    H138744   5.193   2.168  15.409 -0.1293  0.5144 -0.4998
 5751TIP3    H238745   5.264   2.287  15.471  0.6417 -0.4975  0.5883
 5752TIP3   OH238746   5.948   6.470   3.623  0.3151 -0.1013  0.0111
 5752TIP3    H138747   5.860   6.481   3.589 -0.1474  1.4633  1.6605
 5752TIP3    H238748   5.981   6.392   3.579 -1.1536  0.4453 -2.1283
 5753TIP3   OH238749   1.607   2.332   0.477  0.2085  0.2669 -0.0585
 5753TIP3    H138750   1.660   2.391   0.531  2.7029 -2.0580  0.1363
 5753TIP3    H238751   1.656   2.325   0.395  0.2789 -1.9889  0.1523
 5754TIP3   OH238752   1.097   0.883  12.448 -0.1460  0.3108 -0.2587
 5754TIP3    H138753   1.092   0.800  12.401  1.7545  0.3804 -0.6422
 5754TIP3    H238754   1.180   0.921  12.420  0.2141  1.1491  1.8699
 5755TIP3   OH238755   1.968   2.852   1.727  0.0000 -0.6171 -0.4240
 5755TIP3    H138756   1.955   2.843   1.821 -0.4154 -0.2018 -0.4415
 5755TIP3    H238757   1.888   2.819   1.687 -1.4684  2.7612 -0.4962
 5756TIP3   OH238758   3.348   1.194   0.415 -0.2474  0.0061  0.3696
 5756TIP3    H138759   3.270   1.143   0.435  0.2513 -1.2638 -0.8236
 5756TIP3    H238760   3.417   1.129   0.400  0.7048  1.0623  0.0353
 5757TIP3   OH238761   2.322   4.317   5.813  0.4977 -0.5666  0.1736
 5757TIP3    H138762   2.363   4.321   5.899  1.3411 -1.1973 -0.1851
 5757TIP3    H238763   2.396   4.323   5.751 -0.3155  2.8824 -0.5614
 5758TIP3   OH238764   6.758   4.117  12.288  0.3345 -0.0278  0.3122
 5758TIP3    H138765   6.698   4.057  12.333  2.5626 -1.5948  1.2854
 5758TIP3    H238766   6.755   4.089  12.197 -2.4040  1.6448 -0.1826
 5759TIP3   OH238767   2.161   6.662  17.139  0.0457 -0.7813  0.0502
 5759TIP3    H138768   2.240   6.675  17.087 -0.0918 -1.3673 -0.3107
 5759TIP3    H238769   2.117   6.588  17.097  0.1696 -1.5595  1.2515
 5760TIP3   OH238770   5.232   6.424  15.367 -0.1826 -0.1167 -0.1814
 5760TIP3    H138771   5.140   6.399  15.368 -0.3082  0.3496  0.6576
 5760TIP3    H238772   5.233   6.517  15.345  0.2672 -0.7283 -2.9077
 5761TIP3   OH238773   2.194   0.533  14.819 -0.7149  0.7498 -0.4299
 5761TIP3    H138774   2.251   0.472  14.867 -1.8673 -0.7008 -0.8567
 5761TIP3    H238775   2.109   0.490  14.820 -1.2491  1.7672 -1.8688
 5762TIP3   OH238776   0.149   5.577  11.973  0.0937  0.3881 -0.4928
 5762TIP3    H138777   0.128   5.486  11.995 -0.9682  0.3332 -1.6964
 5762TIP3    H238778   0.235   5.572  11.931  0.9587  0.1894  1.2496
 5763TIP3   OH238779   0.424   4.322   2.884 -0.2460  0.3039  0.5096
 5763TIP3    H138780   0.456   4.328   2.973 -1.6181 -0.0006  1.0402
 5763TIP3    H238781   0.329   4.322   2.893 -0.3938  0.1776 -0.9425
 5764TIP3   OH238782   1.292   4.991  13.054  0.0761  0.0485  0.1951
 5764TIP3    H138783   1.387   4.985  13.044  0.0269  1.5177 -1.4222
 5764TIP3    H238784   1.259   4.906  13.023  0.8610 -0.4958  0.8399
 5765TIP3   OH238785   0.813   4.453  16.803 -0.1250 -0.7412  0.1021
 5765TIP3    H138786   0.773   4.487  16.722 -0.0774 -0.6778  0.1048
 5765TIP3    H238787   0.804   4.525  16.865  0.5277 -0.5161 -0.0668
 5766TIP3   OH238788   3.709   1.668   2.843  0.2807 -0.1504 -0.3034
 5766TIP3    H138789   3.779   1.603   2.837  1.2456  0.8445  0.0189
 5766TIP3    H238790   3.678   1.678   2.753  0.7094 -0.4338 -0.4871
 5767TIP3   OH238791   6.265   4.865   0.696  0.0863 -0.1789 -0.3967
 5767TIP3    H138792   6.277   4.899   0.785 -1.7953 -0.0899 -0.1507
 5767TIP3    H238793   6.340   4.808   0.682  0.6240  0.1341  1.0896
 5768TIP3   OH238794   5.644   2.407   2.566  0.4307 -0.3771  0.6532
 5768TIP3    H138795   5.689   2.489   2.587 -3.1546  1.5855  1.1591
 5768TIP3    H238796   5.665   2.349   2.639  2.9025  0.1000  0.3616
 5769TIP3   OH238797   0.713   1.077   0.864  0.0090 -0.3353  0.0014
 5769TIP3    H138798   0.800   1.116   0.874  0.0076 -0.1480 -0.6787
 5769TIP3    H238799   0.729   0.984   0.850  0.0701 -0.3901  0.4232
 5770TIP3   OH238800   2.611   0.370  13.351 -0.3194  0.3747 -0.1265
 5770TIP3    H138801   2.672   0.340  13.284 -1.0156 -0.6877 -0.3182
 5770TIP3    H238802   2.547   0.423  13.303 -1.9143 -1.9359 -0.7052
 5771TIP3   OH238803   6.524   0.764   4.410 -0.3059 -0.3471  0.0002
 5771TIP3    H138804   6.464   0.753   4.336 -1.6962  1.0375  0.8720
 5771TIP3    H238805   6.561   0.852   4.397  0.4261 -0.6172  0.2529
 5772TIP3   OH238806   4.050   3.832  17.113 -0.3872  0.4277  0.0920
 5772TIP3    H138807   4.133   3.808  17.073  0.3318  0.1526  1.6989
 5772TIP3    H238808   4.036   3.924  17.089 -0.9774 -0.2997 -2.4361
 5773TIP3   OH238809   1.855   5.752   3.507 -0.0461 -0.5274 -0.8124
 5773TIP3    H138810   1.783   5.741   3.569  0.9287 -0.6378  0.3097
 5773TIP3    H238811   1.931   5.774   3.561  0.7524 -0.3192 -1.9895
 5774TIP3   OH238812   6.740   0.443  12.046 -0.0628 -0.0327 -0.1686
 5774TIP3    H138813   6.779   0.375  11.992 -0.2870 -1.2339  1.1548
 5774TIP3    H238814   6.646   0.435  12.029 -0.1907 -0.8712  0.9201
 5775TIP3   OH238815   0.745   6.361   3.620  0.6127 -0.0475  0.8247
 5775TIP3    H138816   0.676   6.408   3.575  1.2691 -0.3060 -0.4630
 5775TIP3    H238817   0.756   6.280   3.570  2.5313  0.4472  0.4168
 5776TIP3   OH238818   6.364   6.606  12.923 -0.0397  0.2475 -0.2323
 5776TIP3    H138819   6.351   6.687  12.874 -2.0889  0.5164  0.7176
 5776TIP3    H238820   6.445   6.621  12.973 -0.4931  1.7879  0.0703
 5777TIP3   OH238821   0.712   0.490   1.327 -0.1077 -0.3136 -0.0250
 5777TIP3    H138822   0.684   0.481   1.235  0.3000  0.9436 -0.2796
 5777TIP3    H238823   0.636   0.529   1.371  0.2895  0.6593 -0.1837
 5778TIP3   OH238824   0.360   0.698  13.712 -0.3191 -0.3451  0.0281
 5778TIP3    H138825   0.443   0.708  13.759 -1.3875 -0.1001  1.9093
 5778TIP3    H238826   0.348   0.781  13.665  0.2896 -0.2285  0.0786
 5779TIP3   OH238827   5.788   6.312  16.173 -0.2749  0.0830 -0.1311
 5779TIP3    H138828   5.770   6.405  16.160  1.1720  0.2148 -1.3354
 5779TIP3    H238829   5.721   6.267  16.122 -0.5479  0.4723 -0.1205
 5780TIP3   OH238830   1.101   5.357   2.577 -0.4257  0.3798 -0.1508
 5780TIP3    H138831   1.143   5.427   2.627  0.0652  0.0204 -0.0627
 5780TIP3    H238832   1.085   5.288   2.641  0.1471 -0.0553 -0.4773
 5781TIP3   OH238833   3.059   0.146  16.129  0.2750 -0.1263 -0.1620
 5781TIP3    H138834   2.985   0.174  16.182  0.4331  0.5856 -0.3094
 5781TIP3    H238835   3.053   0.197  16.049  1.5082  0.7102  0.2533
 5782TIP3   OH238836   2.823   6.741  12.204 -0.4997 -0.4817 -0.1975
 5782TIP3    H138837   2.880   6.792  12.262  1.1417 -1.2673 -1.0752
 5782TIP3    H238838   2.860   6.653  12.206 -2.6118 -1.3763  0.3759
 5783TIP3   OH238839   1.417   6.103   3.062 -0.2500 -0.4180  0.6026
 5783TIP3    H138840   1.324   6.125   3.059 -0.1849 -0.2751 -1.0791
 5783TIP3    H238841   1.423   6.016   3.024  0.5770  0.6550 -1.8322
 5784TIP3   OH238842   4.095   5.355  15.936 -0.2070 -0.0451 -0.2282
 5784TIP3    H138843   4.166   5.348  15.872 -0.2245 -1.5919 -0.1126
 5784TIP3    H238844   4.136   5.396  16.013 -0.2023  1.8595 -1.2248
 5785TIP3   OH238845   2.131   0.508  15.360 -0.6660 -0.6040 -0.1703
 5785TIP3    H138846   2.083   0.565  15.421  0.7061 -0.7380  1.0402
 5785TIP3    H238847   2.169   0.569  15.296 -0.5336 -0.2957  0.1988
 5786TIP3   OH238848   4.175   4.020   0.875  0.0500  0.5471 -0.2529
 5786TIP3    H138849   4.129   4.082   0.818 -0.7548 -0.4935 -0.7430
 5786TIP3    H238850   4.193   3.945   0.819  0.7641  0.2125  0.4248
 5787TIP3   OH238851   2.373   3.869   6.407 -1.2946 -0.1468  0.2802
 5787TIP3    H138852   2.468   3.860   6.410 -1.1159  1.3828 -0.4836
 5787TIP3    H238853   2.348   3.827   6.324 -1.1412  0.6642 -0.1769
 5788TIP3   OH238854   4.055   2.788   0.987 -0.3500 -0.1753 -0.3776
 5788TIP3    H138855   4.069   2.880   1.007  1.3000 -0.6018  0.5472
 5788TIP3    H238856   3.991   2.758   1.052  1.3392 -0.3705  1.2578
 5789TIP3   OH238857   4.393   5.521   4.507  0.0295  1.0287  0.4262
 5789TIP3    H138858   4.469   5.548   4.558  0.0015  0.8929  0.5397
 5789TIP3    H238859   4.319   5.560   4.552  0.2356  3.3280 -1.1390
 5790TIP3   OH238860   0.495   1.620   4.664 -0.0054 -0.1261 -0.3137
 5790TIP3    H138861   0.528   1.591   4.749  3.0502  1.5857 -0.8345
 5790TIP3    H238862   0.546   1.569   4.601 -1.5853 -0.7021 -1.1537
 5791TIP3   OH238863   3.648   6.504  15.849 -0.2727  0.1524  0.3500
 5791TIP3    H138864   3.741   6.510  15.870 -0.2938 -0.3122  0.5922
 5791TIP3    H238865   3.645   6.489  15.755 -0.0966  0.0323  0.3638
 5792TIP3   OH238866   5.247   1.779  13.598  0.2318  0.1295  0.0307
 5792TIP3    H138867   5.221   1.688  13.580 -0.7226  0.3650  0.1583
 5792TIP3    H238868   5.253   1.819  13.511  0.0347  0.1036  0.0045
 5793TIP3   OH238869   2.732   5.231  13.158 -0.1621  0.2275 -0.1115
 5793TIP3    H138870   2.807   5.230  13.099 -1.7347 -2.7591 -2.2013
 5793TIP3    H238871   2.767   5.202  13.242  1.1031 -0.8739 -0.9952
 5794TIP3   OH238872   5.344   5.257   5.568 -0.0267 -0.2825 -0.4646
 5794TIP3    H138873   5.319   5.181   5.515 -0.9968 -0.8556  0.7911
 5794TIP3    H238874   5.417   5.226   5.621 -0.0906 -0.1830 -0.3204
 5795TIP3   OH238875   1.402   6.008  13.251  0.1749  0.0852 -0.1911
 5795TIP3    H138876   1.347   6.086  13.246 -0.7301 -0.5233  0.0782
 5795TIP3    H238877   1.344   5.940  13.287  0.6893 -0.9280 -1.2294
 5796TIP3   OH238878   0.885   3.629  12.158 -0.3563 -0.2995 -0.4930
 5796TIP3    H138879   0.827   3.563  12.120  0.7541 -1.6397  0.0815
 5796TIP3    H238880   0.912   3.591  12.242 -0.4301  1.3029  0.2779
 5797TIP3   OH238881   1.831   0.230  15.797 -0.3160 -0.6058 -0.0855
 5797TIP3    H138882   1.915   0.250  15.839 -0.2435 -0.2331 -0.4067
 5797TIP3    H238883   1.816   0.302  15.737 -1.1201 -0.4084  0.3442
 5798TIP3   OH238884   0.672   2.591  15.392 -0.1060 -0.3110 -0.2838
 5798TIP3    H138885   0.621   2.538  15.453  0.3803 -0.5727 -0.0980
 5798TIP3    H238886   0.676   2.678  15.434  0.9067 -0.6988  0.4714
 5799TIP3   OH238887   1.387   5.059   5.992 -0.3002 -0.5602  0.3577
 5799TIP3    H138888   1.339   5.020   5.920  0.3341  0.5321 -0.6804
 5799TIP3    H238889   1.338   5.139   6.013 -0.0539 -0.4743  0.6106
 5800TIP3   OH238890   3.472   3.025  16.123  0.5529 -0.3835  0.0004
 5800TIP3    H138891   3.393   3.078  16.132 -0.9795 -2.5171 -0.4634
 5800TIP3    H238892   3.480   2.978  16.206  1.9985  0.6641  0.4806
 5801TIP3   OH238893   6.330   6.035   2.100  0.6339 -0.7040 -0.2166
 5801TIP3    H138894   6.400   5.988   2.054  0.6371  0.4758 -1.4682
 5801TIP3    H238895   6.363   6.125   2.106 -0.2096 -0.4343  0.3817
 5802TIP3   OH238896   5.333   1.099  14.323  0.3252  0.0153  0.0866
 5802TIP3    H138897   5.239   1.101  14.339  0.4323  0.9868  0.6562
 5802TIP3    H238898   5.363   1.018  14.364 -0.3974 -0.7960 -0.9489
 5803TIP3   OH238899   0.804   4.708  14.265  0.4186  0.2327  0.0537
 5803TIP3    H138900   0.834   4.786  14.218 -0.2512  0.8584  0.6443
 5803TIP3    H238901   0.717   4.690  14.230  1.1429 -1.1026 -1.0889
 5804TIP3   OH238902   1.445   1.033  10.993 -0.5224 -0.5886 -0.7075
 5804TIP3    H138903   1.374   1.096  10.981  0.8453  1.3738  1.1286
 5804TIP3    H238904   1.411   0.971  11.058 -0.5157  0.4114  0.2546
 5805TIP3   OH238905   3.340   2.879   0.275  0.3862 -0.4157  0.3119
 5805TIP3    H138906   3.324   2.888   0.181 -1.4083 -1.3497  0.5008
 5805TIP3    H238907   3.353   2.969   0.306 -0.5050  0.0262 -0.5707
 5806TIP3   OH238908   0.869   1.387  16.955 -0.1063 -0.2511 -0.2763
 5806TIP3    H138909   0.843   1.479  16.945  1.4547  0.0785 -1.5601
 5806TIP3    H238910   0.859   1.369  17.049  0.9419  1.6740  0.2330
 5807TIP3   OH238911   6.538   5.210  11.726 -0.1495 -0.3957  0.6067
 5807TIP3    H138912   6.513   5.138  11.668 -0.3034 -1.9530  2.5473
 5807TIP3    H238913   6.605   5.172  11.782 -1.0707  0.6280  2.4323
 5808TIP3   OH238914   1.264   0.097  13.442  0.1331 -0.4140  0.6843
 5808TIP3    H138915   1.267   0.157  13.367 -1.1541 -1.0884  0.0913
 5808TIP3    H238916   1.199   0.135  13.501  0.1144 -0.6382  0.8103
 5809TIP3   OH238917   3.942   3.583  14.646 -0.5370  0.0293  0.2738
 5809TIP3    H138918   3.850   3.607  14.641 -1.2979 -2.5433  1.1356
 5809TIP3    H238919   3.946   3.513  14.711  2.1487  0.6515  0.8505
 5810TIP3   OH238920   4.107   0.301  12.758  0.2398  0.5914  0.3563
 5810TIP3    H138921   4.154   0.219  12.739  1.0771  1.6369 -2.3634
 5810TIP3    H238922   4.031   0.298  12.700 -0.5455  1.0545  1.3604
 5811TIP3   OH238923   2.357   4.185  16.901  0.3733 -0.3370 -0.1527
 5811TIP3    H138924   2.375   4.169  16.994  1.1371 -2.2910 -0.6190
 5811TIP3    H238925   2.439   4.166  16.856  0.8397  3.3149 -0.9888
 5812TIP3   OH238926   4.395   3.619  15.463  0.0989 -0.0026 -0.9187
 5812TIP3    H138927   4.326   3.582  15.407  0.6437 -1.7611 -0.4766
 5812TIP3    H238928   4.456   3.546  15.477 -0.3944  0.1475  2.5609
 5813TIP3   OH238929   4.755   0.441  11.778 -0.4801 -0.4629 -0.2201
 5813TIP3    H138930   4.663   0.458  11.756 -0.1958  0.9136 -0.3548
 5813TIP3    H238931   4.764   0.473  11.868 -0.0152 -0.2092 -0.3590
 5814TIP3   OH238932   5.599   0.966  11.067  0.1835 -0.1913  0.2925
 5814TIP3    H138933   5.664   1.036  11.059 -0.4332  0.6731  2.4235
 5814TIP3    H238934   5.524   0.997  11.016  0.5547 -0.0834 -0.1823
 5815TIP3   OH238935   3.457   5.770  15.271 -0.3832  0.0801  0.0002
 5815TIP3    H138936   3.466   5.801  15.181  0.1835 -1.0817 -0.3563
 5815TIP3    H238937   3.526   5.816  15.318 -0.6350  0.6402 -0.1790
 5816TIP3   OH238938   2.382   4.517   4.428 -0.6387  0.0612 -0.4282
 5816TIP3    H138939   2.348   4.562   4.506  0.9494  0.4187  0.0737
 5816TIP3    H238940   2.335   4.558   4.355 -0.8587  0.9618  0.2008
 5817TIP3   OH238941   5.499   1.745   5.229 -0.2971  0.0621  0.1161
 5817TIP3    H138942   5.466   1.828   5.195 -1.8927 -1.3456 -1.8963
 5817TIP3    H238943   5.506   1.758   5.323  0.1775  2.7053 -0.2625
 5818TIP3   OH238944   1.164   1.318   2.772  0.3471 -0.6179  0.2117
 5818TIP3    H138945   1.150   1.226   2.748  1.7908 -0.5348 -1.0520
 5818TIP3    H238946   1.193   1.315   2.863 -1.7408 -1.2263  0.8911
 5819TIP3   OH238947   4.600   3.831   3.361 -0.6316 -0.2663  0.6301
 5819TIP3    H138948   4.602   3.921   3.394 -0.7029 -0.1899  0.4324
 5819TIP3    H238949   4.551   3.782   3.426 -0.8347 -0.1042  0.5994
 5820TIP3   OH238950   2.769   3.152  11.169  0.1346 -0.0762  0.2514
 5820TIP3    H138951   2.799   3.128  11.257 -0.1995 -0.9939  0.1277
 5820TIP3    H238952   2.760   3.247  11.171  1.8262  0.0786  0.6612
 5821TIP3   OH238953   0.144   4.780  16.986  0.0046  0.8365  0.6980
 5821TIP3    H138954   0.109   4.798  16.899  0.0914  1.0044  0.6995
 5821TIP3    H238955   0.079   4.817  17.046 -0.3874  0.1396  0.7171
 5822TIP3   OH238956   2.027   6.296  13.496  0.4378 -0.2604  0.2021
 5822TIP3    H138957   2.107   6.288  13.547  0.2852  3.1430  1.1476
 5822TIP3    H238958   1.961   6.249  13.547  0.8686  0.8373  1.8187
 5823TIP3   OH238959   2.670   0.342   3.627  0.1390  0.2582  0.1625
 5823TIP3    H138960   2.663   0.320   3.720 -0.3292 -1.9510 -0.3749
 5823TIP3    H238961   2.764   0.347   3.610  0.2497 -0.9488  0.3955
 5824TIP3   OH238962   4.864   1.278   0.640 -0.8751  0.2640 -0.0709
 5824TIP3    H138963   4.836   1.279   0.548  1.4008 -0.3494 -0.8102
 5824TIP3    H238964   4.958   1.260   0.636 -0.4716  1.6301  2.3239
 5825TIP3   OH238965   2.937   6.059   4.170 -0.1574  0.1591 -0.6240
 5825TIP3    H138966   2.882   6.025   4.241 -0.1689  0.6412 -0.4047
 5825TIP3    H238967   2.913   6.151   4.163  1.9355  0.8494  0.7121
 5826TIP3   OH238968   5.277   3.071  11.587 -0.3182  0.3854  0.0441
 5826TIP3    H138969   5.262   3.092  11.680 -1.0062  0.1715 -0.0128
 5826TIP3    H238970   5.350   3.009  11.588 -0.1361  0.6008  0.4212
 5827TIP3   OH238971   5.692   4.944  15.544 -0.0188 -0.3396 -0.0759
 5827TIP3    H138972   5.783   4.965  15.521 -0.3823  0.7176 -0.5305
 5827TIP3    H238973   5.699   4.861  15.591  1.2039 -0.1862  0.0322
 5828TIP3   OH238974   4.475   0.558  12.518 -0.2940  0.4053 -0.5073
 5828TIP3    H138975   4.460   0.488  12.455  0.5694 -0.2968  0.0607
 5828TIP3    H238976   4.424   0.534  12.595  0.4595  0.0947 -0.0965
 5829TIP3   OH238977   0.159   6.410  12.360  0.2802  0.4407  0.4011
 5829TIP3    H138978   0.171   6.492  12.311 -1.6375  0.3899 -0.1687
 5829TIP3    H238979   0.205   6.344  12.307  0.0721  0.7734 -0.1994
 5830TIP3   OH238980   4.280   5.129   2.054  0.2749 -0.3970  0.1706
 5830TIP3    H138981   4.319   5.121   1.967 -0.1625  0.0086 -0.0650
 5830TIP3    H238982   4.187   5.143   2.038  0.4569  1.4812  0.6362
 5831TIP3   OH238983   3.855   1.842  16.245 -0.0755 -0.7893 -0.1387
 5831TIP3    H138984   3.890   1.757  16.270 -0.5356 -0.7020  0.8293
 5831TIP3    H238985   3.915   1.874  16.178  1.3688 -0.8891  1.0917
 5832TIP3   OH238986   0.139   0.564  16.506  0.4334  0.1779  0.0862
 5832TIP3    H138987   0.130   0.579  16.412  0.9322  1.6600  0.2757
 5832TIP3    H238988   0.233   0.555  16.521  0.3495 -0.1609  0.4396
 5833TIP3   OH238989   3.119   6.818  12.055  0.6597  0.0995  0.2168
 5833TIP3    H138990   3.158   6.730  12.055 -0.0068 -0.2330 -2.2750
 5833TIP3    H238991   3.128   6.848  11.964 -2.9074  0.8872  0.0701
 5834TIP3   OH238992   5.970   2.784  11.140  0.1534  0.1081 -0.0325
 5834TIP3    H138993   5.984   2.691  11.120  0.7453  1.0182 -4.2413
 5834TIP3    H238994   6.058   2.822  11.138 -0.3522  1.2310 -0.8948
 5835TIP3   OH238995   4.710   6.764  14.373  0.1570  0.3293  0.0743
 5835TIP3    H138996   4.726   6.768  14.467  0.6866  0.1024 -0.0040
 5835TIP3    H238997   4.790   6.727  14.337  0.3343  1.3145 -0.5686
 5836TIP3   OH238998   1.889   0.429  13.759 -0.3456  0.0314  0.3418
 5836TIP3    H138999   1.804   0.473  13.771  0.0252  0.5150  1.2364
 5836TIP3    H239000   1.932   0.479  13.690 -0.9011 -0.3754 -0.2961
 5837TIP3   OH239001   5.431   6.050  14.653  0.5118 -0.1522  0.2772
 5837TIP3    H139002   5.371   5.978  14.634 -0.2333  0.7268 -0.7197
 5837TIP3    H239003   5.466   6.075  14.568 -0.3668  1.6413  0.4281
 5838TIP3   OH239004   3.953   3.308   2.590 -0.7501 -0.1061  1.3344
 5838TIP3    H139005   3.933   3.370   2.661 -1.1692  1.3259 -0.0002
 5838TIP3    H239006   3.897   3.336   2.518 -0.3384 -1.5610  0.4435
 5839TIP3   OH239007   2.286   1.647   4.389 -0.2616 -0.9363 -0.5851
 5839TIP3    H139008   2.263   1.726   4.341  0.4596 -0.3932 -0.0424
 5839TIP3    H239009   2.309   1.583   4.321 -0.2634 -0.4985 -0.9991
 5840TIP3   OH239010   4.120   4.550   1.478 -0.0552  0.1868 -0.0623
 5840TIP3    H139011   4.127   4.542   1.383 -0.2739  1.4478 -0.1942
 5840TIP3    H239012   4.047   4.494   1.502  0.0461 -0.1862 -0.6302
 5841TIP3   OH239013   3.790   1.733  17.101  0.4303  0.0632  0.1357
 5841TIP3    H139014   3.884   1.744  17.087  0.2398  3.0150  0.7751
 5841TIP3    H239015   3.754   1.821  17.093 -2.6465 -1.3383 -2.4808
 5842TIP3   OH239016   4.895   2.474  11.461  0.1743  0.2014 -0.4946
 5842TIP3    H139017   4.867   2.406  11.400  0.3746 -0.9676  0.7152
 5842TIP3    H239018   4.814   2.506  11.501  0.2594 -0.7668  0.4567
 5843TIP3   OH239019   6.242   4.775  11.713 -0.0675  0.2704 -0.0477
 5843TIP3    H139020   6.263   4.687  11.682  0.4778  0.3793  0.0052
 5843TIP3    H239021   6.318   4.828  11.689 -1.0023  1.0400 -1.3472
 5844TIP3   OH239022   5.694   2.717  16.568 -0.0782  0.5510  0.1509
 5844TIP3    H139023   5.633   2.754  16.504 -0.9147  0.0708  0.6624
 5844TIP3    H239024   5.719   2.791  16.624 -0.2421  0.7298 -0.0148
 5845TIP3   OH239025   2.194   1.691  17.080  0.1315 -0.1122 -0.3463
 5845TIP3    H139026   2.277   1.736  17.093 -0.7021  0.8295  2.0458
 5845TIP3    H239027   2.129   1.761  17.075 -0.7774 -0.9098  0.0152
 5846TIP3   OH239028   4.578   1.228   4.506 -0.1062 -0.2826  0.0101
 5846TIP3    H139029   4.505   1.268   4.459  0.2292  0.8524  0.4332
 5846TIP3    H239030   4.612   1.298   4.561  0.9454 -0.9641  0.2394
 5847TIP3   OH239031   4.169   3.796   3.043  0.1182 -0.0455  0.5700
 5847TIP3    H139032   4.250   3.799   2.992 -0.0407 -1.7026  0.1787
 5847TIP3    H239033   4.197   3.777   3.132  0.1746 -0.6231  0.4340
 5848TIP3   OH239034   5.339   1.148  11.360  0.8574  0.8240  0.5585
 5848TIP3    H139035   5.407   1.194  11.310 -1.3313  0.7798 -2.5847
 5848TIP3    H239036   5.266   1.210  11.363 -0.5381 -0.7592  0.0586
 5849TIP3   OH239037   3.851   4.351  12.843 -0.4743 -0.1915  0.1924
 5849TIP3    H139038   3.887   4.285  12.902 -1.8047  0.1095  1.3639
 5849TIP3    H239039   3.839   4.305  12.760  0.0804 -1.0064  0.5571
 5850TIP3   OH239040   5.816   6.063  11.349 -0.1754 -0.3139 -0.0106
 5850TIP3    H139041   5.802   6.158  11.339 -2.1215 -0.5675  0.0449
 5850TIP3    H239042   5.854   6.054  11.437  1.4779  0.5306 -0.6156
 5851TIP3   OH239043   0.845   1.667  12.695  0.1609 -0.5342 -0.5127
 5851TIP3    H139044   0.875   1.754  12.666 -1.7580  0.3273 -0.0209
 5851TIP3    H239045   0.804   1.629  12.617 -0.4743 -0.3075 -0.2930
 5852TIP3   OH239046   0.006   3.724   3.446 -0.4194  0.5180 -0.2450
 5852TIP3    H139047  -0.061   3.666   3.483 -1.5858  2.0025  0.0619
 5852TIP3    H239048  -0.023   3.738   3.356 -0.0255  0.4388 -0.3803
 5853TIP3   OH239049   2.688   2.172  10.324 -0.1491  0.1613 -0.1134
 5853TIP3    H139050   2.662   2.095  10.272 -0.4441  0.0432  0.2067
 5853TIP3    H239051   2.634   2.243  10.290  1.0165  0.5111 -1.2630
 5854TIP3   OH239052   2.885   3.471  13.665  0.6360  0.2418  0.0192
 5854TIP3    H139053   2.876   3.377  13.679  0.8296 -0.5108 -4.2861
 5854TIP3    H239054   2.975   3.490  13.690  0.3557 -0.4773  1.7171
 5855TIP3   OH239055   6.217   5.825   1.344 -0.6668  0.0200 -0.1440
 5855TIP3    H139056   6.257   5.906   1.315  1.3695 -0.9211 -0.0744
 5855TIP3    H239057   6.257   5.807   1.429 -1.0726 -1.0640 -0.1618
 5856TIP3   OH239058   6.117   3.535  11.812 -0.0534  0.0030  0.1869
 5856TIP3    H139059   6.133   3.626  11.788 -2.0536  0.4354  0.3783
 5856TIP3    H239060   6.182   3.516  11.880  2.6126  0.2001 -2.2392
 5857TIP3   OH239061   5.709   6.252  12.212  0.1676  0.2140  0.3123
 5857TIP3    H139062   5.801   6.225  12.208  0.5507  1.6286 -1.1198
 5857TIP3    H239063   5.712   6.341  12.247 -0.5838  0.5731 -0.5245
 5858TIP3   OH239064   0.232   2.454   2.395  0.0058  0.2624  0.1616
 5858TIP3    H139065   0.260   2.367   2.423  1.1068  0.5077 -0.1544
 5858TIP3    H239066   0.312   2.497   2.366 -0.7133  0.9593 -0.8260
 5859TIP3   OH239067   0.062   6.794  11.172  0.1852 -0.1590 -0.2569
 5859TIP3    H139068   0.015   6.867  11.132 -2.2576 -1.0818  0.8307
 5859TIP3    H239069   0.058   6.724  11.107 -0.8557 -0.5657  0.2344
 5860TIP3   OH239070   2.401   3.042   2.263 -0.5950 -0.5778 -0.0711
 5860TIP3    H139071   2.478   2.989   2.244 -1.0690 -0.5825 -2.1282
 5860TIP3    H239072   2.421   3.084   2.347  0.3669 -2.8787  0.8808
 5861TIP3   OH239073   5.498   1.841   3.573 -0.0464 -0.4334  0.3677
 5861TIP3    H139074   5.465   1.910   3.631  1.6164  0.9606 -0.3039
 5861TIP3    H239075   5.496   1.880   3.485  1.9910 -0.7948  0.1281
 5862TIP3   OH239076   0.303   5.066  15.466 -0.4034  0.1808 -0.2524
 5862TIP3    H139077   0.326   5.144  15.415  3.0615  0.3950  1.4426
 5862TIP3    H239078   0.246   5.100  15.535 -1.5454  0.6380 -1.4018
 5863TIP3   OH239079   2.910   0.014  13.988  0.2783 -0.0566  0.3196
 5863TIP3    H139080   2.825  -0.013  13.954 -0.0782 -0.1101  1.2554
 5863TIP3    H239081   2.960   0.039  13.910 -0.3406 -0.7258 -0.2990
 5864TIP3   OH239082   3.501   3.729   1.971  0.3859 -0.3396 -0.0950
 5864TIP3    H139083   3.514   3.792   2.042 -0.2207  0.5136 -0.7282
 5864TIP3    H239084   3.586   3.726   1.927  0.6217 -0.5005  0.3574
 5865TIP3   OH239085   0.776   6.427  14.789 -0.7586 -0.1015 -0.5114
 5865TIP3    H139086   0.868   6.456  14.792 -1.1724  1.7398 -3.1962
 5865TIP3    H239087   0.771   6.372  14.712 -1.8429 -0.4986 -0.1629
 5866TIP3   OH239088   1.062   0.132   3.688 -0.5125  0.6024  0.4607
 5866TIP3    H139089   1.016   0.214   3.669 -2.1878 -0.1164  1.2689
 5866TIP3    H239090   1.056   0.123   3.783  0.2440 -0.1283  0.4374
 5867TIP3   OH239091   2.193   6.164  14.112  0.3503  0.6275 -0.4197
 5867TIP3    H139092   2.199   6.240  14.170 -0.9961  0.8652 -0.5602
 5867TIP3    H239093   2.157   6.199  14.031 -1.4619 -0.3393 -0.0725
 5868TIP3   OH239094   1.002   0.399  14.479 -0.1277  0.1840 -0.5525
 5868TIP3    H139095   0.957   0.390  14.395  2.6782  1.6663 -2.2855
 5868TIP3    H239096   1.019   0.492  14.487  0.1347 -0.0192  1.4404
 5869TIP3   OH239097   1.363   5.127   2.748 -0.6071  0.0247 -0.5634
 5869TIP3    H139098   1.436   5.070   2.726 -0.3045  0.5701 -0.9762
 5869TIP3    H239099   1.393   5.177   2.823 -1.0572 -0.7086  0.1141
 5870TIP3   OH239100   4.943   5.567  16.482 -0.7313  0.0894 -0.0244
 5870TIP3    H139101   5.016   5.514  16.449 -1.0992 -1.0007  0.8696
 5870TIP3    H239102   4.874   5.503  16.501 -1.5061  0.9943  0.2068
 5871TIP3   OH239103   6.795   4.510   0.510  0.1255 -0.1094  0.4217
 5871TIP3    H139104   6.757   4.447   0.571  0.3308 -1.3611 -0.7132
 5871TIP3    H239105   6.731   4.517   0.439  0.2443  0.7305  0.3849
 5872TIP3   OH239106   3.782   2.702   3.676 -0.1501  0.6173  0.4092
 5872TIP3    H139107   3.779   2.661   3.590  2.6684  2.6117 -0.7169
 5872TIP3    H239108   3.825   2.637   3.732 -0.5041 -0.0378 -0.0682
 5873TIP3   OH239109   2.264   3.442   1.442 -0.2219 -0.2997 -0.3510
 5873TIP3    H139110   2.352   3.409   1.424 -0.5176 -1.1448 -0.2795
 5873TIP3    H239111   2.278   3.520   1.496  0.4817 -0.4122 -0.3668
 5874TIP3   OH239112   4.934   2.836   2.647 -0.7452 -0.1704 -0.6937
 5874TIP3    H139113   4.959   2.834   2.554 -1.9313  0.5287 -1.0384
 5874TIP3    H239114   4.915   2.928   2.665 -1.4755 -0.4480 -0.0177
 5875TIP3   OH239115   0.542   0.443  12.797 -0.1384  0.2886  0.2584
 5875TIP3    H139116   0.451   0.450  12.824  0.4043  0.4651  2.1893
 5875TIP3    H239117   0.556   0.349  12.783 -1.3638  0.5296 -2.9741
 5876TIP3   OH239118   1.247   0.180   5.841  0.2221  0.2043 -0.1764
 5876TIP3    H139119   1.301   0.122   5.788 -0.8842  0.2396 -1.3591
 5876TIP3    H239120   1.207   0.123   5.906  0.4007 -0.0887 -0.3257
 5877TIP3   OH239121   6.265   3.604  16.315  0.6955 -0.2208 -0.3130
 5877TIP3    H139122   6.310   3.592  16.232  0.5049  0.9247 -0.5848
 5877TIP3    H239123   6.242   3.697  16.317 -0.3251 -0.4829  0.4973
 5878TIP3   OH239124   1.150   3.141   3.726  0.2779  0.1755  0.4257
 5878TIP3    H139125   1.218   3.209   3.725  0.4635 -0.0190 -0.3737
 5878TIP3    H239126   1.132   3.123   3.634  0.5983 -1.2348  0.6254
 5879TIP3   OH239127   3.719   4.644   1.560 -0.3103 -0.3545 -0.7311
 5879TIP3    H139128   3.794   4.588   1.539 -0.2899  0.5275 -3.1320
 5879TIP3    H239129   3.691   4.679   1.476 -1.0415  2.3604  0.5844
 5880TIP3   OH239130   6.545   2.352   3.777 -0.0711 -0.2971  0.3164
 5880TIP3    H139131   6.506   2.433   3.810 -3.7727 -2.1105  0.5656
 5880TIP3    H239132   6.560   2.369   3.684 -1.3239  0.4783  0.2485
 5881TIP3   OH239133   6.130   5.807   1.022  0.6176 -0.3353  0.0064
 5881TIP3    H139134   6.089   5.872   0.965 -0.1604 -0.9354 -0.1348
 5881TIP3    H239135   6.184   5.857   1.082  0.1599  0.4278 -0.2148
 5882TIP3   OH239136   3.986   2.267  15.453  0.1645 -0.5551  0.1684
 5882TIP3    H139137   4.065   2.285  15.503  0.0764  0.2802  0.0047
 5882TIP3    H239138   4.016   2.260  15.362  0.5700 -3.5683  0.4624
 5883TIP3   OH239139   4.595   2.587   5.229  0.2962  0.3541 -0.2007
 5883TIP3    H139140   4.556   2.672   5.209 -0.0066  0.0803 -0.7602
 5883TIP3    H239141   4.605   2.544   5.145 -1.6256 -1.0738  0.2564
 5884TIP3   OH239142   5.099   4.806  13.051 -1.3141  0.1213  0.0057
 5884TIP3    H139143   5.081   4.897  13.077  0.9214  0.8002 -0.6304
 5884TIP3    H239144   5.078   4.803  12.958 -0.7202  0.2001 -0.1360
 5885TIP3   OH239145   4.034   0.256  11.863  0.2383 -0.0148  0.1325
 5885TIP3    H139146   4.071   0.342  11.843 -2.0462  0.6419 -1.3946
 5885TIP3    H239147   3.975   0.272  11.937 -0.6554 -0.1353 -0.5480
 5886TIP3   OH239148   4.803   1.962  11.272  0.4429  0.2803 -0.5576
 5886TIP3    H139149   4.798   1.896  11.203  1.3322  0.0621 -0.4094
 5886TIP3    H239150   4.757   2.038  11.236 -0.8612 -0.5218 -0.6095
 5887TIP3   OH239151   5.895   5.747   1.793 -0.6670  0.1727 -0.1387
 5887TIP3    H139152   5.949   5.735   1.871 -1.8602 -1.0390  0.5090
 5887TIP3    H239153   5.810   5.775   1.827 -0.5839  1.7008 -1.1354
 5888TIP3   OH239154   6.497   5.852   4.507  0.3098 -0.5285 -0.3241
 5888TIP3    H139155   6.490   5.756   4.499 -0.0475 -0.6515  1.2957
 5888TIP3    H239156   6.590   5.868   4.519  0.2234 -0.8030  0.7949
 5889TIP3   OH239157   0.100   2.825  12.439 -0.5166  0.1537  0.0432
 5889TIP3    H139158   0.062   2.881  12.507  0.2022  0.9841 -0.2167
 5889TIP3    H239159   0.033   2.760  12.420 -1.2130  0.6891  0.6520
 5890TIP3   OH239160   5.933   0.637  12.658 -0.2116  0.2841 -0.4536
 5890TIP3    H139161   5.909   0.622  12.567  0.8337  1.1145 -0.8851
 5890TIP3    H239162   6.020   0.597  12.666  0.1763  1.1860 -0.1237
 5891TIP3   OH239163   5.076   4.602   5.481 -0.0668 -0.4730 -0.2240
 5891TIP3    H139164   5.012   4.660   5.439 -0.0123 -0.7406 -0.6797
 5891TIP3    H239165   5.026   4.552   5.545 -0.2382 -0.3894 -0.2950
 5892TIP3   OH239166   6.634   5.000   0.634  0.0104  0.1604 -0.0223
 5892TIP3    H139167   6.714   5.013   0.584 -0.6257 -1.0521 -1.3854
 5892TIP3    H239168   6.648   4.920   0.684 -0.0855  0.3446  0.3083
 5893TIP3   OH239169   2.391   1.788  10.954 -0.3209 -0.1536 -0.0252
 5893TIP3    H139170   2.380   1.693  10.945 -0.2392  0.0277 -2.3571
 5893TIP3    H239171   2.429   1.816  10.870  0.5845  1.8074  0.9938
 5894TIP3   OH239172   4.371   5.093  13.528  0.0636  0.0872  0.3037
 5894TIP3    H139173   4.420   5.154  13.473 -3.2249  1.1693 -1.5377
 5894TIP3    H239174   4.375   5.132  13.616 -2.2259  3.2072 -0.8935
 5895TIP3   OH239175   6.006   4.172   1.681  0.1897 -0.3959 -0.6330
 5895TIP3    H139176   6.012   4.087   1.725 -0.5773  0.0145  0.2658
 5895TIP3    H239177   6.020   4.152   1.588 -3.0967 -1.9390 -0.8489
 5896TIP3   OH239178   1.521   0.099  13.192 -0.2121 -0.3014 -0.7761
 5896TIP3    H139179   1.531   0.136  13.105  0.4806 -0.3211 -0.7044
 5896TIP3    H239180   1.495   0.173  13.247  0.5668 -0.0431 -0.7555
 5897TIP3   OH239181   5.698   3.044   6.079 -0.1198 -0.1714 -0.7197
 5897TIP3    H139182   5.670   3.108   6.144 -1.7648 -2.1663  0.5846
 5897TIP3    H239183   5.649   3.067   6.000 -0.2781  0.4895 -0.4358
 5898TIP3   OH239184   2.848   2.198   5.434  0.5344 -0.4531  0.6292
 5898TIP3    H139185   2.939   2.184   5.461  0.1427 -1.2373  1.5540
 5898TIP3    H239186   2.841   2.149   5.352  1.3652  0.8890 -0.2704
 5899TIP3   OH239187   5.879   1.029  11.442 -0.1000  0.1945  0.4349
 5899TIP3    H139188   5.819   1.027  11.516 -0.0880 -2.8658  0.4106
 5899TIP3    H239189   5.870   0.943  11.401  1.5293  1.0350 -1.8000
 5900TIP3   OH239190   6.768   2.499   1.984 -0.5699 -0.4665 -0.3850
 5900TIP3    H139191   6.701   2.433   1.966  0.2117 -1.6816  1.0799
 5900TIP3    H239192   6.793   2.484   2.075  0.3038  1.2408 -0.3278
 5901TIP3   OH239193   5.074   1.788   0.402 -0.5972  0.7174 -0.1036
 5901TIP3    H139194   5.127   1.868   0.410  0.3590  0.2021 -1.1616
 5901TIP3    H239195   5.085   1.761   0.311 -0.6898 -0.7726  0.3212
 5902TIP3   OH239196   4.795   0.013  12.494  0.2498 -0.0519 -0.7258
 5902TIP3    H139197   4.878   0.004  12.541 -0.2537  1.2056  0.4401
 5902TIP3    H239198   4.768  -0.076  12.475  0.6098 -0.5973  1.1663
 5903TIP3   OH239199   0.928   6.154  16.359  0.4487 -0.3112 -0.3098
 5903TIP3    H139200   0.891   6.072  16.394 -1.1684  0.7643  0.5573
 5903TIP3    H239201   0.923   6.143  16.264 -1.0230 -0.6841 -0.2117
 5904TIP3   OH239202   2.824   0.510   5.810  0.1480 -0.2887 -0.2138
 5904TIP3    H139203   2.821   0.556   5.726 -1.4900 -0.5635 -0.3153
 5904TIP3    H239204   2.825   0.580   5.875  0.0816 -0.0914 -0.4233
 5905TIP3   OH239205   3.678   0.708   5.859  0.2086  0.6006 -0.0752
 5905TIP3    H139206   3.609   0.641   5.859  0.2046  0.6024 -0.4860
 5905TIP3    H239207   3.741   0.677   5.924 -0.1878  0.6083  0.3131
 5906TIP3   OH239208   0.053   5.762   4.128  0.1372  0.2169 -0.1190
 5906TIP3    H139209   0.023   5.688   4.181 -3.7334  0.5282 -1.6937
 5906TIP3    H239210   0.082   5.723   4.046 -1.3032  0.3262 -0.7042
 5907TIP3   OH239211   3.193   5.397  10.725 -0.3084 -0.2034  0.1657
 5907TIP3    H139212   3.240   5.414  10.643  1.7995  0.1133  1.3865
 5907TIP3    H239213   3.170   5.304  10.720  0.7329 -0.4481 -0.3524
 5908TIP3   OH239214   1.997   0.111   0.029  0.1320 -0.1739 -0.3871
 5908TIP3    H139215   1.972   0.175  -0.038  1.4642  0.8932  0.1229
 5908TIP3    H239216   1.915   0.090   0.074 -0.3131  1.1780 -0.5566
 5909TIP3   OH239217   4.272   5.120   1.473 -0.0877 -0.7184 -0.2027
 5909TIP3    H139218   4.310   5.052   1.529 -0.1339 -0.3874  0.2290
 5909TIP3    H239219   4.313   5.106   1.387  0.3742 -0.8905  0.0472
 5910TIP3   OH239220   2.009   5.339  15.245 -0.5298  0.2168 -0.2589
 5910TIP3    H139221   1.979   5.423  15.279 -1.8492 -0.0218 -0.7853
 5910TIP3    H239222   2.039   5.359  15.156  0.1207  0.3127 -0.0188
 5911TIP3   OH239223   4.763   2.843  14.410 -0.1230 -0.9703  0.2646
 5911TIP3    H139224   4.667   2.838  14.406 -0.1198 -0.5908 -0.5601
 5911TIP3    H239225   4.781   2.937  14.399  0.3382 -1.0340  0.5087
 5912TIP3   OH239226   5.315   6.014   3.320  0.2653 -0.2459  0.5948
 5912TIP3    H139227   5.336   5.928   3.284 -0.5511 -0.2359  0.0845
 5912TIP3    H239228   5.244   5.998   3.381 -1.6930  0.4096 -1.4337
 5913TIP3   OH239229   4.988   5.436   3.385 -0.6089 -0.2000 -0.1066
 5913TIP3    H139230   4.933   5.496   3.334  0.0689  0.8287  0.3354
 5913TIP3    H239231   5.022   5.374   3.321 -0.6443  0.4137 -0.7262
 5914TIP3   OH239232   0.743   6.176   0.844 -0.0204  0.1205 -0.4578
 5914TIP3    H139233   0.716   6.131   0.924 -0.4881 -1.4928 -1.4858
 5914TIP3    H239234   0.799   6.247   0.874 -0.1536 -0.4790  1.2907
 5915TIP3   OH239235   4.922   3.639   6.241 -0.2167  0.6804  0.3539
 5915TIP3    H139236   5.014   3.645   6.214 -0.5373  0.7329 -0.7288
 5915TIP3    H239237   4.926   3.596   6.326  0.6801 -1.4384 -0.7066
 5916TIP3   OH239238   3.757   0.510  14.425  0.0638  0.4244  0.6593
 5916TIP3    H139239   3.690   0.540  14.485 -0.4767 -0.6351  0.6053
 5916TIP3    H239240   3.710   0.454  14.363  0.6902  1.1310 -0.4618
 5917TIP3   OH239241   2.961   3.898  15.411  0.2288 -0.0482  0.4456
 5917TIP3    H139242   2.933   3.871  15.499 -3.2199 -0.3757 -0.6838
 5917TIP3    H239243   2.980   3.991  15.420  0.6838 -0.2548  1.7169
 5918TIP3   OH239244   2.117   4.576   5.683 -0.5795  0.0272  0.0192
 5918TIP3    H139245   2.162   4.594   5.766  0.7037 -2.4941 -0.0930
 5918TIP3    H239246   2.061   4.501   5.702 -0.0905 -0.7317 -1.4650
 5919TIP3   OH239247   1.170   4.369  16.558  0.1896 -0.2586 -0.5460
 5919TIP3    H139248   1.261   4.401  16.561  0.6350 -1.4731 -0.8523
 5919TIP3    H239249   1.156   4.331  16.645  0.4688 -1.4070 -1.0027
 5920TIP3   OH239250   5.541   4.110   5.582 -0.5071 -0.3397 -0.2020
 5920TIP3    H139251   5.488   4.051   5.636 -0.5124 -0.5534 -0.4380
 5920TIP3    H239252   5.614   4.135   5.638 -1.4720  0.8921  0.5243
 5921TIP3   OH239253   1.820   3.221  15.342 -0.0218  0.5907  0.0105
 5921TIP3    H139254   1.825   3.306  15.385 -3.2171  0.5054  0.6708
 5921TIP3    H239255   1.795   3.160  15.411 -0.4400 -0.4164 -1.0104
 5922TIP3   OH239256   0.016   0.132  14.199 -0.8545 -0.2132 -0.6114
 5922TIP3    H139257  -0.066   0.084  14.208 -1.0742  0.4478  1.0860
 5922TIP3    H239258   0.070   0.101  14.272 -0.4136  0.9372 -0.4347
 5923TIP3   OH239259   4.309   4.954  12.166  0.0590 -0.3039 -0.7812
 5923TIP3    H139260   4.324   4.887  12.233  1.0081 -0.5811 -1.2662
 5923TIP3    H239261   4.221   4.986  12.184  0.8694  0.7052  1.5516
 5924TIP3   OH239262   5.904   1.971   5.954  0.0981 -0.0557  0.4299
 5924TIP3    H139263   5.972   2.035   5.976  0.1509  0.0388  0.0024
 5924TIP3    H239264   5.839   2.021   5.905 -0.3358 -0.1243  0.9267
 5925TIP3   OH239265   5.235   4.566   2.689 -0.0301  0.4093  0.3827
 5925TIP3    H139266   5.231   4.472   2.670 -0.2906  0.8495 -1.8908
 5925TIP3    H239267   5.145   4.590   2.711  0.0488  0.1174  1.0301
 5926TIP3   OH239268   3.438   3.976  12.833 -0.0344  0.2614  0.1596
 5926TIP3    H139269   3.481   3.896  12.862 -1.2098 -0.2158  0.6050
 5926TIP3    H239270   3.494   4.046  12.865 -0.2259 -0.3179  1.8117
 5927TIP3   OH239271   3.822   2.797   5.291  0.2996  0.2250 -0.2165
 5927TIP3    H139272   3.837   2.857   5.218  0.1365  1.0260  0.3982
 5927TIP3    H239273   3.752   2.739   5.260 -0.6748  1.3759 -0.2383
 5928TIP3   OH239274   1.431   3.698   5.188  0.1633  0.3624 -0.3339
 5928TIP3    H139275   1.514   3.719   5.231  0.3245  0.6804 -0.7945
 5928TIP3    H239276   1.380   3.651   5.254  1.0256 -0.5551 -0.3232
 5929TIP3   OH239277   4.776   1.144   3.052  0.0973  0.3635 -0.2491
 5929TIP3    H139278   4.701   1.183   3.096 -1.0382 -1.3681 -0.5953
 5929TIP3    H239279   4.800   1.208   2.985 -0.6111  1.2509  0.3294
 5930TIP3   OH239280   1.405   0.545  12.864  0.1600  0.5831 -0.0342
 5930TIP3    H139281   1.380   0.544  12.771 -0.6549 -1.7291  0.1818
 5930TIP3    H239282   1.498   0.569  12.862  0.5567 -0.9055 -1.5922
 5931TIP3   OH239283   3.692   2.239  13.193  0.3764 -0.1731 -0.3307
 5931TIP3    H139284   3.617   2.285  13.230  0.8588 -0.2760  0.7762
 5931TIP3    H239285   3.731   2.192  13.266  2.3626  0.9977 -0.5771
 5932TIP3   OH239286   3.983   2.909  13.903  0.3023  0.0150  0.3294
 5932TIP3    H139287   3.897   2.866  13.900 -0.5646  1.6708  1.3045
 5932TIP3    H239288   4.000   2.934  13.812 -0.7974  0.7468  0.3160
 5933TIP3   OH239289   5.684   4.434  16.547  0.5177  0.4379  0.4772
 5933TIP3    H139290   5.667   4.509  16.489 -1.6674  0.5251  1.1966
 5933TIP3    H239291   5.676   4.470  16.635 -0.4408 -0.6038  0.8264
 5934TIP3   OH239292   4.489   3.630   5.307  0.6428  0.5960 -0.3837
 5934TIP3    H139293   4.547   3.628   5.384 -0.6294 -0.5052  0.5856
 5934TIP3    H239294   4.411   3.677   5.338 -0.0465 -0.2208 -0.8708
 5935TIP3   OH239295   1.640   0.598   2.273 -0.3654 -0.0653  0.4298
 5935TIP3    H139296   1.675   0.595   2.184 -0.6643 -0.3911  0.3257
 5935TIP3    H239297   1.562   0.653   2.267  0.2902  0.9256  0.7231
 5936TIP3   OH239298   1.891   2.755   4.314 -0.2988  0.2805  0.3832
 5936TIP3    H139299   1.946   2.770   4.237  0.7640 -1.4090  0.7906
 5936TIP3    H239300   1.939   2.690   4.365 -0.9727  1.3974  2.4970
 5937TIP3   OH239301   4.545   5.839   5.310 -0.2513 -0.5998  0.3703
 5937TIP3    H139302   4.523   5.869   5.398 -3.1462 -0.8313 -0.2147
 5937TIP3    H239303   4.574   5.749   5.322 -0.7478 -0.6699  1.1019
 5938TIP3   OH239304   3.722   2.955   3.586 -0.3060  0.0052  0.5477
 5938TIP3    H139305   3.739   2.865   3.613 -0.4991  0.1288  1.0853
 5938TIP3    H239306   3.777   2.967   3.508 -0.3497 -0.6032  0.4199
 5939TIP3   OH239307   4.356   5.721   0.894  0.4459 -0.4260  0.0363
 5939TIP3    H139308   4.334   5.781   0.823  1.1467 -0.1891  0.0182
 5939TIP3    H239309   4.444   5.690   0.873 -0.1499 -1.9633 -0.3064
 5940TIP3   OH239310   1.941   4.745  16.135 -0.0180  0.7959 -0.1635
 5940TIP3    H139311   1.998   4.763  16.060 -0.5363  1.3609 -0.4307
 5940TIP3    H239312   2.000   4.738  16.209  0.4550  0.7551 -0.5446
 5941TIP3   OH239313   2.498   0.427  12.884  0.5085  0.0707  0.8463
 5941TIP3    H139314   2.445   0.435  12.804  0.6316 -0.5784  0.6968
 5941TIP3    H239315   2.458   0.354  12.931  1.2461 -0.3791  0.7633
 5942TIP3   OH239316   1.777   1.612   4.472  0.6549  0.1781 -0.1531
 5942TIP3    H139317   1.854   1.598   4.527  0.9443 -1.4339 -0.9518
 5942TIP3    H239318   1.806   1.590   4.384  0.2028  2.7774 -1.0018
 5943TIP3   OH239319   6.465   5.838  13.439  0.0917  0.2606  0.2534
 5943TIP3    H139320   6.514   5.787  13.503  1.9490 -0.7089 -1.9059
 5943TIP3    H239321   6.474   5.929  13.469  2.9685  0.0646  0.0657
 5944TIP3   OH239322   0.453   0.639   5.032 -0.5203  0.1901 -0.2976
 5944TIP3    H139323   0.429   0.653   4.940  0.9196 -1.6171 -0.9833
 5944TIP3    H239324   0.475   0.726   5.065  0.1332  0.6928 -2.0165
 5945TIP3   OH239325   2.705   3.812   2.543  0.7715 -0.2701  0.4193
 5945TIP3    H139326   2.722   3.885   2.603 -1.7678 -0.4999  1.5212
 5945TIP3    H239327   2.680   3.855   2.460  0.8648  0.1063  0.5826
 5946TIP3   OH239328   1.318   5.194   2.499  0.3875  0.0048 -0.4656
 5946TIP3    H139329   1.337   5.182   2.592  1.0122  1.6892 -0.3624
 5946TIP3    H239330   1.238   5.245   2.497  0.0333 -0.5669 -0.8579
 5947TIP3   OH239331   4.821   6.103  15.005 -0.1435  0.3535  0.2167
 5947TIP3    H139332   4.785   6.043  15.070  0.3539 -1.0284 -0.7596
 5947TIP3    H239333   4.760   6.177  15.004 -1.8818 -1.0486  0.0105
 5948TIP3   OH239334   3.142   2.550   4.616 -0.5805  0.2262  0.0535
 5948TIP3    H139335   3.123   2.635   4.655  0.3852  0.6144 -0.2831
 5948TIP3    H239336   3.084   2.544   4.540  0.7775  1.4967 -1.1152
 5949TIP3   OH239337   6.624   6.304   4.703  0.0965  0.4317  0.3070
 5949TIP3    H139338   6.658   6.231   4.652 -1.4501 -0.5909  0.7122
 5949TIP3    H239339   6.554   6.341   4.649 -0.1145  0.6830  0.7478
 5950TIP3   OH239340   5.178   0.766  14.196  0.3195  0.1621  0.0025
 5950TIP3    H139341   5.132   0.850  14.193  1.6562  0.9846  1.4949
 5950TIP3    H239342   5.266   0.786  14.165  1.4342 -0.0825  2.8514
 5951TIP3   OH239343   2.943   3.721   5.190 -0.7425  0.1729  0.6714
 5951TIP3    H139344   2.947   3.645   5.249  0.1195  1.0188  1.7172
 5951TIP3    H239345   2.850   3.731   5.169 -1.0174 -0.3081  1.6580
 5952TIP3   OH239346   2.133   2.613   2.466 -0.2841 -0.2037  0.5119
 5952TIP3    H139347   2.047   2.577   2.488 -0.7626 -0.0521 -1.0872
 5952TIP3    H239348   2.169   2.553   2.401 -0.2993  1.1472 -0.7754
 5953TIP3   OH239349   1.124   2.618   6.122 -0.7103  0.0296 -0.0582
 5953TIP3    H139350   1.029   2.615   6.113 -0.7800 -0.7522  0.9410
 5953TIP3    H239351   1.152   2.527   6.122  0.0992  0.2640 -0.8693
 5954TIP3   OH239352   0.022   2.773  12.022  0.1201 -0.3375 -0.2421
 5954TIP3    H139353  -0.057   2.731  12.057 -0.9663 -0.3164 -2.6013
 5954TIP3    H239354   0.084   2.701  12.011 -0.1940 -0.6379 -0.0625
 5955TIP3   OH239355   3.405   5.285  14.694  1.1465 -0.4969 -0.0180
 5955TIP3    H139356   3.418   5.299  14.600  0.4644 -0.2354 -0.0835
 5955TIP3    H239357   3.457   5.208  14.715 -1.6685 -2.8575 -1.3848
 5956TIP3   OH239358   4.215   3.589   2.295 -0.3178 -0.0706  0.1686
 5956TIP3    H139359   4.120   3.589   2.308 -0.5220 -0.1407 -1.3213
 5956TIP3    H239360   4.250   3.618   2.379 -1.7080  1.2836  0.2968
 5957TIP3   OH239361   1.636   3.735  16.831  0.0611  0.3799 -0.0387
 5957TIP3    H139362   1.658   3.828  16.820  0.3218  0.1403 -1.7208
 5957TIP3    H239363   1.684   3.708  16.909 -0.4615  1.7993  0.8003
 5958TIP3   OH239364   3.473   4.484   5.433  0.0680  0.1226 -0.3027
 5958TIP3    H139365   3.448   4.430   5.359 -2.1373 -0.5823  0.9081
 5958TIP3    H239366   3.451   4.574   5.407  1.8096  0.2191 -1.5123
 5959TIP3   OH239367   1.919   2.197   1.239  0.1310 -0.3384  0.1372
 5959TIP3    H139368   1.908   2.149   1.321 -1.7252 -1.4628 -0.7556
 5959TIP3    H239369   1.872   2.279   1.253  0.9481  0.0597  0.6504
 5960TIP3   OH239370   3.147   4.007   3.637 -0.2607  0.2595  0.4125
 5960TIP3    H139371   3.173   3.938   3.576 -2.8799 -0.8133  0.4581
 5960TIP3    H239372   3.144   4.086   3.582  0.6035 -0.0533 -0.1081
 5961TIP3   OH239373   6.693   4.188  17.023  0.5865 -0.0056  0.4435
 5961TIP3    H139374   6.609   4.223  16.992  1.1144  0.5167 -0.4325
 5961TIP3    H239375   6.737   4.263  17.063  1.5112  0.2256 -0.9815
 5962TIP3   OH239376   5.082   3.510  16.345 -0.1985  0.0297  0.4577
 5962TIP3    H139377   5.084   3.572  16.272 -0.5535 -0.3465  0.1253
 5962TIP3    H239378   5.071   3.565  16.423  0.8430  0.4871  0.2956
 5963TIP3   OH239379   1.928   3.320   2.279 -0.6563  0.6036  0.5537
 5963TIP3    H139380   1.852   3.279   2.320  0.0939 -0.4244  0.9576
 5963TIP3    H239381   1.944   3.268   2.200 -0.5805  1.0244  0.2919
 5964TIP3   OH239382   1.037   1.256  15.043  0.2704 -0.0262  0.3830
 5964TIP3    H139383   1.023   1.234  14.951 -0.3444 -0.5396  0.5887
 5964TIP3    H239384   0.955   1.231  15.086  1.1086 -1.2471  1.3211
 5965TIP3   OH239385   2.098   4.201  10.397 -0.2516 -0.1988 -0.1683
 5965TIP3    H139386   2.004   4.194  10.382 -0.5603 -1.6026  2.1684
 5965TIP3    H239387   2.122   4.118  10.438  2.2244 -0.3242 -1.7783
 5966TIP3   OH239388   1.031   3.575  12.995  0.9624 -0.3408 -0.4885
 5966TIP3    H139389   1.074   3.497  13.030  0.9755 -0.5254 -0.9174
 5966TIP3    H239390   1.055   3.645  13.056 -1.8549 -1.3336  1.8668
 5967TIP3   OH239391   3.520   1.596  16.042 -0.4236  0.4688 -0.1130
 5967TIP3    H139392   3.527   1.548  15.959  1.1919  1.8918 -0.8474
 5967TIP3    H239393   3.478   1.535  16.102 -3.7713  0.2115 -2.5952
 5968TIP3   OH239394   0.337   4.930   0.552  0.2390 -0.3430 -0.3228
 5968TIP3    H139395   0.410   4.886   0.508  0.2061 -1.1072  0.3812
 5968TIP3    H239396   0.379   4.989   0.614  0.2611 -0.5407 -0.1502
 5969TIP3   OH239397   5.445   5.023   5.726  0.0339  0.0684  0.2748
 5969TIP3    H139398   5.512   4.998   5.663 -0.1113 -1.5616  0.7467
 5969TIP3    H239399   5.488   5.019   5.811  0.2805  2.4504  0.2956
 5970TIP3   OH239400   3.827   1.186  14.355 -0.1454 -0.0775 -0.2913
 5970TIP3    H139401   3.891   1.215  14.420  0.4133 -3.9873  1.0403
 5970TIP3    H239402   3.873   1.190  14.272  0.5371  0.8969  0.1332
 5971TIP3   OH239403   2.173   1.711  13.368 -0.5615 -0.5612  0.5047
 5971TIP3    H139404   2.210   1.798  13.381  0.0353 -0.6428 -0.6339
 5971TIP3    H239405   2.094   1.710  13.423 -0.7335  0.8020  0.2873
 5972TIP3   OH239406   4.122   4.345   5.837  0.3805 -0.4479 -0.2569
 5972TIP3    H139407   4.203   4.351   5.787  0.1808  0.1676 -0.5080
 5972TIP3    H239408   4.080   4.430   5.825 -0.8096 -1.1250 -0.9909
 5973TIP3   OH239409   3.936   2.935  15.415 -0.1892  0.3266 -0.1159
 5973TIP3    H139410   3.865   2.875  15.437  0.2437 -0.7282 -1.4840
 5973TIP3    H239411   3.972   2.962  15.499 -1.3461 -0.1747  0.5560
 5974TIP3   OH239412   0.199   3.919   2.915 -0.6579 -0.2467 -0.6012
 5974TIP3    H139413   0.272   3.858   2.923 -0.3289  0.3755  1.4729
 5974TIP3    H239414   0.192   3.959   3.002 -3.8085 -0.6858 -0.5916
 5975TIP3   OH239415   4.803   3.901  11.837  0.0528  0.5015 -0.4891
 5975TIP3    H139416   4.708   3.890  11.845 -0.0970  1.9191 -0.1204
 5975TIP3    H239417   4.814   3.979  11.783  0.9809  1.3305  0.8352
 5976TIP3   OH239418   3.818   4.437   3.588 -0.3431  0.2295  0.0967
 5976TIP3    H139419   3.798   4.426   3.681  1.4728  1.2056  0.6316
 5976TIP3    H239420   3.815   4.531   3.574  1.1806  0.2193 -0.3862
 5977TIP3   OH239421   2.748   0.520   6.117 -0.1369 -0.0765  0.3294
 5977TIP3    H139422   2.788   0.566   6.191 -0.8604 -1.0589  1.3571
 5977TIP3    H239423   2.780   0.430   6.124  1.9986  0.4385 -2.1958
 5978TIP3   OH239424   6.788   4.355  16.794  0.2082  0.5164 -0.6172
 5978TIP3    H139425   6.698   4.352  16.825  0.4701  2.1593  0.3559
 5978TIP3    H239426   6.838   4.393  16.866  1.4516  0.9290 -1.6630
 5979TIP3   OH239427   1.225   2.726   5.890 -0.3524 -0.0586 -0.5415
 5979TIP3    H139428   1.208   2.663   5.820  0.5391 -0.6732 -0.2129
 5979TIP3    H239429   1.185   2.688   5.968  0.7236 -0.5215 -0.2097
 5980TIP3   OH239430   5.458   0.340  14.182  0.0199  0.7106  0.0018
 5980TIP3    H139431   5.447   0.425  14.224 -1.8217 -0.1842  1.3602
 5980TIP3    H239432   5.372   0.319  14.147  0.1668 -1.1811  0.7654
 5981TIP3   OH239433   5.574   2.929   1.833 -0.1191  0.3264  0.3670
 5981TIP3    H139434   5.626   2.852   1.812 -0.8059  0.2462 -1.0437
 5981TIP3    H239435   5.548   2.966   1.749  0.3380  2.2089  1.0114
 5982TIP3   OH239436   0.479   0.230  15.659 -0.1810  0.2442  0.2429
 5982TIP3    H139437   0.507   0.158  15.716  2.2208  0.7655 -0.1902
 5982TIP3    H239438   0.424   0.285  15.715 -0.7550 -1.0996  1.0221
 5983TIP3   OH239439   5.611   4.398   3.763 -0.0352  0.1719 -0.2371
 5983TIP3    H139440   5.588   4.341   3.836  2.4019  0.0989  0.4874
 5983TIP3    H239441   5.529   4.443   3.741 -0.6787  0.5951  2.8715
 5984TIP3   OH239442   0.608   6.802   1.037  0.5428 -0.2549 -0.1303
 5984TIP3    H139443   0.696   6.808   1.001  0.5390  0.6289 -0.0200
 5984TIP3    H239444   0.596   6.885   1.084 -0.8409  0.2358 -1.2906
 5985TIP3   OH239445   6.525   6.040  16.521 -0.2597  0.2625  0.2213
 5985TIP3    H139446   6.583   6.104  16.480 -0.7275  1.5819  1.5666
 5985TIP3    H239447   6.492   6.084  16.599 -2.3404 -0.8058 -0.0197
 5986TIP3   OH239448   3.591   3.104   0.472  0.4529 -0.2094 -0.1228
 5986TIP3    H139449   3.661   3.152   0.516  1.2980 -0.8962 -0.7047
 5986TIP3    H239450   3.634   3.027   0.435 -0.6601 -0.7843 -0.2459
 5987TIP3   OH239451   6.488   1.967   2.249  0.4596  0.1990 -0.0965
 5987TIP3    H139452   6.516   1.882   2.215  0.6134 -0.0737  0.7038
 5987TIP3    H239453   6.521   2.030   2.186 -0.4194 -0.3913 -1.1794
 5988TIP3   OH239454   5.869   5.288   0.970 -0.2099  0.0767 -0.6307
 5988TIP3    H139455   5.790   5.247   0.934  0.5901 -0.2548 -2.0655
 5988TIP3    H239456   5.874   5.373   0.925 -1.1272  1.2339  1.3432
 5989TIP3   OH239457   4.892   0.790   4.538 -0.0220 -0.0187  0.4784
 5989TIP3    H139458   4.959   0.823   4.599 -0.9531 -0.1249  1.5785
 5989TIP3    H239459   4.921   0.821   4.452  2.2064 -1.2897  0.7304
 5990TIP3   OH239460   0.579   5.159   1.993  0.2077 -0.2802  0.0710
 5990TIP3    H139461   0.588   5.067   2.019  2.5187 -0.1563 -0.1582
 5990TIP3    H239462   0.562   5.156   1.899  2.6206 -0.4386 -0.3919
 5991TIP3   OH239463   3.350   4.601  16.110 -0.4326 -0.5811  0.1525
 5991TIP3    H139464   3.353   4.532  16.045  1.8514  0.1922 -0.6205
 5991TIP3    H239465   3.401   4.567  16.184 -0.2181 -0.1723  0.1951
 5992TIP3   OH239466   0.828   1.564   1.327 -0.3295  0.2753  0.2529
 5992TIP3    H139467   0.908   1.512   1.315 -0.8119 -0.2047 -0.9469
 5992TIP3    H239468   0.813   1.563   1.422  1.1088  0.4011  0.4948
 5993TIP3   OH239469   3.552   1.696  17.280  0.5169  0.4974  0.0162
 5993TIP3    H139470   3.537   1.775  17.331  1.2291 -0.4571  1.7769
 5993TIP3    H239471   3.635   1.712  17.235  1.9009 -0.1078  2.2289
 5994TIP3   OH239472   5.055   2.872   2.406 -0.3577  0.0736  0.6295
 5994TIP3    H139473   5.108   2.802   2.366  0.1734  1.0215 -0.3622
 5994TIP3    H239474   5.114   2.947   2.408 -1.2389  0.7590  0.8088
 5995TIP3   OH239475   4.970   1.283  11.562 -0.4502 -0.1697  0.0308
 5995TIP3    H139476   4.937   1.205  11.607  1.0572  0.2955  1.9963
 5995TIP3    H239477   4.962   1.354  11.626  1.1362  0.6325 -0.6245
 5996TIP3   OH239478   1.730   4.901  12.471  0.2306 -0.0065 -0.2930
 5996TIP3    H139479   1.754   4.935  12.384 -1.2627  0.8189 -0.3879
 5996TIP3    H239480   1.640   4.872  12.461 -0.2521  0.9543  1.2388
 5997TIP3   OH239481   0.569   5.914  10.651  0.6747  0.5361  0.1806
 5997TIP3    H139482   0.487   5.938  10.693  0.0268  1.6705 -1.6645
 5997TIP3    H239483   0.557   5.824  10.623 -0.2249  0.9134 -0.6850
 5998TIP3   OH239484   0.411   1.483   0.027 -0.0571  0.2441  0.3374
 5998TIP3    H139485   0.411   1.498   0.122  0.0249 -0.4613  0.4501
 5998TIP3    H239486   0.446   1.564  -0.010 -0.1614  0.5482  0.9077
 5999TIP3   OH239487   2.141   3.895  17.237 -0.0868  0.4021 -0.6907
 5999TIP3    H139488   2.062   3.900  17.182 -0.1808 -0.9323 -0.7025
 5999TIP3    H239489   2.168   3.804  17.230  1.5238  0.8746 -0.7559
 6000TIP3   OH239490   6.817   1.541   0.775  0.1669 -0.5004  0.8004
 6000TIP3    H139491   6.873   1.481   0.726  1.3019 -0.1800  1.7004
 6000TIP3    H239492   6.835   1.627   0.735 -0.1652 -0.4908  0.6680
 6001TIP3   OH239493   0.408   5.252   4.349 -0.3520 -0.4220 -0.0696
 6001TIP3    H139494   0.339   5.221   4.407 -0.3241 -0.0649  0.1584
 6001TIP3    H239495   0.473   5.182   4.350 -0.7634 -0.8156 -0.3822
 6002TIP3   OH239496   5.542   2.480  11.946 -0.0528 -0.8223 -0.2934
 6002TIP3    H139497   5.608   2.496  11.878 -0.1016  1.6670  0.2244
 6002TIP3    H239498   5.525   2.386  11.940 -0.0019 -0.6753 -3.6672
 6003TIP3   OH239499   2.733   6.372  17.074 -0.3639 -0.1671 -0.2715
 6003TIP3    H139500   2.754   6.310  17.144 -0.4215  1.3290  1.0980
 6003TIP3    H239501   2.716   6.317  16.998  0.1400 -1.8073  0.7702
 6004TIP3   OH239502   1.177   0.124  15.839 -0.0949  0.0350  0.6188
 6004TIP3    H139503   1.273   0.125  15.835 -0.0199 -2.2300  1.4102
 6004TIP3    H239504   1.150   0.193  15.778  1.9187 -2.9543 -3.8683
 6005TIP3   OH239505   2.008   4.211  14.131 -0.1545  0.1478  0.7867
 6005TIP3    H139506   2.084   4.263  14.155 -0.2811  0.6130  0.1906
 6005TIP3    H239507   2.035   4.163  14.053  0.2460 -1.3391  1.8296
 6006TIP3   OH239508   0.926   5.260   3.115  0.9128 -0.4568 -0.3662
 6006TIP3    H139509   0.852   5.285   3.060  1.3826  1.9863  0.0820
 6006TIP3    H239510   0.902   5.290   3.203  1.7635 -1.0721  0.0890
 6007TIP3   OH239511   5.684   6.257   2.226 -0.2327  0.5600 -0.5019
 6007TIP3    H139512   5.641   6.172   2.218  0.4638  0.3435 -2.0658
 6007TIP3    H239513   5.646   6.295   2.305 -1.2659 -0.7864 -0.3234
 6008TIP3   OH239514   2.078   4.152   0.133 -0.6300  0.0005  0.3672
 6008TIP3    H139515   2.155   4.190   0.176 -0.9869 -0.1471  1.1435
 6008TIP3    H239516   2.112   4.074   0.089 -0.1036  0.6111 -0.3315
 6009TIP3   OH239517   2.789   0.032  17.074 -0.0324  0.1434 -0.2129
 6009TIP3    H139518   2.785  -0.058  17.040  0.2117  0.1519 -0.2650
 6009TIP3    H239519   2.787   0.087  16.996 -1.0122  0.2125 -0.1511
 6010TIP3   OH239520   4.113   3.466  17.024 -0.5834 -0.0310 -0.0328
 6010TIP3    H139521   4.080   3.461  17.113  0.6489 -0.6279  0.4032
 6010TIP3    H239522   4.058   3.532  16.981 -2.3933 -1.0786  0.6189
 6011TIP3   OH239523   5.827   3.573  11.365 -0.1651 -0.2051  0.1610
 6011TIP3    H139524   5.788   3.656  11.392  0.6152  0.2031  0.0567
 6011TIP3    H239525   5.763   3.534  11.306 -1.5023 -0.7011  1.8942
 6012TIP3   OH239526   1.475   5.558  14.870  0.5761 -0.2702 -0.8830
 6012TIP3    H139527   1.399   5.616  14.872 -0.2523 -1.3400  1.4671
 6012TIP3    H239528   1.481   5.529  14.779 -0.0879  2.0564 -1.6930
 6013TIP3   OH239529   2.673   4.514   2.303  0.3637 -0.5662  0.7276
 6013TIP3    H139530   2.693   4.577   2.235 -2.8285 -0.4063 -0.1508
 6013TIP3    H239531   2.716   4.433   2.274  1.9706  0.4154  0.3409
 6014TIP3   OH239532   1.161   2.139  17.050  0.0215  0.1416  0.1357
 6014TIP3    H139533   1.074   2.177  17.045 -0.1968 -0.5280 -1.6077
 6014TIP3    H239534   1.219   2.204  17.012  0.1812  0.2736  0.5978
 6015TIP3   OH239535   3.524   1.767   4.116 -0.4332 -0.5503  0.4466
 6015TIP3    H139536   3.471   1.754   4.195 -0.9968 -0.3641  0.1070
 6015TIP3    H239537   3.469   1.733   4.045  0.0951 -0.7712  0.1424
 6016TIP3   OH239538   1.679   2.932   5.908  0.2967  0.6730 -0.2874
 6016TIP3    H139539   1.669   3.020   5.943  0.1733  0.0867  1.2177
 6016TIP3    H239540   1.773   2.921   5.895  0.4553  0.5105  0.9489
 6017TIP3   OH239541   0.558   3.036  12.536  0.2539  0.0127  0.2059
 6017TIP3    H139542   0.504   3.112  12.559  0.5813  0.5824 -0.8692
 6017TIP3    H239543   0.500   2.982  12.482  0.3024 -0.0666  0.2332
 6018TIP3   OH239544   1.782   5.431   5.550 -0.3492  0.1738  0.3445
 6018TIP3    H139545   1.777   5.522   5.520  0.8657 -0.0052 -0.4264
 6018TIP3    H239546   1.710   5.423   5.613 -0.9724  1.4375 -0.1844
 6019TIP3   OH239547   1.064   0.965  13.185 -0.2171  0.4210 -0.2564
 6019TIP3    H139548   1.125   1.032  13.154  0.6608 -0.4391 -0.4185
 6019TIP3    H239549   1.105   0.882  13.162 -0.3524 -0.2256  1.7004
 6020TIP3   OH239550   2.515   2.363  11.073  0.5660  0.5406 -0.8708
 6020TIP3    H139551   2.489   2.360  10.981 -0.1264 -0.6016 -0.6474
 6020TIP3    H239552   2.586   2.300  11.080 -1.8593 -2.2079  0.1124
 6021TIP3   OH239553   3.798   3.134  16.938 -0.0610  0.1346 -0.0292
 6021TIP3    H139554   3.864   3.075  16.902 -0.3210  0.4545 -1.0652
 6021TIP3    H239555   3.794   3.206  16.874  0.3348  1.3337  1.2529
 6022TIP3   OH239556   3.116   5.172  14.742  0.4828  0.0387  0.5484
 6022TIP3    H139557   3.194   5.205  14.696  0.6855 -0.2953  0.6474
 6022TIP3    H239558   3.110   5.227  14.820  0.1222  0.6229  0.1089
 6023TIP3   OH239559   2.860   5.331  14.406 -0.6496  0.5503  0.0663
 6023TIP3    H139560   2.820   5.252  14.442  1.2202 -0.5436 -0.1530
 6023TIP3    H239561   2.836   5.330  14.313 -0.0593 -0.1495 -0.0869
 6024TIP3   OH239562   6.718   2.610   1.135  0.0721  0.1559 -0.6032
 6024TIP3    H139563   6.703   2.682   1.196  1.1475  2.4351 -2.9367
 6024TIP3    H239564   6.812   2.593   1.140 -0.3656 -2.0886  0.9437
 6025TIP3   OH239565   6.010   1.140   1.824  0.2807 -0.2695  0.0461
 6025TIP3    H139566   6.049   1.065   1.868  0.6595  0.4921  1.0213
 6025TIP3    H239567   5.943   1.102   1.768  0.2401 -1.3071  0.7809
 6026TIP3   OH239568   2.263   2.035  15.824 -0.1030  0.4695 -0.0424
 6026TIP3    H139569   2.209   2.075  15.893  1.0161 -0.3513  1.3331
 6026TIP3    H239570   2.340   2.091  15.818  1.8873 -1.8240  2.4947
 6027TIP3   OH239571   2.665   2.059  13.064 -0.2509  0.5780 -0.2540
 6027TIP3    H139572   2.593   2.063  13.127  0.2167  3.3512  0.1427
 6027TIP3    H239573   2.643   2.122  12.996 -0.8221 -2.5019 -3.0556
 6028TIP3   OH239574   0.799   6.097   2.132 -0.0476 -0.0507  0.0444
 6028TIP3    H139575   0.755   6.025   2.176 -0.2144  0.5789  0.9129
 6028TIP3    H239576   0.792   6.076   2.039 -0.7330 -0.7862  0.2607
 6029TIP3   OH239577   3.361   2.367  12.565  0.4810 -0.3063  0.1456
 6029TIP3    H139578   3.289   2.311  12.595  0.9838 -0.2295  1.5183
 6029TIP3    H239579   3.403   2.317  12.495 -1.3344 -0.0446 -1.1959
 6030TIP3   OH239580   0.908   5.392   0.124  0.5662 -0.0592 -0.8749
 6030TIP3    H139581   0.899   5.411   0.218 -0.7130  1.3446 -1.2556
 6030TIP3    H239582   0.837   5.331   0.105  0.9184 -0.4610 -0.8975
 6031TIP3   OH239583   0.174   4.609   4.946 -0.4790 -0.3195  0.1519
 6031TIP3    H139584   0.154   4.683   5.003 -1.9970  0.7173 -1.6657
 6031TIP3    H239585   0.154   4.532   5.000 -0.5717  0.6050  1.4727
 6032TIP3   OH239586   5.570   6.717  15.428  0.2329  0.0246  0.5473
 6032TIP3    H139587   5.552   6.765  15.348 -0.7111  0.2919  0.9167
 6032TIP3    H239588   5.567   6.625  15.402  1.9774  0.1453 -0.1457
 6033TIP3   OH239589   3.051   5.659  13.654  0.1569  0.3281  0.3910
 6033TIP3    H139590   3.107   5.665  13.731 -0.7016  0.2162  1.0326
 6033TIP3    H239591   3.111   5.665  13.580  0.9919  0.3929  1.0689
 6034TIP3   OH239592   3.587   5.064  14.473 -0.3201 -0.1199  0.1351
 6034TIP3    H139593   3.629   5.012  14.541 -0.5969  0.2276  0.5731
 6034TIP3    H239594   3.512   5.011  14.445 -0.6164  0.0571  0.5970
 6035TIP3   OH239595   3.277   6.224  16.358  0.3004  0.1585 -0.0638
 6035TIP3    H139596   3.280   6.254  16.267 -0.4549  1.3881  0.3142
 6035TIP3    H239597   3.198   6.170  16.362 -0.1190  0.7819  0.0707
 6036TIP3   OH239598   2.061   5.958  13.640  0.5443 -0.7631 -0.0068
 6036TIP3    H139599   2.117   6.023  13.598  0.7390 -0.7127  0.3359
 6036TIP3    H239600   1.999   5.933  13.571  1.3009 -1.1936 -0.5374
 6037TIP3   OH239601   5.723   5.757  15.164 -0.1505 -0.0841 -0.2305
 6037TIP3    H139602   5.746   5.704  15.241  3.7971 -1.2584 -2.1181
 6037TIP3    H239603   5.761   5.843  15.181  0.2384 -0.1796 -0.6089
 6038TIP3   OH239604   4.243   1.163  14.983  0.0884  0.3074 -0.1135
 6038TIP3    H139605   4.287   1.078  14.992  0.6826  0.5012 -1.1097
 6038TIP3    H239606   4.255   1.187  14.891 -0.1258  1.4463  0.1421
 6039TIP3   OH239607   3.235   4.275   0.348 -0.5582  0.4590 -0.2465
 6039TIP3    H139608   3.221   4.204   0.285 -1.6203 -0.3522  0.8712
 6039TIP3    H239609   3.227   4.355   0.296  0.1672 -0.2232 -1.4339
 6040TIP3   OH239610   2.597   1.927  15.825 -0.3668 -0.2739  0.0272
 6040TIP3    H139611   2.519   1.871  15.821  0.7164 -2.0070  2.0876
 6040TIP3    H239612   2.632   1.925  15.736 -0.7097 -2.3554 -0.0870
 6041TIP3   OH239613   1.335   6.761  16.952  0.0053  0.5442  0.2746
 6041TIP3    H139614   1.244   6.765  16.982 -0.2517  2.5442 -0.6908
 6041TIP3    H239615   1.338   6.686  16.893 -1.0662  0.5863  0.1643
 6042TIP3   OH239616   1.305   3.814   3.819 -0.1214 -0.6425  0.1154
 6042TIP3    H139617   1.362   3.737   3.826  0.3987 -0.6004 -2.8887
 6042TIP3    H239618   1.361   3.881   3.780 -1.2243  0.5595  0.5603
 6043TIP3   OH239619   1.418   1.603  15.847 -0.5686 -0.3609  0.0814
 6043TIP3    H139620   1.330   1.577  15.820 -0.5351 -1.0672  0.6306
 6043TIP3    H239621   1.476   1.568  15.780 -0.9267  2.6904 -1.9202
 6044TIP3   OH239622   4.131   3.254  15.116  0.1460 -0.0184 -0.4220
 6044TIP3    H139623   4.079   3.220  15.190  0.0383  1.5381  0.2341
 6044TIP3    H239624   4.074   3.242  15.040 -0.9161  1.0511  0.1927
 6045TIP3   OH239625   0.313   5.555  16.549  0.2541 -0.1800  0.6455
 6045TIP3    H139626   0.255   5.546  16.473  0.7150 -1.4975  0.4360
 6045TIP3    H239627   0.306   5.470  16.594  1.8374 -0.2581  0.7506
 6046TIP3   OH239628   3.575   2.390  14.054  0.8361 -0.2181  0.0858
 6046TIP3    H139629   3.656   2.394  14.003  0.2451 -0.8739 -0.9219
 6046TIP3    H239630   3.602   2.354  14.139  1.3358 -2.1318 -0.8506
 6047TIP3   OH239631   2.922   1.950  16.011  0.2752 -0.4402 -0.3091
 6047TIP3    H139632   2.994   1.945  16.075  0.0597 -1.2030 -0.1251
 6047TIP3    H239633   2.864   1.878  16.034 -0.2699 -0.1670 -0.8096
 6048TIP3   OH239634   0.052   0.127  15.284 -0.6177  0.4617 -0.0207
 6048TIP3    H139635   0.134   0.125  15.333  0.0739 -0.8717 -1.1787
 6048TIP3    H239636   0.001   0.053  15.319 -0.4928  0.0640 -0.6656
 6049TIP3   OH239637   2.250   6.619   1.688 -0.2401  0.0052  0.6314
 6049TIP3    H139638   2.173   6.563   1.680 -0.9513  0.7611  2.1330
 6049TIP3    H239639   2.226   6.700   1.644  0.5980 -0.6382 -1.0625
 6050TIP3   OH239640   5.418   3.639  16.398 -0.0362 -0.3280  0.2249
 6050TIP3    H139641   5.474   3.716  16.388  0.6804 -0.8996 -0.2456
 6050TIP3    H239642   5.450   3.596  16.478  0.1018 -0.5692  0.0411
 6051TIP3   OH239643   4.826   1.843   3.825 -0.4021 -0.3301 -0.2764
 6051TIP3    H139644   4.863   1.930   3.835  2.0777 -1.3970  0.2957
 6051TIP3    H239645   4.789   1.843   3.736  0.6587  0.9090 -0.7316
 6052TIP3   OH239646   0.560   1.173  10.315  0.5189 -0.4326  0.2771
 6052TIP3    H139647   0.513   1.129  10.244 -2.6213 -0.2183  2.1162
 6052TIP3    H239648   0.589   1.102  10.372  0.0733 -0.4313  0.5097
 6053TIP3   OH239649   4.922   3.740   3.522  0.5732 -0.3780 -0.4543
 6053TIP3    H139650   4.883   3.710   3.603 -0.6579  0.4503 -0.7352
 6053TIP3    H239651   4.905   3.670   3.459 -1.6236  0.5329 -0.9104
 6054TIP3   OH239652   0.872   4.448  14.227  0.0256  0.9993  0.3840
 6054TIP3    H139653   0.942   4.446  14.292  0.1340 -0.5003  0.2358
 6054TIP3    H239654   0.862   4.541  14.206  1.9260  1.2580  0.4576
 6055TIP3   OH239655   6.198   4.425   1.375  0.2980  0.0239 -0.2055
 6055TIP3    H139656   6.140   4.359   1.336  1.3703 -0.8149 -0.4105
 6055TIP3    H239657   6.225   4.386   1.458  1.8090 -0.2826 -0.8307
 6056TIP3   OH239658   5.820   5.782  11.302 -0.1934 -0.6971  0.0912
 6056TIP3    H139659   5.835   5.790  11.208  0.4037  0.6476  0.2921
 6056TIP3    H239660   5.815   5.872  11.333 -0.4132 -1.1369  1.3506
 6057TIP3   OH239661   6.392   4.005   5.569  0.1538  0.0314 -0.1171
 6057TIP3    H139662   6.440   4.057   5.633  1.6496 -0.7705 -0.5352
 6057TIP3    H239663   6.452   4.000   5.493 -0.3616 -1.4405 -0.4507
 6058TIP3   OH239664   4.833   6.436  14.993  0.0806  0.1541 -0.6470
 6058TIP3    H139665   4.881   6.373  14.940  1.6794  1.0961 -0.3805
 6058TIP3    H239666   4.880   6.519  14.980 -0.6424  0.8035  0.7427
 6059TIP3   OH239667   6.027   2.392  10.659  0.0934 -0.2062 -0.0740
 6059TIP3    H139668   5.987   2.437  10.584  1.1984 -2.3325 -1.9746
 6059TIP3    H239669   5.956   2.339  10.695 -0.3383  0.5207  0.1603
 6060TIP3   OH239670   4.011   0.416   2.113  0.2070 -0.7041 -0.0536
 6060TIP3    H139671   3.977   0.367   2.187  0.4863 -0.6752  0.0960
 6060TIP3    H239672   4.032   0.350   2.047 -0.7038 -0.6688 -0.3735
 6061TIP3   OH239673   5.808   4.074   3.735  0.5755 -0.2689  0.2122
 6061TIP3    H139674   5.748   4.143   3.764  0.0115 -0.6943  0.0477
 6061TIP3    H239675   5.787   4.061   3.643  0.9984 -0.3359  0.1241
 6062TIP3   OH239676   0.341   1.826  15.992 -0.4718 -0.4651  0.0949
 6062TIP3    H139677   0.401   1.862  16.057 -0.5163  0.1269 -0.1910
 6062TIP3    H239678   0.307   1.902  15.946 -0.1927 -0.9062 -0.8445
 6063TIP3   OH239679   0.626   4.389  14.695 -0.1162 -0.0309 -0.1441
 6063TIP3    H139680   0.553   4.443  14.725 -0.6485  0.6237 -2.4691
 6063TIP3    H239681   0.666   4.355  14.775 -0.0103  3.4980  1.4109
 6064TIP3   OH239682   5.333   3.620   5.878  0.2667 -0.3041  0.1321
 6064TIP3    H139683   5.336   3.524   5.871 -1.7961 -0.2497 -1.8184
 6064TIP3    H239684   5.240   3.642   5.873  0.7642  1.8492 -0.0285
 6065TIP3   OH239685   5.348   2.473  16.748 -0.4275  0.2011 -0.2897
 6065TIP3    H139686   5.376   2.423  16.671 -2.0828  2.1791 -2.2285
 6065TIP3    H239687   5.424   2.525  16.772 -0.8113  1.7776 -2.4202
 6066TIP3   OH239688   4.172   0.579   3.009  0.3940 -0.5607  0.0673
 6066TIP3    H139689   4.133   0.575   3.097  0.4327  1.2981  0.1831
 6066TIP3    H239690   4.097   0.585   2.950  0.4180  2.5322  0.2622
 6067TIP3   OH239691   4.034   2.031  16.108  0.2848  0.1582 -0.2387
 6067TIP3    H139692   4.093   2.106  16.123  0.5070  0.0012 -0.3243
 6067TIP3    H239693   4.093   1.957  16.096  0.0530 -0.0953  0.2021
 6068TIP3   OH239694   2.980   2.506  14.857  0.4380 -0.8413  0.1078
 6068TIP3    H139695   3.042   2.433  14.846  0.4912 -0.8673  0.5786
 6068TIP3    H239696   3.015   2.556  14.931  1.2776  0.5522 -1.2094
 6069TIP3   OH239697   2.298   4.669   3.098 -0.0444  0.3389  0.0380
 6069TIP3    H139698   2.390   4.676   3.072  0.4468 -1.0977  1.3316
 6069TIP3    H239699   2.259   4.612   3.032  0.3707 -0.3706  0.3981
 6070TIP3   OH239700   2.422   5.008  12.202  0.5649  0.1873 -0.3082
 6070TIP3    H139701   2.333   4.991  12.173  0.4170  0.6332 -0.1108
 6070TIP3    H239702   2.418   5.094  12.245  0.5193 -0.9330  2.0367
 6071TIP3   OH239703   2.270   6.470  13.256 -0.2426 -0.0086  0.9097
 6071TIP3    H139704   2.259   6.453  13.162  2.5821  0.1483  0.5127
 6071TIP3    H239705   2.231   6.557  13.269  0.0379  0.3058 -0.2760
 6072TIP3   OH239706   1.402   1.420   4.744  0.3607  0.0396 -0.6143
 6072TIP3    H139707   1.426   1.506   4.708  1.4741 -0.2297 -0.5147
 6072TIP3    H239708   1.336   1.440   4.811  1.6582  0.9637  0.4260
 6073TIP3   OH239709   4.271   1.170  13.287 -0.3840 -0.6072 -0.3342
 6073TIP3    H139710   4.288   1.250  13.238 -0.8646 -0.3666 -0.1063
 6073TIP3    H239711   4.344   1.164  13.348  1.3028 -1.9708 -2.4250
 6074TIP3   OH239712   2.768   5.843   5.856 -0.1291  0.1314 -0.7962
 6074TIP3    H139713   2.847   5.897   5.862  1.2580 -1.9695  0.3351
 6074TIP3    H239714   2.732   5.842   5.944 -0.0795 -0.9257 -0.7924
 6075TIP3   OH239715   2.344   5.386   5.633  0.2708 -0.2451  0.2665
 6075TIP3    H139716   2.266   5.440   5.619 -0.9939 -1.9279  0.6876
 6075TIP3    H239717   2.324   5.336   5.712  1.0907 -1.8875 -0.5350
 6076TIP3   OH239718   4.553   3.513   4.063 -0.2274 -0.1152  0.2217
 6076TIP3    H139719   4.480   3.456   4.040  0.2760  0.2352 -2.3008
 6076TIP3    H239720   4.609   3.458   4.119 -1.7272 -0.7884  1.1143
 6077TIP3   OH239721   6.492   2.334   5.259 -0.3843 -0.3724  0.1937
 6077TIP3    H139722   6.407   2.377   5.254  0.6899  1.6804 -0.9163
 6077TIP3    H239723   6.514   2.311   5.169  0.8842  0.4824  0.2546
 6078TIP3   OH239724   1.114   2.005   0.864  0.7216 -0.2456  0.3808
 6078TIP3    H139725   1.088   1.979   0.776 -2.5310  0.1582  1.1433
 6078TIP3    H239726   1.135   1.923   0.908 -1.6075 -0.8601  0.3936
 6079TIP3   OH239727   4.504   1.396   1.614  0.1587 -0.4183  0.3982
 6079TIP3    H139728   4.553   1.443   1.547  1.8007 -1.1713  1.0231
 6079TIP3    H239729   4.448   1.462   1.654  0.9550  0.5669 -0.0914
 6080TIP3   OH239730   5.828   6.208  10.744  0.1623 -0.2744  0.3445
 6080TIP3    H139731   5.915   6.169  10.736 -0.5084 -1.5374 -1.3169
 6080TIP3    H239732   5.826   6.276  10.677  0.0258  0.0469  0.6753
 6081TIP3   OH239733   4.561   6.733   3.042  0.0541  0.3307  0.5606
 6081TIP3    H139734   4.501   6.705   2.973  0.4738 -0.5985  0.5755
 6081TIP3    H239735   4.528   6.691   3.121  1.5531 -1.3348  0.3156
 6082TIP3   OH239736   2.661   1.370   1.388 -0.2895 -0.1585 -0.0902
 6082TIP3    H139737   2.588   1.334   1.338 -0.4203 -0.6535  0.4529
 6082TIP3    H239738   2.629   1.373   1.478 -0.4539  1.7907 -0.1985
 6083TIP3   OH239739   3.004   1.609   5.562  0.1202  0.9608  0.0957
 6083TIP3    H139740   3.081   1.555   5.577  0.2850  1.1721  0.0170
 6083TIP3    H239741   2.957   1.609   5.645 -0.6307 -0.4921 -0.3234
 6084TIP3   OH239742   0.786   6.645  11.073 -0.1836 -0.0115  0.0464
 6084TIP3    H139743   0.719   6.602  11.019  0.4990  1.0717 -1.7027
 6084TIP3    H239744   0.745   6.654  11.159 -1.3064 -1.7477 -0.2809
 6085TIP3   OH239745   3.288   5.293   1.759 -0.5602 -0.1250  0.0831
 6085TIP3    H139746   3.289   5.213   1.812 -1.3436  0.7382  1.4455
 6085TIP3    H239747   3.200   5.297   1.723 -0.6778  0.3551  0.4089
 6086TIP3   OH239748   1.107   5.575   5.024  0.0822  0.0002  0.3540
 6086TIP3    H139749   1.072   5.513   5.088  2.0294  0.0893  1.5455
 6086TIP3    H239750   1.200   5.556   5.022  0.7911  3.2183  1.1013
 6087TIP3   OH239751   1.479   4.798  12.464  0.3380  0.1024  0.1350
 6087TIP3    H139752   1.440   4.753  12.389 -0.0057  2.0723 -0.9287
 6087TIP3    H239753   1.410   4.859  12.493  1.1799  0.7635  0.7805
 6088TIP3   OH239754   6.683   2.557   3.472  0.6930 -0.0800  0.4057
 6088TIP3    H139755   6.651   2.624   3.532  0.6559  3.2181 -3.1329
 6088TIP3    H239756   6.775   2.580   3.457  0.5636 -0.5487 -1.2113
 6089TIP3   OH239757   5.203   4.287   3.627  0.0014  0.5747 -0.5595
 6089TIP3    H139758   5.135   4.303   3.691  2.3736  0.0561  2.2075
 6089TIP3    H239759   5.226   4.373   3.592 -1.2731  0.8558 -0.6970
 6090TIP3   OH239760   5.623   1.612  11.757 -0.0943 -0.0639  0.1854
 6090TIP3    H139761   5.576   1.536  11.724  1.0889 -0.4212 -0.7102
 6090TIP3    H239762   5.712   1.580  11.774  0.0690  0.8114  0.9792
 6091TIP3   OH239763   3.708   4.591  12.565  0.4426  0.0965  0.0023
 6091TIP3    H139764   3.648   4.648  12.612 -0.7569 -2.5794  1.8868
 6091TIP3    H239765   3.653   4.546  12.501  0.0554 -3.2803  2.5636
 6092TIP3   OH239766   2.332   4.924  11.270 -0.3121 -0.1857  0.0042
 6092TIP3    H139767   2.389   4.917  11.346  1.0087  0.5260 -0.8911
 6092TIP3    H239768   2.344   4.841  11.223 -1.6649 -0.9177  0.9098
 6093TIP3   OH239769   3.554   6.674  11.829  0.1271 -0.1051  0.3655
 6093TIP3    H139770   3.505   6.747  11.790 -0.1027  0.1910  1.1900
 6093TIP3    H239771   3.641   6.679  11.789 -0.1133  0.1691 -0.1262
 6094TIP3   OH239772   2.919   4.345  14.830  0.1790  0.6310 -0.1241
 6094TIP3    H139773   2.925   4.272  14.768 -0.2434  0.2839  0.2447
 6094TIP3    H239774   3.009   4.359  14.858  0.0956 -0.6871  0.8809
 6095TIP3   OH239775   0.332   6.250  11.717  0.3311  0.3148 -0.3968
 6095TIP3    H139776   0.407   6.301  11.686  0.1401  1.5354  1.0844
 6095TIP3    H239777   0.291   6.217  11.637  2.1220  0.0763 -1.2558
 6096TIP3   OH239778   5.853   6.449  14.612 -0.1166  0.7436 -0.7171
 6096TIP3    H139779   5.915   6.520  14.628 -1.6308  2.0850 -0.7942
 6096TIP3    H239780   5.860   6.431  14.518  1.2971 -0.2006 -0.4538
 6097TIP3   OH239781   3.580   6.267   2.464  0.2051  1.0934 -0.3564
 6097TIP3    H139782   3.655   6.217   2.430 -1.5745 -1.9180 -0.0316
 6097TIP3    H239783   3.537   6.301   2.386  0.9197  1.3620 -0.6397
 6098TIP3   OH239784   0.868   0.305  14.717  0.3820  0.4136 -0.3512
 6098TIP3    H139785   0.874   0.311  14.812 -1.4453 -0.4629 -0.1574
 6098TIP3    H239786   0.931   0.369  14.685  1.0138  0.7226  1.4507
 6099TIP3   OH239787   6.217   0.064   0.298 -0.3909 -0.2078 -0.3033
 6099TIP3    H139788   6.210   0.071   0.202 -2.0855  1.9150 -0.0844
 6099TIP3    H239789   6.131   0.033   0.326 -0.1743 -0.0295  0.5794
 6100TIP3   OH239790   5.443   4.385   2.218  0.1022  0.3622 -0.7528
 6100TIP3    H139791   5.388   4.352   2.289  0.5627  1.0862 -0.0544
 6100TIP3    H239792   5.439   4.317   2.151 -0.6972 -0.1220 -0.2217
 6101TIP3   OH239793   0.826   2.788  13.463  0.5667 -0.2601 -0.2952
 6101TIP3    H139794   0.782   2.834  13.392 -0.8127 -1.8054 -0.4849
 6101TIP3    H239795   0.766   2.794  13.537  1.1245 -0.3136  0.1638
 6102TIP3   OH239796   4.745   0.709   2.442  0.2787 -0.2335 -0.5276
 6102TIP3    H139797   4.782   0.648   2.378 -0.2345  0.6022 -1.6457
 6102TIP3    H239798   4.816   0.770   2.461  0.0070  0.3596 -1.3842
 6103TIP3   OH239799   5.853   6.524  13.699 -0.3211  0.3036 -0.0051
 6103TIP3    H139800   5.782   6.520  13.763  0.0409  0.4295  0.4055
 6103TIP3    H239801   5.831   6.457  13.635 -0.1161 -0.5726  0.8379
 6104TIP3   OH239802   2.992   2.334  15.149 -0.2300  0.3291  0.3660
 6104TIP3    H139803   3.044   2.254  15.142  0.4583  0.5413  2.3975
 6104TIP3    H239804   2.912   2.307  15.193 -0.6920  0.4742 -0.3880
 6105TIP3   OH239805   5.015   6.614  13.813  0.0611  0.8076  0.3442
 6105TIP3    H139806   4.992   6.530  13.851  0.8327 -0.6829 -2.3334
 6105TIP3    H239807   5.082   6.649  13.872  1.3212 -1.4675  0.3330
 6106TIP3   OH239808   1.452   3.030  13.125  0.4331 -0.3066  0.3021
 6106TIP3    H139809   1.527   2.984  13.089 -0.5210 -1.2986 -0.4373
 6106TIP3    H239810   1.397   3.050  13.050 -0.4965 -0.4071  0.9436
 6107TIP3   OH239811   2.705   0.756  13.557 -0.4071  0.4133  0.8656
 6107TIP3    H139812   2.770   0.825  13.547 -0.3957  0.2120 -0.4840
 6107TIP3    H239813   2.756   0.676  13.568 -0.3483 -0.1698 -2.9563
 6108TIP3   OH239814   1.540   2.641  16.260 -0.2848  0.4093  0.1712
 6108TIP3    H139815   1.516   2.700  16.332 -0.5683 -0.7143  1.0007
 6108TIP3    H239816   1.490   2.562  16.277 -0.2729  0.1003 -1.2194
 6109TIP3   OH239817   5.023   0.997  16.963 -0.1850  0.1575  0.1518
 6109TIP3    H139818   5.068   0.925  16.918 -0.6307 -0.6678  1.0308
 6109TIP3    H239819   5.073   1.011  17.043 -0.4232  0.4628  0.2490
 6110TIP3   OH239820   1.159   5.955   0.723 -0.0199 -0.3572 -0.1131
 6110TIP3    H139821   1.148   5.866   0.687  1.2761 -0.2846 -0.7167
 6110TIP3    H239822   1.145   5.944   0.817  1.2383 -1.4278 -0.0293
 6111TIP3   OH239823   1.740   6.429  14.028 -0.1119  0.7412  0.1209
 6111TIP3    H139824   1.810   6.489  14.055  0.9159 -0.6103  0.4601
 6111TIP3    H239825   1.744   6.427  13.933  1.0584 -0.2210  0.1866
 6112TIP3   OH239826   0.843   1.704   5.452 -0.3998  0.1131 -0.3890
 6112TIP3    H139827   0.928   1.694   5.495 -0.3641  0.5813 -0.3484
 6112TIP3    H239828   0.856   1.666   5.365 -0.4351 -0.7111 -0.0432
 6113TIP3   OH239829   0.988   6.450   5.368 -0.5266  0.0068  0.3097
 6113TIP3    H139830   0.973   6.357   5.353  0.8377 -0.3636  1.1702
 6113TIP3    H239831   0.960   6.492   5.287  0.0352 -1.2779 -0.5675
 6114TIP3   OH239832   4.577   1.445  14.836 -0.1423  0.1219 -0.0748
 6114TIP3    H139833   4.514   1.478  14.772  1.4147  0.0813 -1.6268
 6114TIP3    H239834   4.659   1.435  14.788  1.4119  1.3612  2.2081
 6115TIP3   OH239835   1.471   4.110  16.212 -0.6554  0.4689 -0.3864
 6115TIP3    H139836   1.461   4.205  16.203  2.3762  0.7419 -1.5017
 6115TIP3    H239837   1.530   4.085  16.141 -0.6022 -2.1131  0.5019
 6116TIP3   OH239838   2.462   2.844  13.549  0.2693 -0.3192  0.6621
 6116TIP3    H139839   2.379   2.808  13.580  0.0860 -0.0850  0.4490
 6116TIP3    H239840   2.439   2.892  13.470  0.2249  1.7038  1.8685
 6117TIP3   OH239841   2.492   4.955  11.913 -0.2637 -0.0844  0.5555
 6117TIP3    H139842   2.441   4.989  11.986  0.3404  1.8237  0.1375
 6117TIP3    H239843   2.565   4.908  11.954 -0.3735  0.2840  1.1693
 6118TIP3   OH239844   0.526   5.519   0.258 -0.0256 -0.2640  0.3688
 6118TIP3    H139845   0.460   5.588   0.252 -0.2725 -0.4700  0.6851
 6118TIP3    H239846   0.609   5.566   0.272 -0.1462 -0.0183  0.2481
 6119TIP3   OH239847   2.955   3.470  13.182  0.0068 -0.2879  0.8665
 6119TIP3    H139848   3.042   3.464  13.142 -0.2848 -0.0414  0.1913
 6119TIP3    H239849   2.895   3.468  13.108 -0.5830 -0.8897  1.3666
 6120TIP3   OH239850   3.939   5.270   3.251  0.2367  0.0075  0.0942
 6120TIP3    H139851   3.968   5.268   3.342  2.8146 -1.5509 -0.7025
 6120TIP3    H239852   4.019   5.280   3.201 -1.2201  1.5835 -2.0105
 6121TIP3   OH239853   0.062   1.830   6.281 -0.0702 -0.0390  0.2636
 6121TIP3    H139854   0.066   1.799   6.190  0.0847 -0.1771  0.3171
 6121TIP3    H239855   0.095   1.756   6.333 -0.1398  0.0465  0.4309
 6122TIP3   OH239856   1.733   2.055   3.385 -0.3580  0.3027 -0.2381
 6122TIP3    H139857   1.718   1.992   3.455 -0.2772  2.1397  1.4861
 6122TIP3    H239858   1.674   2.028   3.315 -0.5107 -1.5198  0.5553
 6123TIP3   OH239859   2.329   1.706   0.705 -0.2362 -0.2778  0.0669
 6123TIP3    H139860   2.313   1.765   0.632 -3.4902 -1.6547 -0.4137
 6123TIP3    H239861   2.417   1.672   0.690 -0.6135 -0.0411 -2.8629
 6124TIP3   OH239862   4.533   5.760   6.780  0.4493 -0.1024 -0.2047
 6124TIP3    H139863   4.598   5.821   6.744  1.3861 -0.0008  1.5836
 6124TIP3    H239864   4.557   5.675   6.744  0.4234  0.2515 -1.0559
 6125TIP3   OH239865   5.973   0.346   3.232 -0.6002 -0.0359  0.1739
 6125TIP3    H139866   5.897   0.301   3.268 -1.2789 -0.1173 -1.3039
 6125TIP3    H239867   5.951   0.359   3.140  0.7638  0.8316 -0.0398
 6126TIP3   OH239868   4.778   2.015   0.732  0.6239 -0.1680 -0.6282
 6126TIP3    H139869   4.724   1.947   0.691 -1.3414  1.0834 -0.1438
 6126TIP3    H239870   4.726   2.047   0.805  2.0230  1.0896 -0.1568
 6127TIP3   OH239871   4.083   0.575   4.528 -0.1646  0.1243  0.4772
 6127TIP3    H139872   4.076   0.502   4.589  1.3068 -1.4766 -1.2301
 6127TIP3    H239873   4.173   0.605   4.536  0.5598 -1.2110 -2.1019
 6128TIP3   OH239874   0.756   1.501  12.912 -0.3825  0.6259  0.2981
 6128TIP3    H139875   0.754   1.555  12.833  0.5682  0.1048 -0.0799
 6128TIP3    H239876   0.726   1.560  12.981 -1.7222  0.9436 -0.5240
 6129TIP3   OH239877   1.742   4.655  14.202  0.4474 -0.2818 -0.4367
 6129TIP3    H139878   1.738   4.566  14.235  2.1480  0.2140  1.1445
 6129TIP3    H239879   1.832   4.683  14.217 -0.0803  1.7352 -0.8173
 6130TIP3   OH239880   2.797   1.580  14.319  0.0348 -0.2777 -0.1409
 6130TIP3    H139881   2.868   1.529  14.358 -0.8371 -0.1347  1.7192
 6130TIP3    H239882   2.841   1.646  14.266  1.2258 -1.5484 -0.7715
 6131TIP3   OH239883   2.728   3.915   2.005 -0.4129 -0.5110  0.1867
 6131TIP3    H139884   2.748   3.831   1.963 -1.8136  0.6086 -2.9091
 6131TIP3    H239885   2.632   3.920   2.002 -0.2792  1.7854 -0.8754
 6132TIP3   OH239886   2.143   4.783  13.598 -0.2732 -0.7416 -0.0236
 6132TIP3    H139887   2.114   4.761  13.510 -1.5750 -1.7344  0.6299
 6132TIP3    H239888   2.064   4.775  13.652  0.2009  1.1616  1.0039
 6133TIP3   OH239889   0.904   4.111  12.689  0.0492  0.6747  0.1817
 6133TIP3    H139890   0.824   4.157  12.665  0.1811 -0.1309 -1.9366
 6133TIP3    H239891   0.884   4.018  12.676  0.9975  0.3907  0.6489
 6134TIP3   OH239892   4.797   3.738   2.220 -0.4400 -0.5693 -0.4342
 6134TIP3    H139893   4.775   3.647   2.200  1.3039 -1.2452  0.6796
 6134TIP3    H239894   4.881   3.753   2.179  0.4936 -0.2541  1.5163
 6135TIP3   OH239895   1.276   1.883  16.395 -0.1465  0.1990  0.2392
 6135TIP3    H139896   1.241   1.944  16.330  0.6349  1.6022  1.1200
 6135TIP3    H239897   1.217   1.808  16.391 -1.5010  1.2763 -0.4096
 6136TIP3   OH239898   1.539   5.047  11.876  0.3358  0.8179  0.4325
 6136TIP3    H139899   1.535   5.015  11.966 -0.2650  2.7045  1.0984
 6136TIP3    H239900   1.549   4.968  11.823 -2.1673 -0.5903  1.9286
 6137TIP3   OH239901   6.096   1.902   0.344 -0.3225 -0.0945  0.0385
 6137TIP3    H139902   6.187   1.930   0.347 -0.0108 -1.0736  0.0199
 6137TIP3    H239903   6.090   1.850   0.263 -1.0272  0.4261 -0.2443
 6138TIP3   OH239904   1.163   6.736  12.559 -0.5805 -0.4371 -0.2930
 6138TIP3    H139905   1.146   6.827  12.586 -2.9021 -0.4021 -1.6870
 6138TIP3    H239906   1.128   6.683  12.631 -2.4929 -0.2608 -1.0589
 6139TIP3   OH239907   3.214   6.428   0.085 -0.0481  0.0054  0.1738
 6139TIP3    H139908   3.263   6.437   0.003 -0.2544  0.3722  0.0852
 6139TIP3    H239909   3.248   6.348   0.125  0.7284  0.3384  0.1899
 6140TIP3   OH239910   5.414   6.443   4.417  0.1246 -1.1486 -0.2272
 6140TIP3    H139911   5.371   6.519   4.456  3.4260  0.0698  1.1637
 6140TIP3    H239912   5.394   6.371   4.476 -2.1018 -1.1961 -0.9756
 6141TIP3   OH239913   0.505   5.153   1.526  0.0429 -1.2181  0.1185
 6141TIP3    H139914   0.455   5.176   1.604  0.8184  0.3528  0.1934
 6141TIP3    H239915   0.489   5.225   1.465 -0.2240 -2.2261 -1.0215
 6142TIP3   OH239916   0.469   2.941  14.887 -0.3342 -0.3323  0.4075
 6142TIP3    H139917   0.443   2.920  14.797  0.5668  0.7032 -0.1068
 6142TIP3    H239918   0.388   2.969  14.929 -0.6863 -0.4300 -0.1960
 6143TIP3   OH239919   2.268   4.583   4.863  0.5966  0.1351 -0.2131
 6143TIP3    H139920   2.249   4.631   4.783  0.3252  0.7418  0.2045
 6143TIP3    H239921   2.195   4.605   4.922  1.8605  1.3526  0.9216
 6144TIP3   OH239922   6.729   5.860  11.510  0.0255 -0.4685  0.0144
 6144TIP3    H139923   6.716   5.883  11.417  0.0026  0.5370  0.2555
 6144TIP3    H239924   6.660   5.907  11.556  0.7758  0.0125  0.6674
 6145TIP3   OH239925   1.649   6.746  11.443 -0.7491 -0.2884 -0.7853
 6145TIP3    H139926   1.593   6.686  11.493  0.8061 -1.4353 -0.3708
 6145TIP3    H239927   1.711   6.781  11.508 -1.1430  1.1897 -1.1773
 6146TIP3   OH239928   3.776   2.272   3.531  0.1965  0.5439  0.2106
 6146TIP3    H139929   3.739   2.248   3.446  0.2365  0.5878  0.1805
 6146TIP3    H239930   3.732   2.353   3.555 -0.4258  0.0827  0.6268
 6147TIP3   OH239931   0.906   0.549   4.286 -0.6356 -0.4493  0.4733
 6147TIP3    H139932   0.921   0.510   4.200 -0.9299 -1.7432  1.0013
 6147TIP3    H239933   0.942   0.486   4.348  1.6531  1.5217  1.2150
 6148TIP3   OH239934   3.614   0.019   5.544 -0.1062 -0.0139  0.0839
 6148TIP3    H139935   3.625  -0.031   5.625  1.3069  1.1727  0.6356
 6148TIP3    H239936   3.682  -0.016   5.485  0.9821  1.3302  0.5197
 6149TIP3   OH239937   2.078   0.603  16.748 -0.0118 -0.2239 -0.7162
 6149TIP3    H139938   2.065   0.521  16.700  1.5158 -1.0196  0.1949
 6149TIP3    H239939   1.992   0.646  16.745 -0.4296 -1.1140 -2.5409
 6150TIP3   OH239940   0.333   5.834   1.686 -0.8714 -0.8201 -0.2776
 6150TIP3    H139941   0.414   5.830   1.737 -1.0316 -0.0324  0.0462
 6150TIP3    H239942   0.324   5.746   1.649  0.8212 -0.5554 -1.3798
 6151TIP3   OH239943   5.303   6.411   5.548 -0.3637  0.5792  0.3232
 6151TIP3    H139944   5.349   6.371   5.474 -0.9443 -0.6357  0.6153
 6151TIP3    H239945   5.373   6.434   5.610 -0.1332 -1.4133  0.8362
 6152TIP3   OH239946   3.310   4.475  10.971 -0.5971  0.3783 -0.3013
 6152TIP3    H139947   3.334   4.536  11.041 -2.7307  0.2439  0.6082
 6152TIP3    H239948   3.295   4.530  10.895  2.6108  0.4474 -0.9568
 6153TIP3   OH239949   6.227   4.306  11.138  0.1281 -0.5235 -0.2115
 6153TIP3    H139950   6.244   4.385  11.087 -1.3982 -0.8279 -1.2387
 6153TIP3    H239951   6.262   4.235  11.084  0.9488 -0.6207  0.4317
 6154TIP3   OH239952   5.012   6.382   4.172  0.4033  0.2505  0.2201
 6154TIP3    H139953   5.061   6.340   4.243 -0.8214  0.5822  1.2836
 6154TIP3    H239954   4.934   6.328   4.162 -0.4676  1.4116  0.5864
 6155TIP3   OH239955   0.642   6.493  15.037  0.2482  0.2644  0.0728
 6155TIP3    H139956   0.642   6.411  15.088 -1.8955 -0.0818 -0.4367
 6155TIP3    H239957   0.691   6.472  14.958  1.2726  0.0154  0.7624
 6156TIP3   OH239958   0.350   0.025  13.509  0.4355  0.5267  0.8138
 6156TIP3    H139959   0.443   0.043  13.522  0.5048  0.8722 -0.1182
 6156TIP3    H239960   0.344  -0.006  13.418 -0.2800 -0.0368  1.0433
 6157TIP3   OH239961   4.188   1.460  16.155 -0.0773  0.0106 -0.1353
 6157TIP3    H139962   4.140   1.384  16.122 -0.0089 -0.5362  1.0238
 6157TIP3    H239963   4.278   1.448  16.124  0.3393 -1.2946  1.5384
 6158TIP3   OH239964   6.709   6.660  11.914  0.5057  0.3963  0.1282
 6158TIP3    H139965   6.641   6.721  11.888  0.2068 -0.1135 -0.3069
 6158TIP3    H239966   6.696   6.646  12.007  0.4480  0.8351  0.1852
 6159TIP3   OH239967   2.614   0.357   2.092  0.4038 -0.1314 -0.3897
 6159TIP3    H139968   2.640   0.294   2.026 -1.7062 -1.4178 -0.0364
 6159TIP3    H239969   2.519   0.366   2.081  0.0614 -0.1259  2.1935
 6160TIP3   OH239970   5.264   5.866  11.983 -0.4946 -0.7927 -0.1309
 6160TIP3    H139971   5.285   5.831  11.897  0.9184  0.8107 -0.4630
 6160TIP3    H239972   5.191   5.925  11.968 -0.3683 -0.6561 -0.2134
 6161TIP3   OH239973   2.009   6.166  11.703  0.1257 -0.4599  0.4952
 6161TIP3    H139974   1.967   6.250  11.687 -1.3566 -0.5770  3.4192
 6161TIP3    H239975   2.037   6.136  11.616 -0.9467  2.1670 -0.8097
 6162TIP3   OH239976   0.998   1.886  11.754  0.0700  0.3922  0.3596
 6162TIP3    H139977   0.984   1.880  11.660  3.1544 -0.7263 -0.1162
 6162TIP3    H239978   1.028   1.976  11.769 -2.0830  1.0878  0.5498
 6163TIP3   OH239979   4.143   2.366  14.742  0.4656 -0.0746  0.2539
 6163TIP3    H139980   4.166   2.459  14.741  1.2874 -0.2803 -2.2077
 6163TIP3    H239981   4.213   2.323  14.694  0.2344 -2.0396  1.6093
 6164TIP3   OH239982   2.729   2.927   4.814  0.2502 -0.0887 -0.2110
 6164TIP3    H139983   2.760   3.005   4.862  0.7689 -1.5658  1.9265
 6164TIP3    H239984   2.644   2.908   4.854 -2.2791  2.2782 -4.1398
 6165TIP3   OH239985   6.208   4.493   0.831 -0.1551  0.0382 -0.1491
 6165TIP3    H139986   6.256   4.415   0.803 -0.4729 -0.3537  0.3767
 6165TIP3    H239987   6.274   4.547   0.876  0.2127  0.3816 -1.0847
 6166TIP3   OH239988   6.454   0.855  14.449  0.4577  0.3442  0.3288
 6166TIP3    H139989   6.443   0.913  14.525  0.6519  0.4058  0.3098
 6166TIP3    H239990   6.458   0.915  14.374  0.6779  0.3067  0.3115
 6167TIP3   OH239991   3.796   4.052   3.267  0.4407  0.2002  0.2585
 6167TIP3    H139992   3.772   3.968   3.228 -1.3401  1.2618 -1.0135
 6167TIP3    H239993   3.865   4.086   3.209 -2.6376  2.0683 -2.5381
 6168TIP3   OH239994   0.422   1.093   1.274 -0.4900 -0.4378 -0.4993
 6168TIP3    H139995   0.489   1.123   1.212  0.0838 -3.2525 -1.3287
 6168TIP3    H239996   0.465   1.095   1.359 -0.1074 -0.0142 -0.7012
 6169TIP3   OH239997   2.944   1.848   4.444 -0.7827  0.5407  0.4366
 6169TIP3    H139998   2.923   1.940   4.461 -0.3787  0.6663  0.2551
 6169TIP3    H239999   2.942   1.840   4.349  0.4002  0.6514  0.3988
 6170TIP3   OH240000   1.468   2.565  17.151  0.5526  0.3847 -0.4070
 6170TIP3    H140001   1.419   2.637  17.191  0.5694  0.1825 -0.0234
 6170TIP3    H240002   1.476   2.589  17.058 -4.0877 -1.6479 -1.4677
 6171TIP3   OH240003   3.412   5.359  14.428 -0.5618 -0.3483  0.0919
 6171TIP3    H140004   3.334   5.413  14.415 -0.6861 -0.5174  0.1371
 6171TIP3    H240005   3.419   5.307  14.348  0.1591  0.4856 -0.4047
 6172TIP3   OH240006   2.792   4.509   0.012  0.0736  0.3735 -0.2151
 6172TIP3    H140007   2.854   4.498  -0.060  1.4072 -0.6291  1.0644
 6172TIP3    H240008   2.844   4.547   0.083 -1.0455  0.6026  0.4865
 6173TIP3   OH240009   4.313   0.818   5.736 -0.2664  0.3790  0.2839
 6173TIP3    H140010   4.346   0.804   5.825  1.5098  0.2730 -0.3718
 6173TIP3    H240011   4.377   0.775   5.679 -1.5372  0.2008 -1.0422
 6174TIP3   OH240012   2.552   4.977  13.366  0.0176 -0.2630 -0.1360
 6174TIP3    H140013   2.641   5.006  13.344 -0.4356  2.2761  1.2025
 6174TIP3    H240014   2.565   4.893  13.411  1.8676  0.7320  1.2751
 6175TIP3   OH240015   4.154   3.283  11.550  0.2100 -0.3712  0.1550
 6175TIP3    H140016   4.198   3.367  11.539  2.1160 -1.5713 -1.5890
 6175TIP3    H240017   4.216   3.230  11.599 -0.2254 -1.3556 -0.3540
 6176TIP3   OH240018   0.912   4.702   4.099  0.0219  0.3107  0.2682
 6176TIP3    H140019   0.924   4.649   4.178 -0.4105  0.8527  0.7124
 6176TIP3    H240020   0.949   4.787   4.122 -0.5741  0.6261  0.0753
 6177TIP3   OH240021   2.786   0.424  12.809 -0.2963 -0.2094 -0.3535
 6177TIP3    H140022   2.840   0.473  12.871 -1.2962  0.1450  0.2428
 6177TIP3    H240023   2.696   0.444  12.834 -0.7103 -0.7124 -1.4111
 6178TIP3   OH240024   4.461   4.310   6.274  0.4474  0.2475  0.3407
 6178TIP3    H140025   4.367   4.314   6.259  0.5043 -0.4187 -0.2002
 6178TIP3    H240026   4.490   4.402   6.272  0.2298  0.2966 -2.1708
 6179TIP3   OH240027   2.420   1.755   2.333 -0.5603  0.3509 -0.2266
 6179TIP3    H140028   2.426   1.696   2.408 -0.7435  0.3902 -0.1800
 6179TIP3    H240029   2.366   1.828   2.364 -2.4648 -0.6794 -1.0631
 6180TIP3   OH240030   0.829   5.638   2.914 -0.4399 -0.1038 -1.1126
 6180TIP3    H140031   0.754   5.688   2.948 -1.1045 -0.1601 -2.4483
 6180TIP3    H240032   0.872   5.698   2.853 -2.2700 -1.6836 -4.0736
 6181TIP3   OH240033   3.624   6.783  16.486 -0.8710  0.6017 -0.5747
 6181TIP3    H140034   3.604   6.703  16.535  2.0991 -0.0672 -0.3287
 6181TIP3    H240035   3.698   6.759  16.430 -3.9017  1.4867 -5.1573
 6182TIP3   OH240036   1.197   3.085   1.908 -0.4510  0.2522 -0.4720
 6182TIP3    H140037   1.263   3.024   1.873 -0.5078 -1.3149  1.9853
 6182TIP3    H240038   1.236   3.117   1.989 -2.3391  0.0380  0.5219
 6183TIP3   OH240039   4.998   2.492  14.469 -0.2718 -0.6200 -0.7183
 6183TIP3    H140040   5.047   2.557  14.420 -1.2399  0.4175 -0.3380
 6183TIP3    H240041   5.044   2.410  14.454  1.8656  0.4053  0.0385
 6184TIP3   OH240042   4.668   0.119   6.770 -0.0854 -1.0305  0.8109
 6184TIP3    H140043   4.622   0.121   6.686  1.9311  0.4611 -0.3053
 6184TIP3    H240044   4.625   0.187   6.823  0.6715  0.2436 -0.1694
 6185TIP3   OH240045   1.957   6.062   0.460  0.0245  0.1085  0.8368
 6185TIP3    H140046   2.015   6.118   0.408 -1.0398 -1.0584 -1.6908
 6185TIP3    H240047   1.875   6.109   0.463  0.1767  0.3156  1.7331
 6186TIP3   OH240048   5.898   1.673  16.352 -0.2638  0.0535 -0.7705
 6186TIP3    H140049   5.853   1.613  16.292 -0.7824 -1.4953  1.1281
 6186TIP3    H240050   5.951   1.617  16.408  1.2164  1.5828 -0.5984
 6187TIP3   OH240051   0.682   2.140   4.741  0.2603  0.3021 -0.6474
 6187TIP3    H140052   0.709   2.141   4.833  0.3295  1.4950 -0.6809
 6187TIP3    H240053   0.623   2.065   4.735 -0.7193  0.9533  0.6466
 6188TIP3   OH240054   1.850   2.632  12.264  0.5946 -0.0901 -0.2241
 6188TIP3    H140055   1.806   2.702  12.216  0.7918  0.9321  1.0530
 6188TIP3    H240056   1.779   2.579  12.301  0.4457 -0.5904 -1.2144
 6189TIP3   OH240057   5.478   5.136   2.474 -0.3271  0.0262  0.0060
 6189TIP3    H140058   5.499   5.143   2.381 -0.9734 -1.7304 -0.2980
 6189TIP3    H240059   5.424   5.057   2.480  0.2365 -0.2306  1.9682
 6190TIP3   OH240060   4.547   3.351  14.960  0.2989  0.4063  0.1655
 6190TIP3    H140061   4.459   3.326  14.989  1.2061 -0.2776  2.4329
 6190TIP3    H240062   4.533   3.392  14.874 -1.8787 -2.7178 -1.0820
 6191TIP3   OH240063   5.818   5.462  16.513  0.5489  0.1667 -0.0096
 6191TIP3    H140064   5.863   5.482  16.595 -1.9667  1.4515  1.1170
 6191TIP3    H240065   5.752   5.397  16.538  0.1510  0.1416 -1.1253
 6192TIP3   OH240066   6.144   1.185   4.203 -0.0819  0.0175  0.2162
 6192TIP3    H140067   6.070   1.232   4.241  0.3195 -0.5323  1.7129
 6192TIP3    H240068   6.198   1.160   4.278  0.7951 -0.9963 -0.7304
 6193TIP3   OH240069   0.915   3.681   1.046 -0.4563  0.4085 -0.4937
 6193TIP3    H140070   0.983   3.691   0.979  0.2927 -1.3623 -0.0305
 6193TIP3    H240071   0.868   3.602   1.021 -0.1158 -0.3174  1.1168
 6194TIP3   OH240072   2.058   5.136   2.696  0.2375 -0.6505  0.0350
 6194TIP3    H140073   2.133   5.195   2.694  0.6374 -1.1182  0.8803
 6194TIP3    H240074   2.017   5.145   2.609  0.8000  0.2004 -0.1422
 6195TIP3   OH240075   6.311   6.135   4.576 -0.3826 -0.5144  0.3593
 6195TIP3    H140076   6.319   6.149   4.482 -1.5792 -0.9233  0.1771
 6195TIP3    H240077   6.217   6.145   4.593 -0.5927 -3.2962  1.0294
 6196TIP3   OH240078   6.349   0.975   4.647 -0.0813  0.9207  0.1566
 6196TIP3    H140079   6.309   0.995   4.562 -0.0309 -0.0229 -0.0893
 6196TIP3    H240080   6.443   0.990   4.633  0.0551 -0.3159 -0.2713
 6197TIP3   OH240081   4.761   5.373  17.052 -0.1098  0.1085  0.3181
 6197TIP3    H140082   4.746   5.287  17.012  0.9395  1.0912 -2.3142
 6197TIP3    H240083   4.696   5.378  17.122  1.1876 -3.6823  1.9748
 6198TIP3   OH240084   3.336   0.110  12.379  0.4883 -0.1449 -0.4957
 6198TIP3    H140085   3.421   0.068  12.369  0.8521  0.3253  0.5278
 6198TIP3    H240086   3.356   0.198  12.410 -0.3469  0.2101 -0.9243
 6199TIP3   OH240087   1.477   2.255   4.432 -0.3778  0.0896 -0.7467
 6199TIP3    H140088   1.422   2.322   4.393 -0.2540  1.3983  1.2352
 6199TIP3    H240089   1.423   2.175   4.431 -1.1210  0.5956 -1.6552
 6200TIP3   OH240090   2.634   5.565   0.320 -0.7891 -0.3030 -0.2185
 6200TIP3    H140091   2.594   5.575   0.233  0.0462 -0.0311 -0.5727
 6200TIP3    H240092   2.600   5.482   0.353 -1.3550 -0.2537 -0.6763
 6201TIP3   OH240093   4.370   2.884  11.726  0.5169  0.0049  0.5585
 6201TIP3    H140094   4.325   2.816  11.676  0.6513  1.2880 -1.3642
 6201TIP3    H240095   4.330   2.881  11.813 -1.2631 -0.7950 -0.2783
 6202TIP3   OH240096   0.028   3.601   5.532 -0.1988  0.1652  0.0115
 6202TIP3    H140097   0.072   3.614   5.448  0.0337 -1.0137 -0.0591
 6202TIP3    H240098  -0.058   3.642   5.520 -0.3235 -0.3551 -0.9444
 6203TIP3   OH240099   0.361   3.619  11.120 -0.2116  0.1959  0.2902
 6203TIP3    H140100   0.288   3.594  11.063  0.4154 -0.7995 -0.0807
 6203TIP3    H240101   0.359   3.556  11.192 -0.5604  1.0126  1.0095
 6204TIP3   OH240102   6.460   3.627   0.283  0.3618 -0.5078  0.1024
 6204TIP3    H140103   6.530   3.667   0.231  0.2383  1.0622  1.1139
 6204TIP3    H240104   6.424   3.699   0.334  0.1919 -1.9408  2.0592
 6205TIP3   OH240105   4.253   2.125  11.382  0.2332  0.3138 -0.0475
 6205TIP3    H140106   4.195   2.145  11.455 -2.0049 -1.5983 -1.2518
 6205TIP3    H240107   4.239   2.196  11.319 -0.0430  0.3902  0.1015
 6206TIP3   OH240108   5.193   1.616  15.481 -0.7230  0.1468  0.2662
 6206TIP3    H140109   5.184   1.675  15.406 -0.6374  0.5904  0.6001
 6206TIP3    H240110   5.173   1.529  15.446 -2.3334  0.5641  0.0834
 6207TIP3   OH240111   6.503   0.425  15.194  0.2566  0.3417  0.2989
 6207TIP3    H140112   6.491   0.491  15.263  1.4344  2.1811 -1.2092
 6207TIP3    H240113   6.598   0.419  15.183  0.2150 -2.1979  0.9140
 6208TIP3   OH240114   4.818   3.567  14.154  0.0429 -0.4416 -0.1085
 6208TIP3    H140115   4.908   3.539  14.173  0.0563  0.7636  1.6632
 6208TIP3    H240116   4.813   3.657  14.188 -1.6761 -0.3173 -0.6599
 6209TIP3   OH240117   0.899   5.459  13.904  0.4855 -0.5490 -0.4585
 6209TIP3    H140118   0.994   5.453  13.917  0.5594  0.9845 -0.2511
 6209TIP3    H240119   0.887   5.437  13.812  1.3487  1.9895 -1.2206
 6210TIP3   OH240120   0.934   0.448  12.399 -0.2102  0.4176 -0.2960
 6210TIP3    H140121   0.987   0.486  12.329 -0.3433  1.7223  0.2922
 6210TIP3    H240122   0.856   0.503  12.404 -1.0421 -0.7453 -0.3187
 6211TIP3   OH240123   3.251   1.676  12.093  0.9120  0.3893  0.0098
 6211TIP3    H140124   3.190   1.712  12.029  1.3561  1.7163  0.3054
 6211TIP3    H240125   3.337   1.691  12.055  1.0692 -1.3304 -0.3285
 6212TIP3   OH240126   0.004   5.091   4.036 -0.4088 -0.6308  0.4018
 6212TIP3    H140127   0.044   5.177   4.052 -0.4916 -0.9464  2.3872
 6212TIP3    H240128   0.073   5.041   3.992  0.7035 -0.5058  1.9509
 6213TIP3   OH240129   6.142   3.372   4.447 -0.1361 -0.3948 -0.0140
 6213TIP3    H140130   6.220   3.427   4.450 -0.1330 -0.4471  1.1238
 6213TIP3    H240131   6.105   3.387   4.360 -0.2606  1.5839  0.3602
 6214TIP3   OH240132   4.261   2.257  15.311  0.1846  0.6251  0.2336
 6214TIP3    H140133   4.265   2.333  15.370  1.0904  0.8602 -0.1158
 6214TIP3    H240134   4.323   2.278  15.241 -1.2016  0.5465 -1.0476
 6215TIP3   OH240135   3.792   0.474  13.590 -0.2257  0.2939  0.0482
 6215TIP3    H140136   3.867   0.516  13.631  0.4538 -1.2424  0.3895
 6215TIP3    H240137   3.829   0.411  13.529 -1.2167 -0.8729  0.6172
 6216TIP3   OH240138   4.302   6.274  11.474 -0.0565 -0.5791  0.1471
 6216TIP3    H140139   4.297   6.300  11.566 -1.5895 -1.0230  0.1953
 6216TIP3    H240140   4.326   6.182  11.477  0.3357 -0.4821  0.0791
 6217TIP3   OH240141   1.079   4.074   4.789 -0.3738  0.1688  0.0860
 6217TIP3    H140142   1.041   4.014   4.725  0.5542 -0.5808  0.2246
 6217TIP3    H240143   1.162   4.033   4.814  0.5821  1.8146 -0.2867
 6218TIP3   OH240144   4.706   4.951  13.395 -0.0671 -0.8115 -0.5028
 6218TIP3    H140145   4.628   5.006  13.402  0.8588  0.2988  1.6101
 6218TIP3    H240146   4.676   4.862  13.415 -0.4297 -0.0579  2.4920
 6219TIP3   OH240147   3.603   4.217   2.408 -0.1032 -0.1573 -0.0025
 6219TIP3    H140148   3.581   4.216   2.315 -0.2038  0.1765  0.0174
 6219TIP3    H240149   3.607   4.124   2.433 -1.7580 -0.2282  0.0559
 6220TIP3   OH240150   2.784   3.417  10.590 -0.2870  0.1911  0.1458
 6220TIP3    H140151   2.827   3.498  10.617  1.5049 -0.5260 -0.5410
 6220TIP3    H240152   2.838   3.382  10.519 -1.8015 -0.9044 -0.5098
 6221TIP3   OH240153   4.363   0.986   2.152 -0.2314  0.0596 -0.2531
 6221TIP3    H140154   4.382   0.908   2.205  0.7442 -0.5826 -1.5249
 6221TIP3    H240155   4.428   0.983   2.082  0.2550  2.4051  0.0805
 6222TIP3   OH240156   2.227   2.397  16.865  0.4381 -0.2207 -0.2715
 6222TIP3    H140157   2.181   2.313  16.867 -0.3641  0.2290  0.0703
 6222TIP3    H240158   2.160   2.462  16.845  0.8526  0.4877  0.6131
 6223TIP3   OH240159   0.755   3.680   0.519 -0.2535 -0.3365 -0.0153
 6223TIP3    H140160   0.692   3.698   0.449  0.2618 -1.3044 -0.7355
 6223TIP3    H240161   0.796   3.764   0.536 -1.1496  0.1334 -0.1124
 6224TIP3   OH240162   4.449   6.363   0.824 -0.2264  0.1295  0.6554
 6224TIP3    H140163   4.419   6.440   0.776 -0.7170  0.2867  1.1970
 6224TIP3    H240164   4.368   6.318   0.849  0.0141  0.1740  1.5285
 6225TIP3   OH240165   4.231   4.566   4.184  0.3515 -0.5873 -0.2601
 6225TIP3    H140166   4.171   4.498   4.152  0.0117  0.3244 -1.6011
 6225TIP3    H240167   4.312   4.519   4.203 -0.6089 -1.7391  1.0349
 6226TIP3   OH240168   1.060   6.231  14.631 -0.3239 -0.3169  0.1972
 6226TIP3    H140169   0.996   6.301  14.621  0.0023 -0.1146 -0.5571
 6226TIP3    H240170   1.138   6.263  14.585  0.0357 -0.9088  0.3820
 6227TIP3   OH240171   5.541   0.149   0.731  0.1414 -0.7152 -0.0029
 6227TIP3    H140172   5.632   0.121   0.748  0.7172 -0.2726 -2.2344
 6227TIP3    H240173   5.550   0.224   0.673 -1.5551  1.7897  2.8265
 6228TIP3   OH240174   0.879   5.079   3.501 -0.8896  0.0545 -0.4507
 6228TIP3    H140175   0.801   5.064   3.448 -0.1646 -1.1185 -1.2130
 6228TIP3    H240176   0.862   5.032   3.583 -0.5409 -1.1259 -1.0431
 6229TIP3   OH240177   0.513   3.604   4.276 -0.2370 -0.1263  0.2187
 6229TIP3    H140178   0.452   3.611   4.202 -0.5051  2.2440  0.6096
 6229TIP3    H240179   0.582   3.667   4.257  1.1689 -1.4922  0.6703
 6230TIP3   OH240180   2.486   4.531   3.299 -0.3895 -0.2529 -0.5359
 6230TIP3    H140181   2.473   4.602   3.362  0.0401 -1.9314  1.4655
 6230TIP3    H240182   2.407   4.478   3.306 -0.6134 -0.1398 -1.8858
 6231TIP3   OH240183   4.070   5.718  15.185 -0.6118  0.2676  0.1518
 6231TIP3    H140184   4.028   5.803  15.176 -1.1410 -0.1077 -1.0111
 6231TIP3    H240185   4.053   5.692  15.276 -1.1201  1.0415  0.2791
 6232TIP3   OH240186   2.455   0.153   0.273  0.4317 -0.0477 -0.2214
 6232TIP3    H140187   2.398   0.216   0.230  1.0960  0.4856 -0.3391
 6232TIP3    H240188   2.544   0.184   0.254  0.7657 -1.0996 -0.3940
 6233TIP3   OH240189   6.406   6.326   5.243 -0.0254 -0.4166 -0.4352
 6233TIP3    H140190   6.494   6.359   5.261 -0.0414 -0.7675  0.2858
 6233TIP3    H240191   6.403   6.318   5.148 -0.2289  2.2332 -0.6908
 6234TIP3   OH240192   5.870   2.656  11.586 -0.2377  0.5442  0.6998
 6234TIP3    H140193   5.818   2.731  11.557 -0.4078  0.3064  0.3774
 6234TIP3    H240194   5.915   2.687  11.664 -0.8465  0.7635  0.9749
 6235TIP3   OH240195   5.446   2.119  14.842 -0.1649  0.2635  0.2034
 6235TIP3    H140196   5.485   2.112  14.754 -0.2043 -1.0429  0.2752
 6235TIP3    H240197   5.521   2.129  14.900 -0.0696  0.0258  0.1222
 6236TIP3   OH240198   5.221   1.894  16.147 -0.3938  0.1405  0.1139
 6236TIP3    H140199   5.294   1.853  16.192 -0.9463 -1.1061 -0.0763
 6236TIP3    H240200   5.155   1.908  16.215 -1.2594 -1.8152 -0.2620
 6237TIP3   OH240201   3.080   3.844  13.732  0.7873 -0.0551 -0.8303
 6237TIP3    H140202   3.142   3.912  13.759 -0.9201  2.0549 -2.0406
 6237TIP3    H240203   3.037   3.817  13.813  1.3708  0.4187 -0.3550
 6238TIP3   OH240204   5.099   4.327   2.131  0.2397 -0.0805 -0.6361
 6238TIP3    H140205   5.148   4.377   2.066  0.8412  0.8623  0.5257
 6238TIP3    H240206   5.011   4.364   2.129  0.1595 -0.2922 -1.1583
 6239TIP3   OH240207   3.486   6.513   0.970  0.3402 -0.0665 -0.2086
 6239TIP3    H140208   3.417   6.570   0.937  0.9897  0.9992  0.2543
 6239TIP3    H240209   3.439   6.438   1.006 -0.5393  0.3140 -0.5467
 6240TIP3   OH240210   0.815   6.309   1.126 -0.4344 -0.1871 -0.0781
 6240TIP3    H140211   0.812   6.404   1.133 -0.8933 -0.2481  0.6204
 6240TIP3    H240212   0.907   6.289   1.109 -0.2269  0.3461  0.4111
 6241TIP3   OH240213   0.211   6.256   5.303  0.2401  0.0627  0.4320
 6241TIP3    H140214   0.209   6.282   5.395 -2.0129  1.1819  0.0869
 6241TIP3    H240215   0.119   6.251   5.277  0.8562  0.0252 -1.8324
 6242TIP3   OH240216   6.799   6.096  16.664 -0.5621  0.2044  0.8335
 6242TIP3    H140217   6.782   6.150  16.587 -1.3138 -1.8776 -0.5031
 6242TIP3    H240218   6.837   6.015  16.629 -2.0574 -1.2737  2.5002
 6243TIP3   OH240219   2.760   4.415  11.653  0.3899 -0.0719 -0.1240
 6243TIP3    H140220   2.833   4.442  11.597  0.6650  1.2925  0.8578
 6243TIP3    H240221   2.747   4.322  11.633  0.7800  0.2780 -2.1012
 6244TIP3   OH240222   0.270   3.442  17.196 -0.0571 -0.2082 -0.3479
 6244TIP3    H140223   0.202   3.504  17.170 -0.0648  0.0366  0.2554
 6244TIP3    H240224   0.222   3.373  17.243  0.1339  0.0361  0.2011
 6245TIP3   OH240225   4.916   2.753  13.769  0.3948  1.0574  0.4250
 6245TIP3    H140226   4.972   2.772  13.844  0.6589  1.0672  0.2254
 6245TIP3    H240227   4.897   2.659  13.776  0.9915  0.9122  0.1129
 6246TIP3   OH240228   3.459   0.511   3.026  0.1877  0.0194 -0.3383
 6246TIP3    H140229   3.485   0.527   3.116 -1.5739 -1.1153  0.3888
 6246TIP3    H240230   3.464   0.416   3.015  1.1538  0.2007 -1.6902
 6247TIP3   OH240231   5.128   0.005  16.683  0.2495 -0.6033 -0.3649
 6247TIP3    H140232   5.195  -0.039  16.631  0.2101  0.3298 -1.2294
 6247TIP3    H240233   5.063   0.033  16.619 -1.1413 -1.7850  0.4999
 6248TIP3   OH240234   2.030   2.416   3.419  0.7707 -0.3067  0.1745
 6248TIP3    H140235   1.989   2.342   3.465  0.1099 -1.3987 -2.0829
 6248TIP3    H240236   1.972   2.490   3.436  1.0525 -0.4643  1.8706
 6249TIP3   OH240237   3.878   0.147   5.669  0.7568  0.4525  0.6638
 6249TIP3    H140238   3.939   0.073   5.662  0.8288  0.4446  1.3442
 6249TIP3    H240239   3.803   0.110   5.715  0.6789  0.7353  0.7582
 6250TIP3   OH240240   5.553   0.781  16.652  0.0517 -0.1734  0.1353
 6250TIP3    H140241   5.635   0.801  16.606  0.4846 -0.1419  0.9080
 6250TIP3    H240242   5.499   0.737  16.586  0.2025  0.9253 -0.7462
 6251TIP3   OH240243   1.793   1.183   4.050 -0.4217  0.1869  0.0361
 6251TIP3    H140244   1.709   1.160   4.089  0.2102 -1.5610  0.4186
 6251TIP3    H240245   1.782   1.273   4.021 -1.8660  0.5462  1.6094
 6252TIP3   OH240246   2.097   4.355   1.048  1.3055  0.3616 -0.4090
 6252TIP3    H140247   2.130   4.267   1.063  0.9477  0.1344 -0.9200
 6252TIP3    H240248   2.110   4.370   0.954 -0.6917 -0.0143 -0.7821
 6253TIP3   OH240249   4.074   6.715   0.784 -0.4637 -0.3579  0.4704
 6253TIP3    H140250   4.142   6.778   0.807 -0.5973  0.8206 -2.1660
 6253TIP3    H240251   3.994   6.767   0.782 -0.8363 -0.9534 -0.0891
 6254TIP3   OH240252   5.540   2.156  16.787 -0.4993  0.4842 -0.0278
 6254TIP3    H140253   5.538   2.062  16.768  0.2050  0.4009  0.2741
 6254TIP3    H240254   5.560   2.197  16.703  0.1845  0.2858  0.0267
 6255TIP3   OH240255   1.664   5.521  13.119  0.1592  0.1456 -0.4902
 6255TIP3    H140256   1.610   5.539  13.196  1.4157  1.2776  0.1664
 6255TIP3    H240257   1.698   5.607  13.093  0.5660 -0.3681 -1.6962
 6256TIP3   OH240258   3.168   1.352   0.979  0.6628 -0.2646  0.2498
 6256TIP3    H140259   3.137   1.313   0.897 -0.4557 -1.8204  1.3873
 6256TIP3    H240260   3.107   1.424   0.995  0.8912  0.0519 -0.2731
 6257TIP3   OH240261   0.706   5.044  13.629 -0.0311  0.7341  0.1389
 6257TIP3    H140262   0.628   5.056  13.575 -0.7644 -0.6192  0.8827
 6257TIP3    H240263   0.765   4.993  13.574  0.5650  2.1991 -0.6197
 6258TIP3   OH240264   1.619   3.366  10.636  0.1291 -0.1297 -0.0483
 6258TIP3    H140265   1.711   3.339  10.631  0.2834  0.7533 -2.9600
 6258TIP3    H240266   1.602   3.408  10.552 -3.2704 -1.2779  0.0013
 6259TIP3   OH240267   1.956   5.049  15.807  0.2625  0.6274 -0.4101
 6259TIP3    H140268   1.993   5.100  15.734  0.3645 -0.8040 -1.3731
 6259TIP3    H240269   1.941   5.114  15.876  0.6543  1.9189 -1.5141
 6260TIP3   OH240270   4.787   3.192  15.583 -0.1094 -0.1830  0.2515
 6260TIP3    H140271   4.813   3.212  15.673 -0.7876 -0.1999  0.4557
 6260TIP3    H240272   4.776   3.097  15.582 -1.0831 -0.0714  0.4151
 6261TIP3   OH240273   3.257   4.788   4.789  0.2290 -0.7375 -0.2735
 6261TIP3    H140274   3.319   4.810   4.720 -0.5081 -0.8988 -1.0029
 6261TIP3    H240275   3.213   4.871   4.811 -0.5541 -0.9480 -1.0243
 6262TIP3   OH240276   2.866   0.866  15.736  0.6239 -0.1891  0.0997
 6262TIP3    H140277   2.940   0.923  15.757  0.4193  0.2954 -0.4604
 6262TIP3    H240278   2.881   0.840  15.645 -0.6193  1.0724 -0.4961
 6263TIP3   OH240279   6.627   1.615  13.826  0.2314  0.3415 -0.5507
 6263TIP3    H140280   6.551   1.669  13.849  0.0861 -0.0106 -0.2000
 6263TIP3    H240281   6.600   1.526  13.848  0.3919  0.0962 -1.3318
 6264TIP3   OH240282   6.472   4.384   3.939  0.0285  0.0617  0.1417
 6264TIP3    H140283   6.460   4.312   3.877  2.7142 -1.8418  1.7200
 6264TIP3    H240284   6.523   4.449   3.890 -1.5080  0.4753 -0.9559
 6265TIP3   OH240285   0.025   0.266   2.324  0.0374  0.0394 -0.1209
 6265TIP3    H140286  -0.030   0.203   2.278 -2.4149  0.8776  1.5487
 6265TIP3    H240287  -0.000   0.256   2.416  3.3672 -0.1852  0.8324
 6266TIP3   OH240288   5.899   2.243  12.268 -0.2257  0.3413  0.3004
 6266TIP3    H140289   5.842   2.240  12.191 -0.8254  1.6833  0.6834
 6266TIP3    H240290   5.846   2.282  12.336  0.8121  0.5942  0.9728
 6267TIP3   OH240291   0.847   2.984  12.250  0.1866 -0.0522  0.3085
 6267TIP3    H140292   0.855   3.064  12.198  1.2882  0.3143  1.0384
 6267TIP3    H240293   0.849   2.914  12.185  0.3311  0.4646 -0.2502
 6268TIP3   OH240294   0.994   3.430  13.229  0.0422 -0.1916  0.4317
 6268TIP3    H140295   1.000   3.336  13.213  1.4013 -0.2546  1.2497
 6268TIP3    H240296   1.058   3.446  13.299  0.7995  1.5686 -0.6553
 6269TIP3   OH240297   0.881   3.871   2.931 -0.0035  0.1148  0.0724
 6269TIP3    H140298   0.971   3.896   2.949  0.1920 -1.5196  1.4860
 6269TIP3    H240299   0.829   3.946   2.959  0.8608  0.7820 -0.0928
 6270TIP3   OH240300   6.547   3.124  14.909 -0.4944  0.4309  0.4928
 6270TIP3    H140301   6.527   3.068  14.985  0.3756  0.0751  0.4622
 6270TIP3    H240302   6.505   3.079  14.835  0.5524 -0.4213  0.3966
 6271TIP3   OH240303   0.086   5.349   4.771 -0.4443  0.7083 -0.0812
 6271TIP3    H140304   0.019   5.281   4.766  0.1971  0.1265 -0.7787
 6271TIP3    H240305   0.100   5.362   4.864 -0.9009  0.2166  0.0593
 6272TIP3   OH240306   0.574   1.171   5.200  0.1929 -0.0514  0.8723
 6272TIP3    H140307   0.540   1.083   5.184  0.3519 -0.1264  0.9461
 6272TIP3    H240308   0.529   1.200   5.280 -1.2414  0.6560 -0.1580
 6273TIP3   OH240309   0.565   4.501   5.426 -0.1446  0.2124  0.2971
 6273TIP3    H140310   0.556   4.596   5.439  0.0651  0.1380  1.0089
 6273TIP3    H240311   0.550   4.464   5.513 -2.2784 -0.5570 -0.3733
 6274TIP3   OH240312   3.597   1.736   0.498  0.2890  0.0454 -0.0299
 6274TIP3    H140313   3.604   1.649   0.537 -0.1609  0.7858  1.7072
 6274TIP3    H240314   3.684   1.775   0.510  0.6708 -0.3615 -1.3377
 6275TIP3   OH240315   1.457   3.550   3.685 -0.3756 -0.2895 -0.7058
 6275TIP3    H140316   1.461   3.580   3.594  0.1166 -2.0193 -1.2777
 6275TIP3    H240317   1.526   3.599   3.729 -0.7274  0.6885 -1.2193
 6276TIP3   OH240318   4.441   6.679   6.646 -0.6933 -0.5110 -0.6451
 6276TIP3    H140319   4.524   6.673   6.601  1.4963  1.3280  2.9041
 6276TIP3    H240320   4.438   6.601   6.701 -2.3781 -1.6809 -2.3298
 6277TIP3   OH240321   5.775   0.313  11.404  0.5427 -0.0689  0.3575
 6277TIP3    H140322   5.788   0.382  11.469 -0.2832  1.0721 -0.6686
 6277TIP3    H240323   5.712   0.349  11.342  0.4346 -1.5775 -0.4545
 6278TIP3   OH240324   6.479   1.358  16.865 -0.5012  0.2544 -0.5193
 6278TIP3    H140325   6.552   1.356  16.928 -1.4319 -1.7219  0.5366
 6278TIP3    H240326   6.452   1.450  16.864  0.2729  0.5362  1.1105
 6279TIP3   OH240327   1.196   3.119  12.043 -0.1151  0.4226 -0.5987
 6279TIP3    H140328   1.232   3.206  12.062 -1.2669  1.3510 -2.4695
 6279TIP3    H240329   1.101   3.130  12.055 -0.1926 -0.8384  0.0418
 6280TIP3   OH240330   0.554   1.871   2.702  0.0431 -0.2470  0.2162
 6280TIP3    H140331   0.501   1.945   2.729  0.1927  0.1283 -0.4979
 6280TIP3    H240332   0.505   1.794   2.731  1.2008  0.1588  3.3746
 6281TIP3   OH240333   0.302   5.873   4.186  0.4887 -0.1787 -0.0376
 6281TIP3    H140334   0.220   5.829   4.163 -1.1288  2.1672  1.0674
 6281TIP3    H240335   0.297   5.958   4.142  2.3625 -0.0194  0.0046
 6282TIP3   OH240336   3.174   4.606  11.856  0.2355 -0.0245 -0.1737
 6282TIP3    H140337   3.229   4.672  11.815  0.0242 -0.6721 -1.5173
 6282TIP3    H240338   3.131   4.561  11.783 -0.6812 -0.7273  0.7770
 6283TIP3   OH240339   3.993   2.666   6.251 -0.2986 -0.4244 -0.3055
 6283TIP3    H140340   3.976   2.683   6.159 -1.9480  1.1294  0.2561
 6283TIP3    H240341   3.918   2.615   6.281  0.1271 -0.7538  0.2089
 6284TIP3   OH240342   2.971   2.876   5.842  0.0256 -0.1490 -0.0292
 6284TIP3    H140343   2.984   2.949   5.902  0.7756 -1.1619  1.0779
 6284TIP3    H240344   2.881   2.884   5.813 -0.6649 -0.1934  2.0280
 6285TIP3   OH240345   2.983   4.983   5.512 -0.0316  0.1077  0.3379
 6285TIP3    H140346   2.985   4.888   5.517  1.3065  0.1773  1.4646
 6285TIP3    H240347   2.923   5.010   5.581 -1.8875  0.0190 -1.2134
 6286TIP3   OH240348   4.047   2.016   0.052  0.5370 -0.1869 -0.0121
 6286TIP3    H140349   4.102   2.011   0.130  0.0525  1.3949  0.4471
 6286TIP3    H240350   4.106   2.044  -0.018  0.6982 -0.3590  0.0526
 6287TIP3   OH240351   0.582   3.633   4.542  0.1303  0.4602 -0.3525
 6287TIP3    H140352   0.646   3.567   4.569 -1.1309 -0.5859  0.0800
 6287TIP3    H240353   0.554   3.605   4.455 -0.4781  0.3773 -0.1269
 6288TIP3   OH240354   4.642   3.055   2.656 -0.1444 -0.1263  0.1134
 6288TIP3    H140355   4.608   3.015   2.736  0.4475  1.2794  1.0945
 6288TIP3    H240356   4.728   3.089   2.681  0.2812 -0.1593 -1.2724
 6289TIP3   OH240357   3.095   4.776  15.940 -0.3246 -0.2802 -0.3007
 6289TIP3    H140358   3.040   4.825  15.878  0.4363  1.7521  0.5993
 6289TIP3    H240359   3.039   4.764  16.017 -0.8130 -1.6434 -0.8457
 6290TIP3   OH240360   3.685   5.289  11.655 -0.1860 -0.1842 -0.4558
 6290TIP3    H140361   3.688   5.196  11.678  1.0888 -0.8613 -3.1492
 6290TIP3    H240362   3.775   5.318  11.661 -0.1642  0.1744 -2.2076
 6291TIP3   OH240363   4.504   4.553  14.096 -0.8751  0.0938  0.1302
 6291TIP3    H140364   4.454   4.613  14.040 -0.2309  0.7882  0.2830
 6291TIP3    H240365   4.585   4.600  14.115 -0.4317 -0.7660  0.3946
 6292TIP3   OH240366   6.403   2.108  14.608  0.0524 -0.0478  0.6136
 6292TIP3    H140367   6.480   2.075  14.656  0.9515  1.1597  0.0338
 6292TIP3    H240368   6.353   2.154  14.675  0.6754  0.5736  0.6612
 6293TIP3   OH240369   6.085   2.778  15.845  0.2313  0.2895  0.5030
 6293TIP3    H140370   6.129   2.758  15.763  0.5069 -1.6808  1.1115
 6293TIP3    H240371   6.019   2.843  15.821 -1.6562 -2.3669 -1.8397
 6294TIP3   OH240372   4.862   0.760   1.362 -0.1536 -0.3711 -0.3654
 6294TIP3    H140373   4.911   0.690   1.404 -0.4823  1.0132  2.4033
 6294TIP3    H240374   4.897   0.764   1.273  1.7294 -2.2298  0.2605
 6295TIP3   OH240375   5.481   1.713  14.240  0.5998 -0.1953 -0.7787
 6295TIP3    H140376   5.466   1.730  14.334 -1.7506 -0.9840 -0.9876
 6295TIP3    H240377   5.550   1.775  14.216 -1.1077  2.4227  0.7135
 6296TIP3   OH240378   2.215   4.340  14.285  0.2695 -0.1148 -0.1508
 6296TIP3    H140379   2.250   4.377  14.366  0.1242 -0.0824 -0.1033
 6296TIP3    H240380   2.223   4.411  14.222  0.4984 -0.1809 -0.1964
 6297TIP3   OH240381   3.429   2.366  17.259  0.4203 -0.3594 -0.3038
 6297TIP3    H140382   3.365   2.350  17.327  0.4310 -0.2863 -0.2760
 6297TIP3    H240383   3.488   2.291  17.262  1.4504  0.4702  0.9434
 6298TIP3   OH240384   6.800   0.802   1.034  0.2101 -0.3257 -0.9408
 6298TIP3    H140385   6.771   0.773   0.947 -1.3590 -3.2084  0.4662
 6298TIP3    H240386   6.820   0.721   1.080  3.8049  1.3003  0.5106
 6299TIP3   OH240387   1.021   5.393   3.665  0.4599  0.3871  0.1369
 6299TIP3    H140388   1.009   5.299   3.671 -2.3000  0.8298  2.8737
 6299TIP3    H240389   1.112   5.404   3.636  0.8406 -3.0688 -0.1905
 6300TIP3   OH240390   5.828   1.688   3.230  0.2325  0.3941 -0.2965
 6300TIP3    H140391   5.919   1.714   3.248 -0.4118  2.1710  0.6335
 6300TIP3    H240392   5.777   1.764   3.258 -1.7111 -1.4869  1.3819
 6301TIP3   OH240393   1.439   0.434   4.903 -0.1452  0.2168  0.7918
 6301TIP3    H140394   1.358   0.483   4.913  0.4284  1.5636 -0.9527
 6301TIP3    H240395   1.421   0.372   4.832  0.2718  0.3378  0.5793
 6302TIP3   OH240396   3.011   6.505   1.074 -0.2119  0.1107  0.2085
 6302TIP3    H140397   3.069   6.525   1.001 -0.8411  0.9148 -0.0840
 6302TIP3    H240398   2.926   6.489   1.033 -0.6302  0.8269  0.7754
 6303TIP3   OH240399   3.125   2.715   2.714 -0.0048 -0.2905  0.1270
 6303TIP3    H140400   3.108   2.761   2.632  0.8156 -0.0707  0.0790
 6303TIP3    H240401   3.217   2.688   2.708 -0.0467 -0.5951  0.8121
 6304TIP3   OH240402   2.323   6.595   6.699 -0.0877 -0.0405  0.3534
 6304TIP3    H140403   2.366   6.639   6.626 -0.9267 -0.7210 -0.5588
 6304TIP3    H240404   2.368   6.510   6.705 -2.2326 -1.3392 -1.5240
 6305TIP3   OH240405   0.913   0.884   0.005 -0.1177  0.1830  0.2085
 6305TIP3    H140406   0.879   0.950  -0.055 -4.8342 -0.1209  2.2995
 6305TIP3    H240407   0.950   0.934   0.078 -0.7505  0.5188  0.2973
 6306TIP3   OH240408   5.888   0.332  12.777  0.2811 -0.6910  0.6928
 6306TIP3    H140409   5.952   0.370  12.717  0.8123  1.5606  2.6579
 6306TIP3    H240410   5.837   0.406  12.809 -1.2312 -2.0804  1.6237
 6307TIP3   OH240411   6.406   1.459  13.617  0.0825  0.5370 -0.3956
 6307TIP3    H140412   6.426   1.391  13.681  0.6292 -0.7861 -1.9279
 6307TIP3    H240413   6.399   1.412  13.534  1.2990  2.4560 -1.6197
 6308TIP3   OH240414   2.150   1.394  15.940  0.1038  1.0092  0.2638
 6308TIP3    H140415   2.203   1.456  15.891  1.2654  0.1704  0.4378
 6308TIP3    H240416   2.080   1.447  15.978  0.6888  2.0915 -0.1511
 6309TIP3   OH240417   0.629   0.402   0.093  0.3046  0.0335 -0.1311
 6309TIP3    H140418   0.696   0.337   0.072 -0.6338 -0.2913 -2.1781
 6309TIP3    H240419   0.550   0.351   0.110 -0.0268  0.5607 -0.0948
 6310TIP3   OH240420   2.524   1.300  11.376 -0.2316  0.1151  0.2833
 6310TIP3    H140421   2.523   1.308  11.281 -2.7492 -2.0768  0.0761
 6310TIP3    H240422   2.534   1.390  11.408  0.0223  0.9304 -2.0157
 6311TIP3   OH240423   0.455   5.137  16.276  0.1697  0.0697 -0.3485
 6311TIP3    H140424   0.503   5.124  16.358 -2.5158  0.4601  1.3518
 6311TIP3    H240425   0.473   5.228  16.252  2.0601 -0.4323 -0.9883
 6312TIP3   OH240426   0.470   0.490  13.916  0.1318  0.2795  0.4915
 6312TIP3    H140427   0.381   0.466  13.889  0.7835 -0.8446 -0.6953
 6312TIP3    H240428   0.458   0.536  13.999 -1.5439 -0.0547  0.4492
 6313TIP3   OH240429   0.312   2.094  17.153  0.6009  0.3754 -0.3419
 6313TIP3    H140430   0.243   2.029  17.136  0.1516  0.2915  1.6250
 6313TIP3    H240431   0.391   2.042  17.165 -0.3651 -0.2599  4.7042
 6314TIP3   OH240432   1.145   1.277   1.954 -0.5804 -0.2239  0.0578
 6314TIP3    H140433   1.229   1.252   1.991 -1.1695 -0.2175  1.4396
 6314TIP3    H240434   1.166   1.345   1.890  0.3867  0.3040  0.9234
 6315TIP3   OH240435   3.113   4.619  14.268  0.1381 -0.5897 -0.1955
 6315TIP3    H140436   3.085   4.642  14.179  1.2171  1.5974  0.0174
 6315TIP3    H240437   3.042   4.564  14.301 -0.7335 -0.6331 -2.0654
 6316TIP3   OH240438   6.406   6.335  15.652 -0.2432  0.4050 -0.1029
 6316TIP3    H140439   6.394   6.350  15.558  1.1003  1.0993 -0.1699
 6316TIP3    H240440   6.428   6.242  15.659 -1.7566  0.0135 -0.3295
 6317TIP3   OH240441   1.257   5.534   1.882  0.5751 -0.6149 -0.0847
 6317TIP3    H140442   1.214   5.587   1.950 -1.0331 -0.0799 -1.4902
 6317TIP3    H240443   1.190   5.471   1.856  1.2613 -0.9491 -1.0398
 6318TIP3   OH240444   5.757   0.446   1.338 -0.6448 -0.3436 -0.2679
 6318TIP3    H140445   5.788   0.388   1.407  0.1872  0.1281 -0.2459
 6318TIP3    H240446   5.825   0.512   1.329  0.2076 -1.5440 -2.9613
 6319TIP3   OH240447   3.464   2.892  13.312  0.1224 -0.5148 -0.6671
 6319TIP3    H140448   3.377   2.917  13.281 -0.5186 -1.1913  0.5535
 6319TIP3    H240449   3.524   2.948  13.262 -1.0264  0.2584 -1.2099
 6320TIP3   OH240450   6.570   3.694   5.423 -0.1349  0.1079  0.0469
 6320TIP3    H140451   6.631   3.750   5.375 -0.0309  0.5259  0.6632
 6320TIP3    H240452   6.484   3.732   5.406  0.0988  1.4878  1.8615
 6321TIP3   OH240453   0.152   1.517  15.150  0.5233  0.1513 -0.2213
 6321TIP3    H140454   0.079   1.456  15.157 -0.3815  1.2619  0.2035
 6321TIP3    H240455   0.158   1.558  15.236  1.9295 -0.2424 -0.1268
 6322TIP3   OH240456   1.660   6.428  11.582  0.1013  0.1290  0.1247
 6322TIP3    H140457   1.694   6.397  11.666 -1.0361 -1.7292 -0.0632
 6322TIP3    H240458   1.607   6.504  11.604  0.1643 -0.0884  1.0481
 6323TIP3   OH240459   4.256   0.719  13.418 -0.2201 -0.2656 -0.0580
 6323TIP3    H140460   4.174   0.750  13.379 -0.4302  0.7075  1.1528
 6323TIP3    H240461   4.324   0.773  13.378 -0.3228 -0.0095  0.1160
 6324TIP3   OH240462   5.209   0.463  15.926  0.2303  0.1200  0.2631
 6324TIP3    H140463   5.180   0.454  15.835  2.5574 -3.2443 -0.2197
 6324TIP3    H240464   5.304   0.464  15.921  0.3845 -0.0679  2.6612
 6325TIP3   OH240465   0.654   4.719  13.556 -0.4607  0.1136  1.1043
 6325TIP3    H140466   0.581   4.779  13.544 -0.8578 -1.0184 -2.8201
 6325TIP3    H240467   0.628   4.663  13.630 -3.3205  0.0939  0.1180
 6326TIP3   OH240468   4.640   1.879   5.598  0.6054 -0.1210  0.5078
 6326TIP3    H140469   4.719   1.923   5.567  0.3005 -0.0213 -0.1338
 6326TIP3    H240470   4.605   1.834   5.520  0.5706 -0.9747  1.0120
 6327TIP3   OH240471   6.245   3.710   1.774 -0.3817 -0.0234  0.4346
 6327TIP3    H140472   6.193   3.640   1.814  0.0882  1.1304  3.1981
 6327TIP3    H240473   6.278   3.672   1.692 -0.1069 -3.0589  1.8890
 6328TIP3   OH240474   0.671   3.125   0.657  0.2489  0.6158  0.1819
 6328TIP3    H140475   0.708   3.103   0.743  0.1379  0.1490  0.1107
 6328TIP3    H240476   0.578   3.104   0.666  0.6691 -1.8613 -0.8603
 6329TIP3   OH240477   1.618   1.118   2.597 -0.0954 -0.0093  0.4916
 6329TIP3    H140478   1.581   1.176   2.664  1.9501  1.2192  0.5897
 6329TIP3    H240479   1.668   1.176   2.540  0.0596 -1.3688 -0.7907
 6330TIP3   OH240480   1.545   4.793  14.892 -0.5723 -0.0006 -0.3068
 6330TIP3    H140481   1.483   4.860  14.864 -0.7472  0.2385  0.6387
 6330TIP3    H240482   1.598   4.776  14.814 -2.7143 -1.2144 -1.5467
 6331TIP3   OH240483   0.929   6.413  11.452  0.4850 -0.9028  0.3756
 6331TIP3    H140484   0.910   6.358  11.376 -0.3717  1.1716 -0.9446
 6331TIP3    H240485   1.024   6.409  11.461  0.7480  0.0169 -1.7318
 6332TIP3   OH240486   2.821   1.690   2.502 -0.3530  0.7802 -0.6178
 6332TIP3    H140487   2.798   1.597   2.502  0.3116  0.6076  1.0310
 6332TIP3    H240488   2.787   1.723   2.585  2.3695  1.2508  0.3550
 6333TIP3   OH240489   5.320   1.773   0.681  0.1476  0.6224 -0.5327
 6333TIP3    H140490   5.313   1.861   0.645  2.2179  1.6182  1.4260
 6333TIP3    H240491   5.353   1.720   0.608 -0.2017  1.6427 -1.4377
 6334TIP3   OH240492   5.309   4.509   6.199  0.6037  0.2943  0.3676
 6334TIP3    H140493   5.372   4.463   6.255 -1.6728 -0.9927  1.9573
 6334TIP3    H240494   5.325   4.602   6.215  3.4967  0.0535 -0.8744
 6335TIP3   OH240495   1.179   3.213  13.380 -0.0020  0.1618  0.2850
 6335TIP3    H140496   1.177   3.283  13.445  0.7346 -2.0323  2.7441
 6335TIP3    H240497   1.091   3.175  13.383 -0.6445  1.4347 -1.6084
 6336TIP3   OH240498   0.958   4.906  13.671 -0.0632  0.8015 -0.2290
 6336TIP3    H140499   0.972   4.864  13.586 -1.0392  0.4024 -0.2049
 6336TIP3    H240500   1.013   4.856  13.732 -1.1407 -0.3983 -0.2222
 6337TIP3   OH240501   5.459   5.785  13.922  0.2526  0.2673  0.4490
 6337TIP3    H140502   5.447   5.727  13.997  2.7732  0.1513  0.7987
 6337TIP3    H240503   5.482   5.726  13.850 -0.5237  0.5402 -0.0359
 6338TIP3   OH240504   0.395   3.853  15.760  0.6389  0.7437 -0.4237
 6338TIP3    H140505   0.436   3.832  15.676 -0.0012 -1.4862 -0.2056
 6338TIP3    H240506   0.387   3.769  15.805 -1.4768  1.5340  0.7595
 6339TIP3   OH240507   3.383   5.433   2.635 -0.5839  0.4946 -0.2686
 6339TIP3    H140508   3.295   5.397   2.645 -0.5028  0.4980  0.5360
 6339TIP3    H240509   3.423   5.423   2.722  0.0033  1.0208 -0.4712
 6340TIP3   OH240510   4.433   5.055  13.258 -0.3447  0.3012  0.2396
 6340TIP3    H140511   4.348   5.060  13.213 -0.6764 -0.7916  0.7283
 6340TIP3    H240512   4.484   5.128  13.222 -0.6283 -0.5106 -1.8761
 6341TIP3   OH240513   6.078   3.319  15.229 -0.6139  0.0865 -0.0422
 6341TIP3    H140514   6.116   3.298  15.315  0.5156 -1.1436 -0.8260
 6341TIP3    H240515   6.135   3.388  15.195  0.2631 -0.9475 -0.7177
 6342TIP3   OH240516   1.514   5.968  16.237 -0.2944  0.1853 -0.2889
 6342TIP3    H140517   1.450   5.983  16.167  0.4454 -1.4857 -1.3441
 6342TIP3    H240518   1.595   6.005  16.203 -0.5775  1.9034  0.8709
 6343TIP3   OH240519   4.901   0.655  15.748  0.5769  0.7029 -0.5957
 6343TIP3    H140520   4.927   0.590  15.812  2.3260  0.1202 -1.8750
 6343TIP3    H240521   4.822   0.694  15.785  1.6427  0.5142  1.9936
 6344TIP3   OH240522   2.005   1.180   0.449  0.2623 -0.0285 -0.0258
 6344TIP3    H140523   2.045   1.220   0.372  0.1596 -1.7101 -0.9669
 6344TIP3    H240524   2.078   1.157   0.506  0.3386  1.2187  0.3901
 6345TIP3   OH240525   4.110   2.245  10.706 -0.2896  0.2114  0.7293
 6345TIP3    H140526   4.059   2.166  10.688 -0.4646  0.2646  0.9947
 6345TIP3    H240527   4.132   2.239  10.799 -2.2115  1.5865  1.2988
 6346TIP3   OH240528   2.319   4.229   4.447  0.2085  0.1614 -0.4282
 6346TIP3    H140529   2.410   4.214   4.474  0.2639  0.3561 -0.5054
 6346TIP3    H240530   2.303   4.322   4.468 -0.0060  0.1001 -0.3142
 6347TIP3   OH240531   6.422   0.839  16.482  0.0620 -0.2950 -0.0947
 6347TIP3    H140532   6.497   0.783  16.464 -0.1141 -0.4462 -0.3672
 6347TIP3    H240533   6.459   0.914  16.528 -0.0931 -1.9126  2.7567
 6348TIP3   OH240534   1.095   5.116  12.463  0.3528  0.4190 -0.2934
 6348TIP3    H140535   1.046   5.198  12.475  1.0005  1.0007 -1.5895
 6348TIP3    H240536   1.177   5.142  12.422  0.5481 -0.8875 -0.7659
 6349TIP3   OH240537   4.940   2.248   0.827  0.1022  0.2533  0.3088
 6349TIP3    H140538   4.863   2.202   0.858  1.6252 -2.6463 -0.0413
 6349TIP3    H240539   5.014   2.200   0.866  1.7907  1.8350 -0.8413
 6350TIP3   OH240540   5.676   4.585  15.963  0.4274  0.3852  0.5174
 6350TIP3    H140541   5.672   4.545  16.049 -0.1925 -0.2675  0.1910
 6350TIP3    H240542   5.605   4.650  15.963 -0.5176 -0.6325 -0.0004
 6351TIP3   OH240543   3.115   6.523  15.553 -0.4250 -0.0018  0.0300
 6351TIP3    H140544   3.071   6.440  15.571  0.6096 -0.6816 -0.5304
 6351TIP3    H240545   3.085   6.548  15.465  0.8172 -0.8226 -0.6484
 6352TIP3   OH240546   4.498   0.623   2.026  0.0348  0.4212  0.2865
 6352TIP3    H140547   4.545   0.552   1.983  0.0006  0.5663  0.0103
 6352TIP3    H240548   4.464   0.677   1.954 -0.1137  0.6027  0.4916
 6353TIP3   OH240549   3.951   0.868  15.054  0.0360  0.3236  0.7342
 6353TIP3    H140550   4.046   0.865  15.064  0.0871 -2.0627  0.0041
 6353TIP3    H240551   3.929   0.961  15.056  2.6567  1.0734 -1.4735
 6354TIP3   OH240552   0.875   3.862  13.797  0.3902  0.2203  0.2208
 6354TIP3    H140553   0.841   3.862  13.707  1.2821  2.6741 -0.1610
 6354TIP3    H240554   0.969   3.844  13.787  0.4584  0.3151  0.6827
 6355TIP3   OH240555   3.130   4.577   3.031 -0.4181 -0.2076 -0.9051
 6355TIP3    H140556   3.217   4.566   3.071 -0.8471  0.2974  0.2016
 6355TIP3    H240557   3.128   4.669   3.005 -0.5059 -0.2966 -1.2094
 6356TIP3   OH240558   2.930   4.787   2.679  0.7146 -0.0346  0.6832
 6356TIP3    H140559   2.914   4.697   2.650  1.6844  0.2968 -0.9210
 6356TIP3    H240560   2.848   4.832   2.660  0.1285 -0.6295  1.7473
 6357TIP3   OH240561   3.908   2.089   1.864 -0.0490 -0.1769 -0.0228
 6357TIP3    H140562   3.861   2.122   1.940 -0.4044 -1.7130  0.4440
 6357TIP3    H240563   3.844   2.091   1.793 -0.1648 -0.1464  0.0825
 6358TIP3   OH240564   4.384   5.383  16.103 -0.4654 -0.2532 -0.0179
 6358TIP3    H140565   4.422   5.303  16.065 -0.0207  0.4932 -1.1638
 6358TIP3    H240566   4.459   5.433  16.134 -0.6862  0.1019 -0.0559
 6359TIP3   OH240567   5.733   5.185   6.023 -0.3979  0.6199  0.2498
 6359TIP3    H140568   5.757   5.278   6.021  0.0001  0.5052 -0.8676
 6359TIP3    H240569   5.781   5.150   6.097 -2.3940  1.7796  2.1551
 6360TIP3   OH240570   3.362   6.736   2.342 -0.0398  0.2170 -0.6000
 6360TIP3    H140571   3.450   6.733   2.304  0.6046 -2.4226  0.9717
 6360TIP3    H240572   3.311   6.674   2.289 -1.0263  1.8388 -1.5955
 6361TIP3   OH240573   2.916   4.523   2.862 -0.3593  0.3555  0.5061
 6361TIP3    H140574   2.917   4.467   2.939  0.0096 -1.4708 -0.8109
 6361TIP3    H240575   3.008   4.532   2.837 -0.4850  0.8236  0.1947
 6362TIP3   OH240576   1.327   2.670   1.689 -0.2672  0.4325 -0.2387
 6362TIP3    H140577   1.381   2.658   1.610 -0.6521 -0.2560 -0.4051
 6362TIP3    H240578   1.320   2.765   1.699  1.1596  0.5277 -0.0904
 6363TIP3   OH240579   2.320   2.663   2.109 -0.3638 -0.1144 -0.0848
 6363TIP3    H140580   2.398   2.685   2.057  0.3435  2.0539  1.8190
 6363TIP3    H240581   2.353   2.605   2.177 -0.5313  0.3015  0.3489
 6364TIP3   OH240582   3.546   0.373   4.602  0.5512  0.2345  0.6754
 6364TIP3    H140583   3.506   0.292   4.632 -0.1199  0.0793 -0.5831
 6364TIP3    H240584   3.482   0.441   4.626  0.1369  0.1408 -0.1519
 6365TIP3   OH240585   1.873   3.162  16.409 -0.4945  0.1490 -0.2966
 6365TIP3    H140586   1.948   3.115  16.373 -1.1142  0.3422 -1.9006
 6365TIP3    H240587   1.799   3.130  16.358 -1.2756  1.1078  0.2260
 6366TIP3   OH240588   6.748   6.063  14.515 -0.8756 -0.1546 -0.2211
 6366TIP3    H140589   6.780   6.100  14.433 -0.7281  0.1615 -0.0239
 6366TIP3    H240590   6.656   6.088  14.519 -1.0747 -0.8276 -0.6568
 6367TIP3   OH240591   6.540   2.986  16.447 -0.5177  0.3361  0.5273
 6367TIP3    H140592   6.463   2.933  16.469 -0.2798 -0.2317  0.0075
 6367TIP3    H240593   6.504   3.072  16.426 -1.0250  0.0401  0.1642
 6368TIP3   OH240594   5.048   3.289  12.576  0.8059  0.3339  0.4538
 6368TIP3    H140595   4.982   3.335  12.628  0.0665 -1.5717  1.2544
 6368TIP3    H240596   5.130   3.332  12.597  0.0561  1.6621  0.7242
 6369TIP3   OH240597   4.560   5.259   5.048  0.3170 -0.0165  0.4198
 6369TIP3    H140598   4.613   5.323   5.096  0.4366  0.5039 -0.3928
 6369TIP3    H240599   4.561   5.290   4.958  1.1346 -1.6717 -0.1641
 6370TIP3   OH240600   4.330   0.249   2.082 -0.2518 -0.4223 -0.4708
 6370TIP3    H140601   4.244   0.256   2.123  0.7031 -0.3538  1.6183
 6370TIP3    H240602   4.341   0.155   2.066 -0.9066 -0.3797 -1.1918
 6371TIP3   OH240603   3.874   3.822  14.470  0.1516 -0.1288 -0.7290
 6371TIP3    H140604   3.842   3.735  14.490  0.0487  0.4149  1.6301
 6371TIP3    H240605   3.943   3.808  14.405  0.5345 -2.0222  0.0630
 6372TIP3   OH240606   1.898   0.314   2.618 -0.3040  0.3225 -0.5871
 6372TIP3    H140607   1.884   0.230   2.573 -1.3366 -0.0728  0.4371
 6372TIP3    H240608   1.898   0.379   2.548  0.5919 -0.5333 -1.4092
 6373TIP3   OH240609   6.224   4.233   3.037  0.5009 -0.3775 -0.5788
 6373TIP3    H140610   6.319   4.239   3.036  0.4713  0.2196 -0.3617
 6373TIP3    H240611   6.205   4.162   3.098  0.7342  1.6892  2.0452
 6374TIP3   OH240612   6.340   2.054  10.636  0.1125 -0.7943  0.6236
 6374TIP3    H140613   6.276   1.994  10.675 -1.3755  1.1910  1.3746
 6374TIP3    H240614   6.311   2.141  10.664  1.8397  0.3329 -0.9368
 6375TIP3   OH240615   1.444   3.667  17.016  0.1195  0.1583  0.3809
 6375TIP3    H140616   1.400   3.744  17.052  0.3472  1.0726 -1.2184
 6375TIP3    H240617   1.500   3.702  16.946 -1.0069 -1.6109 -1.4722
 6376TIP3   OH240618   0.603   3.335   1.297 -0.3665 -0.1984  0.7406
 6376TIP3    H140619   0.511   3.319   1.278  0.0196 -1.3844 -0.2062
 6376TIP3    H240620   0.642   3.248   1.305  0.8722  0.2700  0.0746
 6377TIP3   OH240621   2.576   1.387  15.936  0.1296  0.4540  0.6971
 6377TIP3    H140622   2.589   1.439  16.015  0.1945  1.2282  0.1888
 6377TIP3    H240623   2.655   1.334  15.929  0.2200  0.5419  1.0328
 6378TIP3   OH240624   0.712   2.167  17.186  0.3667  0.2807 -0.4518
 6378TIP3    H140625   0.636   2.225  17.183 -0.1868 -0.4320 -0.3342
 6378TIP3    H240626   0.710   2.127  17.273 -0.1714 -1.1079 -1.0785
 6379TIP3   OH240627   3.732   2.980  12.970 -0.1225  0.7815 -0.3278
 6379TIP3    H140628   3.750   2.962  12.878  0.0730 -2.1237  0.2360
 6379TIP3    H240629   3.817   2.973  13.013  0.0794  3.8117 -0.1227
 6380TIP3   OH240630   1.084   6.562   0.952 -0.0416  0.1305  0.7650
 6380TIP3    H140631   1.163   6.616   0.946 -0.5460  0.7634 -0.4140
 6380TIP3    H240632   1.107   6.493   1.014  1.0754  0.9166  1.2404
 6381TIP3   OH240633   3.676   4.009   6.308  0.1378 -0.1103 -0.2283
 6381TIP3    H140634   3.695   4.056   6.227 -0.1832  3.2368  1.5672
 6381TIP3    H240635   3.758   4.010   6.357  0.1289 -1.4694 -0.1565
 6382TIP3   OH240636   5.245   5.466  16.157  0.0580  0.3426 -0.0035
 6382TIP3    H140637   5.317   5.521  16.126  0.5369 -0.1809  0.1676
 6382TIP3    H240638   5.189   5.454  16.081 -1.0129  2.5638  0.4112
 6383TIP3   OH240639   1.449   3.284   4.165  0.0552  0.4327 -0.4885
 6383TIP3    H140640   1.400   3.333   4.230 -0.8691 -0.8489 -0.1861
 6383TIP3    H240641   1.396   3.290   4.086 -0.7992 -1.2616 -0.0641
 6384TIP3   OH240642   3.798   6.486   0.708  0.2695 -0.0901  0.3696
 6384TIP3    H140643   3.891   6.477   0.687  0.1800 -0.2005  0.0141
 6384TIP3    H240644   3.791   6.457   0.799  0.9708  2.1861  1.1702
 6385TIP3   OH240645   5.681   1.525  13.718  0.3072  0.1232  0.0007
 6385TIP3    H140646   5.701   1.565  13.634 -1.0301 -1.1155 -0.9377
 6385TIP3    H240647   5.600   1.568  13.747  0.4969  0.2069  0.4158
 6386TIP3   OH240648   4.331   6.414   0.529  0.1178 -0.2536 -0.0448
 6386TIP3    H140649   4.317   6.389   0.437 -0.6560  0.6184 -0.1746
 6386TIP3    H240650   4.390   6.489   0.524  1.2235 -1.1014  0.2557
 6387TIP3   OH240651   0.995   4.927   0.270 -0.3625 -0.1406  0.5647
 6387TIP3    H140652   0.956   4.843   0.246 -0.0291 -0.2164  0.2704
 6387TIP3    H240653   0.934   4.993   0.237  0.4442 -0.2288 -1.1915
 6388TIP3   OH240654   5.100   3.865   4.478  0.2959  0.5040 -0.2815
 6388TIP3    H140655   5.043   3.860   4.556  1.7530  0.6797  0.8055
 6388TIP3    H240656   5.099   3.776   4.443 -0.3986  0.4304 -0.0918
 6389TIP3   OH240657   1.689   2.104  12.641  0.2636  0.8732  0.4201
 6389TIP3    H140658   1.768   2.107  12.694  0.8663 -0.9606 -0.3702
 6389TIP3    H240659   1.720   2.096  12.551 -0.8211 -1.3091  0.2211
 6390TIP3   OH240660   4.975   5.780   5.249 -0.3726  0.4026 -0.0015
 6390TIP3    H140661   4.954   5.873   5.241  0.6272  0.6060 -0.3750
 6390TIP3    H240662   5.057   5.779   5.299 -0.6864 -0.3055  0.4957
 6391TIP3   OH240663   6.174   1.683  15.534  0.2903  0.3011 -0.2167
 6391TIP3    H140664   6.174   1.736  15.614  0.6283 -0.1337  0.0769
 6391TIP3    H240665   6.226   1.733  15.472  0.5227  0.3644  0.0261
 6392TIP3   OH240666   4.493   2.099  13.685 -0.0497 -0.2224  0.7044
 6392TIP3    H140667   4.437   2.059  13.751 -0.5418 -2.5689 -1.0589
 6392TIP3    H240668   4.562   2.034  13.670  1.6023  1.4496  0.8583
 6393TIP3   OH240669   4.492   5.313   0.959 -0.0223  0.4854 -0.3952
 6393TIP3    H140670   4.412   5.284   1.005  0.9050 -3.1164 -0.9165
 6393TIP3    H240671   4.476   5.293   0.867  1.3940 -0.0372 -0.5381
 6394TIP3   OH240672   1.484   2.470  14.023 -0.3896 -0.1139  0.6710
 6394TIP3    H140673   1.411   2.470  14.085  1.1270 -0.2996  2.4863
 6394TIP3    H240674   1.452   2.522  13.949 -1.9821  0.6413  1.8634
 6395TIP3   OH240675   1.762   5.751   1.118 -0.4618 -0.2416  0.5136
 6395TIP3    H140676   1.687   5.715   1.070 -0.4618  2.5499 -1.7632
 6395TIP3    H240677   1.838   5.705   1.084 -0.4816  1.5975 -2.2066
 6396TIP3   OH240678   3.135   5.437   1.466 -0.7956  0.3217  0.0501
 6396TIP3    H140679   3.089   5.400   1.542  0.4318 -1.1047  0.1279
 6396TIP3    H240680   3.109   5.382   1.393  0.2759 -0.0848 -0.0252
 6397TIP3   OH240681   2.897   3.104  16.548  0.2750  0.4680  0.4847
 6397TIP3    H140682   2.909   3.194  16.579  1.8263  0.1995  0.7072
 6397TIP3    H240683   2.818   3.074  16.593  0.6330  1.1949  1.6302
 6398TIP3   OH240684   2.219   2.227   3.379 -0.0754 -0.2028  0.5076
 6398TIP3    H140685   2.166   2.163   3.332  1.8152 -0.8692 -0.7675
 6398TIP3    H240686   2.161   2.303   3.391 -0.9679 -0.5083 -1.7913
 6399TIP3   OH240687   1.101   6.678   0.412  0.5335 -0.0172  0.3513
 6399TIP3    H140688   1.060   6.592   0.415  0.5097  0.0000  0.5871
 6399TIP3    H240689   1.093   6.711   0.502  0.9364  0.0425  0.3690
 6400TIP3   OH240690   5.654   4.969   6.660 -0.1551 -0.2644  0.2596
 6400TIP3    H140691   5.749   4.971   6.648 -0.0838 -1.1756  0.6080
 6400TIP3    H240692   5.627   4.884   6.625 -1.3147  1.3855 -2.9633
 6401TIP3   OH240693   1.689   3.448  13.769 -0.4550 -0.0710  0.2542
 6401TIP3    H140694   1.630   3.418  13.699  0.5752  0.9194 -1.0745
 6401TIP3    H240695   1.657   3.536  13.791 -0.6307 -0.2872  0.8618
 6402TIP3   OH240696   3.674   6.506  11.271  0.3452 -0.3951  0.2370
 6402TIP3    H140697   3.672   6.602  11.276 -0.2699 -0.4685  1.7164
 6402TIP3    H240698   3.736   6.487  11.201  0.7330  1.0842  0.1543
 6403TIP3   OH240699   4.941   6.073  13.924  0.5909  0.6240 -0.2348
 6403TIP3    H140700   4.872   6.124  13.965  0.9093  0.5395  0.4075
 6403TIP3    H240701   4.960   6.002  13.986  1.3793  0.7522 -0.3171
 6404TIP3   OH240702   4.430   3.963  14.829  0.0125  0.2629 -0.3839
 6404TIP3    H140703   4.404   3.895  14.891  1.6064  0.4128  0.4649
 6404TIP3    H240704   4.431   4.044  14.880  0.7353  0.4866 -0.7361
 6405TIP3   OH240705   0.237   3.819   5.502 -0.1551  0.5680  0.0917
 6405TIP3    H140706   0.314   3.820   5.559  0.8078 -0.5300 -1.1427
 6405TIP3    H240707   0.163   3.816   5.562  0.8322 -0.5713  1.2940
 6406TIP3   OH240708   1.206   4.139  14.560 -0.5258  0.1177 -0.8596
 6406TIP3    H140709   1.291   4.185  14.558 -0.2170 -0.3647  0.6917
 6406TIP3    H240710   1.222   4.061  14.613 -2.0267  0.1845 -0.2863
 6407TIP3   OH240711   1.222   1.247  16.040  0.2850 -0.1647  0.0505
 6407TIP3    H140712   1.140   1.297  16.043 -0.0637 -0.7340  0.1732
 6407TIP3    H240713   1.205   1.179  15.974  0.8684  0.0731 -0.3470
 6408TIP3   OH240714   0.749   6.064  13.036 -0.1377 -0.1830 -0.3726
 6408TIP3    H140715   0.821   6.075  12.975  0.5182  1.7079  0.7255
 6408TIP3    H240716   0.783   6.092  13.120 -1.5414 -1.1750  0.5641
 6409TIP3   OH240717   2.796   3.034   2.005  0.4817  0.0781  0.0149
 6409TIP3    H140718   2.751   3.101   1.953 -0.5287 -1.1630 -0.7402
 6409TIP3    H240719   2.851   2.987   1.942  0.4366 -0.4282  0.3530
 6410TIP3   OH240720   2.279   5.306   4.793 -0.0795  0.1169 -0.0423
 6410TIP3    H140721   2.184   5.302   4.799 -0.0564  0.4443  0.6992
 6410TIP3    H240722   2.309   5.284   4.882  0.4823  1.2471  0.0575
 6411TIP3   OH240723   0.055   3.856  16.079 -0.0485 -0.1249 -0.3097
 6411TIP3    H140724   0.094   3.781  16.125  0.2152 -0.3672 -0.9100
 6411TIP3    H240725   0.116   3.928  16.095  0.0076 -0.1925 -0.2159
 6412TIP3   OH240726   5.629   0.029   0.411  0.1714 -0.1043  0.2717
 6412TIP3    H140727   5.543   0.003   0.377  0.6766 -1.8582  0.2530
 6412TIP3    H240728   5.616   0.116   0.447 -0.7721  1.1476 -2.9770
 6413TIP3   OH240729   5.312   3.593   5.324  0.0112  0.0937  0.3030
 6413TIP3    H140730   5.349   3.504   5.332 -0.1825  0.0453  0.7117
 6413TIP3    H240731   5.283   3.614   5.413  0.2093  0.6343  0.2379
 6414TIP3   OH240732   3.322   6.513   5.493  0.9354 -0.3796 -0.1805
 6414TIP3    H140733   3.242   6.460   5.487  0.5826 -0.0235  1.0604
 6414TIP3    H240734   3.312   6.561   5.575  1.0908  1.8738 -1.4513
 6415TIP3   OH240735   1.033   6.511  14.775 -0.4129  0.0901  0.0926
 6415TIP3    H140736   1.093   6.452  14.820 -0.7042 -0.2906 -0.0132
 6415TIP3    H240737   1.036   6.592  14.826  0.4342  0.1870 -0.0998
 6416TIP3   OH240738   5.703   1.107   1.014 -0.4939  0.2409  0.0384
 6416TIP3    H140739   5.624   1.159   1.003  0.7168  2.1602  0.1251
 6416TIP3    H240740   5.754   1.124   0.935 -0.4465 -1.4933 -0.3120
 6417TIP3   OH240741   3.037   2.743  14.696 -0.0815  0.0231 -0.8675
 6417TIP3    H140742   3.129   2.767  14.684 -0.3980  1.3294 -0.7578
 6417TIP3    H240743   3.040   2.654  14.733  1.1537  0.4899  0.2000
 6418TIP3   OH240744   5.553   4.883  15.961  0.4450  0.2247 -0.4943
 6418TIP3    H140745   5.482   4.888  15.897  0.7846 -1.8214 -1.0703
 6418TIP3    H240746   5.622   4.939  15.925 -0.4809  1.4246 -0.4269
 6419TIP3   OH240747   5.604   4.726   2.974  0.3186  0.4621 -0.3232
 6419TIP3    H140748   5.563   4.712   2.889  1.8785  0.9938 -1.1785
 6419TIP3    H240749   5.582   4.647   3.024  3.2956 -2.0396 -2.7849
 6420TIP3   OH240750   6.509   0.617   5.775 -0.0759 -0.0726 -0.1083
 6420TIP3    H140751   6.532   0.573   5.857 -0.5923  1.4057  0.8500
 6420TIP3    H240752   6.516   0.549   5.708  2.6659 -0.7559  0.8112
 6421TIP3   OH240753   4.137   2.359   2.376  0.2596  0.5357 -0.3192
 6421TIP3    H140754   4.098   2.437   2.336  1.0868  0.0928 -2.0519
 6421TIP3    H240755   4.226   2.386   2.399  0.6730  0.0149 -1.2696
 6422TIP3   OH240756   0.185   3.747  16.338 -0.1553 -0.3632  0.0523
 6422TIP3    H140757   0.111   3.798  16.369 -0.5804 -1.0501  0.1798
 6422TIP3    H240758   0.213   3.697  16.415  0.1965 -0.3891 -0.0910
 6423TIP3   OH240759   6.295   2.897  16.575  0.2644 -0.3341  0.0923
 6423TIP3    H140760   6.217   2.914  16.628  1.7125  1.9168  1.5601
 6423TIP3    H240761   6.302   2.802  16.573 -2.1112 -0.5490  0.5455
 6424TIP3   OH240762   6.334   3.789   1.021  0.0501  0.1634  0.6264
 6424TIP3    H140763   6.354   3.768   1.112 -1.0552  0.7336  1.0075
 6424TIP3    H240764   6.242   3.763   1.011  0.4146 -0.6903 -0.5633
 6425TIP3   OH240765   5.976   4.061   3.980 -0.4587  0.6278 -0.4859
 6425TIP3    H140766   5.911   4.101   3.923 -0.7385  2.1798  0.9002
 6425TIP3    H240767   6.060   4.086   3.942 -0.6479  0.1568 -1.2263
 6426TIP3   OH240768   2.235   6.052   0.971  0.5126 -0.3628 -0.0657
 6426TIP3    H140769   2.301   6.112   0.936 -0.3116  0.7868  0.3280
 6426TIP3    H240770   2.180   6.031   0.895 -1.1581  1.9784  0.4618
 6427TIP3   OH240771   3.354   5.002   3.357  0.1524  0.2983  0.2046
 6427TIP3    H140772   3.389   5.009   3.269  0.8159 -2.4207  0.1971
 6427TIP3    H240773   3.423   5.037   3.413  0.3482  0.6435 -0.2495
 6428TIP3   OH240774   1.404   0.155  12.059 -0.1056  0.0856  0.4776
 6428TIP3    H140775   1.381   0.113  11.976  0.9503  0.6850 -0.1194
 6428TIP3    H240776   1.459   0.091  12.104  0.5755  0.3687  0.0535
 6429TIP3   OH240777   6.208   0.608  12.385  0.1609 -0.2063 -0.3353
 6429TIP3    H140778   6.236   0.524  12.350  1.2798 -0.3385  0.8283
 6429TIP3    H240779   6.216   0.669  12.312 -0.5596 -1.0974 -1.1540
 6430TIP3   OH240780   5.445   6.213  13.621 -0.2652  0.5351 -1.0257
 6430TIP3    H140781   5.351   6.208  13.604 -0.2960  1.5726 -1.1444
 6430TIP3    H240782   5.460   6.147  13.688 -1.4002  1.6796  0.3771
 6431TIP3   OH240783   4.010   0.974  12.237 -0.3916 -0.0721  0.6781
 6431TIP3    H140784   4.031   1.066  12.255  0.8526 -0.0393 -0.8399
 6431TIP3    H240785   3.945   0.978  12.167  0.5892 -0.3831 -0.2473
 6432TIP3   OH240786   0.525   0.798  12.651  0.0449 -0.2390  0.2056
 6432TIP3    H140787   0.506   0.846  12.570 -1.0316 -1.0371 -0.0142
 6432TIP3    H240788   0.452   0.817  12.709  1.1658  0.9144  1.2781
 6433TIP3   OH240789   5.833   1.364   6.508 -0.0498 -0.2142 -0.1541
 6433TIP3    H140790   5.770   1.437   6.516 -0.2335 -0.4118  0.1993
 6433TIP3    H240791   5.781   1.286   6.523  0.5910 -0.2928  1.8002
 6434TIP3   OH240792   2.457   5.936  11.351  0.2655  0.3597 -0.3196
 6434TIP3    H140793   2.400   5.960  11.278  0.5341 -0.1717 -0.7062
 6434TIP3    H240794   2.545   5.956  11.320  0.3131  0.8379  0.1392
 6435TIP3   OH240795   0.444   4.840   4.835 -0.5429  0.1468  0.1744
 6435TIP3    H140796   0.511   4.857   4.768 -0.0147 -0.0325  0.6543
 6435TIP3    H240797   0.363   4.828   4.785 -0.5355  2.0043 -0.3168
 6436TIP3   OH240798   3.333   2.993   1.735 -0.0558 -0.0239 -0.3314
 6436TIP3    H140799   3.399   3.021   1.799  0.7292 -1.0988 -0.6593
 6436TIP3    H240800   3.257   3.047   1.754  0.4791  0.3031  0.9220
 6437TIP3   OH240801   0.269   6.242  12.546  0.1231 -0.2377 -0.2303
 6437TIP3    H140802   0.204   6.288  12.493  1.1849  0.9988 -0.5023
 6437TIP3    H240803   0.221   6.171  12.587 -1.3717  0.5771 -0.5232
 6438TIP3   OH240804   4.303   5.357  15.766  0.0819  0.2560  0.1016
 6438TIP3    H140805   4.324   5.269  15.734 -1.1982 -0.6599  1.6702
 6438TIP3    H240806   4.332   5.416  15.697 -1.9993 -1.5829 -2.4466
 6439TIP3   OH240807   2.465   1.987  12.592 -0.0033 -0.1222  0.2450
 6439TIP3    H140808   2.379   2.010  12.628  0.9227  0.1211  2.3782
 6439TIP3    H240809   2.477   2.045  12.518 -0.8854  1.1378  1.0702
 6440TIP3   OH240810   1.682   0.075   3.399 -0.4658 -0.6046 -0.6833
 6440TIP3    H140811   1.755   0.030   3.441  0.9101  1.6425 -0.6140
 6440TIP3    H240812   1.700   0.068   3.305 -1.4359 -2.1026 -0.7836
 6441TIP3   OH240813   4.371   3.505   3.008 -0.2707 -0.2218 -0.1923
 6441TIP3    H140814   4.459   3.525   3.039  0.4427 -2.0444 -0.9568
 6441TIP3    H240815   4.342   3.431   3.061 -0.8009 -0.4961 -0.8408
 6442TIP3   OH240816   2.027   2.423   0.324 -0.1007  0.2004  0.8315
 6442TIP3    H140817   1.953   2.465   0.279  0.2743 -0.5113 -0.4459
 6442TIP3    H240818   2.103   2.474   0.298  0.2629 -0.8509 -0.1791
 6443TIP3   OH240819   5.438   6.376   2.621  0.3880  0.2205 -0.2819
 6443TIP3    H140820   5.395   6.291   2.633 -0.6728  0.8904  0.7570
 6443TIP3    H240821   5.366   6.438   2.612  1.0839  1.6063  3.2120
 6444TIP3   OH240822   3.218   5.401  15.259 -0.1160 -0.3854  0.1305
 6444TIP3    H140823   3.204   5.346  15.337 -2.1754 -1.1589 -0.7442
 6444TIP3    H240824   3.206   5.491  15.291 -1.2090 -0.7132  0.6770
 6445TIP3   OH240825   6.811   2.730  15.203  0.4203 -0.4756 -0.0840
 6445TIP3    H140826   6.778   2.662  15.262 -1.4714 -0.0091 -0.5792
 6445TIP3    H240827   6.832   2.683  15.122 -1.9487 -0.3073 -0.8069
 6446TIP3   OH240828   1.264   4.014  14.309 -0.5445 -0.2440 -0.4031
 6446TIP3    H140829   1.177   3.987  14.277 -0.7248 -1.7240  1.2226
 6446TIP3    H240830   1.250   4.036  14.401  0.9895 -1.5900  0.1878
 6447TIP3   OH240831   6.668   3.782   5.713 -0.1669 -0.0661  0.3680
 6447TIP3    H140832   6.657   3.784   5.618  0.8965 -1.5908  0.1839
 6447TIP3    H240833   6.737   3.846   5.732  1.6420 -1.7969 -0.2269
 6448TIP3   OH240834   1.593   2.750  12.962 -0.1430  0.0275 -0.0201
 6448TIP3    H140835   1.562   2.716  12.879  2.6181  0.8902 -1.4829
 6448TIP3    H240836   1.635   2.675  13.005 -0.4007 -0.1023  0.0055
 6449TIP3   OH240837   1.911   5.542  14.196 -0.5842  0.4823 -0.4154
 6449TIP3    H140838   1.915   5.523  14.289 -0.4064 -1.7453 -0.8661
 6449TIP3    H240839   1.828   5.504  14.167  0.6446 -1.2971 -1.6935
 6450TIP3   OH240840   3.120   3.071   2.284  0.0856  0.2314 -0.8233
 6450TIP3    H140841   3.144   3.065   2.376 -0.5676  1.2760 -0.5758
 6450TIP3    H240842   3.034   3.029   2.279  1.2079 -2.0619 -1.4179
 6451TIP3   OH240843   1.260   5.565  11.607  0.1189 -0.3274 -0.1395
 6451TIP3    H140844   1.264   5.647  11.656  0.2420 -1.0046  1.0297
 6451TIP3    H240845   1.330   5.511  11.646 -0.4904 -1.2691 -0.3316
 6452TIP3   OH240846   2.622   4.471   1.716  0.1420  0.3911 -0.7624
 6452TIP3    H140847   2.713   4.493   1.737  0.1010  1.3975 -1.6191
 6452TIP3    H240848   2.628   4.386   1.672  0.8484  1.2184 -2.2958
 6453TIP3   OH240849   4.109   1.332  15.517  0.1845  0.3955 -0.3461
 6453TIP3    H140850   4.043   1.271  15.550  0.2428  0.5534  0.0640
 6453TIP3    H240851   4.185   1.317  15.572  1.1546 -1.1763 -2.0552
 6454TIP3   OH240852   1.818   2.067  11.361 -0.4066  0.2367  0.1684
 6454TIP3    H140853   1.751   2.070  11.430 -1.3474  0.1509 -0.7313
 6454TIP3    H240854   1.785   2.126  11.293  0.2298 -0.1361 -0.4695
 6455TIP3   OH240855   4.657   5.806  11.935  0.0851  0.2952  0.0832
 6455TIP3    H140856   4.577   5.854  11.954  0.5685  1.3060 -0.3914
 6455TIP3    H240857   4.659   5.799  11.839 -1.0958 -2.6140  0.2048
 6456TIP3   OH240858   6.440   1.096   2.938 -0.0233 -0.1751  0.6984
 6456TIP3    H140859   6.436   1.000   2.936  2.2776 -0.3199 -1.8275
 6456TIP3    H240860   6.360   1.125   2.894 -0.7531 -0.9213  1.5198
 6457TIP3   OH240861   3.296   0.460   0.620  0.4613  0.3613  0.1275
 6457TIP3    H140862   3.380   0.439   0.660  0.7785  0.6880 -0.3580
 6457TIP3    H240863   3.231   0.413   0.673  1.0214 -0.5803  0.0025
 6458TIP3   OH240864   0.154   4.378   2.905 -0.1220  0.0177  0.7332
 6458TIP3    H140865   0.083   4.408   2.849 -0.2574 -0.9817  0.3600
 6458TIP3    H240866   0.149   4.435   2.982 -0.0293  1.2971 -0.1863
 6459TIP3   OH240867   1.401   1.218   5.254 -0.3699  0.4411 -0.2821
 6459TIP3    H140868   1.401   1.143   5.194 -0.2327 -0.7806  1.2267
 6459TIP3    H240869   1.438   1.184   5.335 -0.0446  2.2283  0.3342
 6460TIP3   OH240870   5.751   5.890  10.830 -0.2564 -0.4541  0.0370
 6460TIP3    H140871   5.715   5.961  10.777 -2.4674 -1.2784  0.3905
 6460TIP3    H240872   5.744   5.812  10.773 -0.1202 -0.8502  0.5585
 6461TIP3   OH240873   1.986   2.480  17.148  0.0896 -0.2180 -0.1891
 6461TIP3    H140874   1.928   2.405  17.163 -0.2217 -0.3057 -1.8176
 6461TIP3    H240875   2.059   2.466  17.209  0.7498 -2.6072 -1.4908
 6462TIP3   OH240876   2.314   0.313   2.257 -0.1833 -0.5258 -0.2703
 6462TIP3    H140877   2.301   0.358   2.340 -0.4524 -0.1794 -0.4946
 6462TIP3    H240878   2.382   0.249   2.274  0.9597  0.6797 -0.1946
 6463TIP3   OH240879   5.811   0.147  16.080  0.1807  0.0300 -0.1713
 6463TIP3    H140880   5.820   0.232  16.123 -1.4909 -0.2098  0.7254
 6463TIP3    H240881   5.716   0.137  16.067  0.4039 -1.4379 -0.7785
 6464TIP3   OH240882   1.893   3.917   4.493 -0.1556  0.4966 -0.3038
 6464TIP3    H140883   1.973   3.874   4.523 -0.4655  0.0683 -0.0834
 6464TIP3    H240884   1.848   3.851   4.441 -0.2444  0.8194 -0.6431
 6465TIP3   OH240885   4.186   6.724  12.974 -0.7236 -0.1089 -0.5589
 6465TIP3    H140886   4.211   6.633  12.959  0.1199  0.0497 -0.1561
 6465TIP3    H240887   4.115   6.740  12.912 -0.7189 -0.9707 -0.7916
 6466TIP3   OH240888   1.693   5.649  11.302 -0.0564 -0.1737  0.0785
 6466TIP3    H140889   1.712   5.741  11.316  0.1714 -0.1653 -0.2778
 6466TIP3    H240890   1.704   5.636  11.208 -1.6429 -0.2195 -0.1167
 6467TIP3   OH240891   4.964   0.321  16.684 -0.6789  0.2449  0.0821
 6467TIP3    H140892   5.036   0.367  16.640  0.2941 -2.0677 -0.8798
 6467TIP3    H240893   4.978   0.338  16.777  1.1718 -0.1611 -0.0902
 6468TIP3   OH240894   3.505   3.884  17.131  0.6613 -0.8233  0.0178
 6468TIP3    H140895   3.418   3.845  17.140  0.3242  0.0104  0.4464
 6468TIP3    H240896   3.560   3.834  17.191 -0.2365  0.7133  2.2023
 6469TIP3   OH240897   2.524   6.725  16.848  0.0017  0.1078 -0.6538
 6469TIP3    H140898   2.459   6.752  16.784 -1.5825  1.7348  1.5620
 6469TIP3    H240899   2.505   6.633  16.864 -3.0526  1.0195  1.3691
 6470TIP3   OH240900   2.544   1.651   3.685  0.2568  0.0229 -0.1975
 6470TIP3    H140901   2.594   1.600   3.747 -0.4394 -0.8873 -0.3765
 6470TIP3    H240902   2.473   1.690   3.737 -0.3154 -0.7250 -0.4175
 6471TIP3   OH240903   1.438   3.815   1.848  0.1156  0.2572  0.4948
 6471TIP3    H140904   1.395   3.810   1.933 -1.4302  0.3173 -0.2732
 6471TIP3    H240905   1.371   3.788   1.785  1.1961  0.3504 -0.7219
 6472TIP3   OH240906   6.449   6.600   0.845 -0.7658 -0.0850  0.1821
 6472TIP3    H140907   6.388   6.567   0.779 -0.2907 -0.7472  0.0660
 6472TIP3    H240908   6.500   6.666   0.798 -0.7764 -0.1873  0.0261
 6473TIP3   OH240909   2.760   2.559   1.848  0.1427 -0.1076 -0.2043
 6473TIP3    H140910   2.852   2.566   1.819  0.4290  0.0803  0.7325
 6473TIP3    H240911   2.740   2.466   1.840 -0.2676  0.1455 -2.4372
 6474TIP3   OH240912   3.887   4.933  17.046  0.7302  0.1141  0.1910
 6474TIP3    H140913   3.830   4.859  17.068  1.8577 -0.8039  0.0797
 6474TIP3    H240914   3.865   4.999  17.112 -0.1278 -0.3912  0.4303
 6475TIP3   OH240915   6.520   0.340   4.659  0.1699 -0.0720  0.3669
 6475TIP3    H140916   6.571   0.421   4.653 -1.5819  0.9948 -0.5593
 6475TIP3    H240917   6.463   0.353   4.734  0.6743 -0.9413  0.9182
 6476TIP3   OH240918   5.823   0.543  13.416 -0.1539 -0.2020  0.2424
 6476TIP3    H140919   5.875   0.527  13.494  1.2204  2.5437 -0.0412
 6476TIP3    H240920   5.806   0.455  13.380  0.6676 -1.3844  2.6307
 6477TIP3   OH240921   5.089   3.436  11.130  0.5757 -0.4562 -0.5354
 6477TIP3    H140922   5.157   3.503  11.131 -2.2297  2.5772  2.1643
 6477TIP3    H240923   5.032   3.462  11.057 -0.5438  0.1584  0.5476
 6478TIP3   OH240924   5.603   0.174   3.861 -1.1434 -0.2483  0.4114
 6478TIP3    H140925   5.681   0.218   3.828 -1.4216  0.2213  0.3804
 6478TIP3    H240926   5.630   0.139   3.946 -1.1351  0.5994  0.7576
 6479TIP3   OH240927   6.198   1.544   1.746  0.1694 -0.0095 -0.4650
 6479TIP3    H140928   6.288   1.519   1.766  0.3260  0.9626  0.0550
 6479TIP3    H240929   6.148   1.514   1.823  0.4237  1.6552  0.3608
 6480TIP3   OH240930   6.411   4.816  12.570  0.7699 -0.4469 -0.0970
 6480TIP3    H140931   6.338   4.758  12.592 -0.1441  0.3687 -0.9392
 6480TIP3    H240932   6.435   4.857  12.653  0.5387 -1.0171  0.2585
 6481TIP3   OH240933   0.221   6.412   0.693  0.3093  0.4487 -0.1885
 6481TIP3    H140934   0.249   6.459   0.771  0.6630  0.9575 -0.6104
 6481TIP3    H240935   0.204   6.482   0.629 -1.2339  0.1192 -0.1637
 6482TIP3   OH240936   1.352   5.709   2.192 -0.0523 -0.1187  0.3803
 6482TIP3    H140937   1.406   5.738   2.266  0.7631 -0.8337  0.0748
 6482TIP3    H240938   1.345   5.615   2.204 -1.6080  0.0304  0.6504
 6483TIP3   OH240939   3.636   2.919  11.132 -0.4395 -0.1185 -0.4319
 6483TIP3    H140940   3.584   2.976  11.075 -0.4845 -0.5062 -0.7790
 6483TIP3    H240941   3.704   2.977  11.167 -2.3107  0.9005  1.6727
 6484TIP3   OH240942   1.104   5.598  16.631  0.3267 -0.0514 -0.2811
 6484TIP3    H140943   1.087   5.575  16.540 -0.1272 -0.0419 -0.1971
 6484TIP3    H240944   1.088   5.692  16.636  0.1802 -0.0843 -0.1491
 6485TIP3   OH240945   2.277   0.893   2.186 -0.3904 -0.3294  0.6736
 6485TIP3    H140946   2.281   0.880   2.091  0.0076  0.4162  0.5901
 6485TIP3    H240947   2.183   0.888   2.206 -0.4531 -0.7910  0.2881
 6486TIP3   OH240948   6.161   6.133   4.964  0.0887 -0.4980 -0.2651
 6486TIP3    H140949   6.094   6.149   4.897 -1.1023  1.6507  1.3754
 6486TIP3    H240950   6.228   6.081   4.919 -1.7223 -0.9965 -2.4912
 6487TIP3   OH240951   2.786   3.439  15.316 -0.4259  0.2884  0.1694
 6487TIP3    H140952   2.821   3.526  15.297  1.0628 -0.1315  0.8795
 6487TIP3    H240953   2.737   3.450  15.397 -1.8517  0.8557 -0.7597
 6488TIP3   OH240954   6.207   1.860   5.361 -0.1177 -0.0475 -0.8619
 6488TIP3    H140955   6.132   1.920   5.357 -0.6198 -0.6737 -0.8727
 6488TIP3    H240956   6.251   1.871   5.276  0.1647  0.7799 -0.6114
 6489TIP3   OH240957   4.015   1.068   5.310 -0.2139 -0.7149 -0.1853
 6489TIP3    H140958   3.931   1.104   5.338  0.5163  0.7257  0.2132
 6489TIP3    H240959   4.079   1.134   5.336  1.0259 -1.7190 -0.6376
 6490TIP3   OH240960   6.528   5.021   3.225  0.2386  0.4619 -0.1576
 6490TIP3    H140961   6.624   5.011   3.222  0.1945  0.1564 -0.5652
 6490TIP3    H240962   6.497   4.940   3.266  0.1195  0.3613 -0.4488
 6491TIP3   OH240963   1.033   3.072  12.433  0.2208 -0.2430 -0.3109
 6491TIP3    H140964   1.023   3.167  12.438 -0.4418 -0.2291 -1.6217
 6491TIP3    H240965   0.943   3.039  12.428  0.3736 -1.0593  1.7444
 6492TIP3   OH240966   6.420   3.630   0.599 -0.1968 -0.3621  0.0866
 6492TIP3    H140967   6.385   3.702   0.546 -0.7766 -0.5009  0.2762
 6492TIP3    H240968   6.471   3.673   0.668  0.3350 -0.1722 -0.4256
 6493TIP3   OH240969   2.882   4.750   0.472  0.8067  0.0081 -0.6549
 6493TIP3    H140970   2.866   4.692   0.546  1.6026  0.9094  0.2336
 6493TIP3    H240971   2.803   4.743   0.418  0.0790 -0.3814  0.4586
 6494TIP3   OH240972   6.015   0.588   2.798 -0.5456  0.3180 -0.1609
 6494TIP3    H140973   6.038   0.570   2.706 -0.9529 -1.6704  0.1106
 6494TIP3    H240974   6.060   0.671   2.817  1.8231 -0.6391 -1.3190
 6495TIP3   OH240975   2.605   4.092  16.744 -0.0639  0.3259 -0.5793
 6495TIP3    H140976   2.579   4.067  16.655 -0.1535 -0.9858 -0.1978
 6495TIP3    H240977   2.699   4.076  16.747 -0.1069  0.1021 -0.3635
 6496TIP3   OH240978   0.760   5.020  15.799 -0.3794  0.2687  0.0511
 6496TIP3    H140979   0.729   5.017  15.889  1.4103 -1.7077  0.6475
 6496TIP3    H240980   0.734   5.106  15.767 -1.4814  0.7903  2.2818
 6497TIP3   OH240981   3.110   0.775  16.072 -0.3231  0.3141  1.0561
 6497TIP3    H140982   3.028   0.727  16.087 -0.6196  0.7437  0.8105
 6497TIP3    H240983   3.139   0.800  16.160 -0.8651  0.8367  1.0961
 6498TIP3   OH240984   0.138   3.609   3.872 -0.0578  0.1708  0.3482
 6498TIP3    H140985   0.142   3.600   3.777  1.1052 -1.1622  0.4926
 6498TIP3    H240986   0.227   3.588   3.902 -0.6264 -0.2925  1.7782
 6499TIP3   OH240987   5.193   6.446   0.211 -0.1888  0.0655  0.0006
 6499TIP3    H140988   5.134   6.375   0.184 -0.4599  0.6065 -0.8390
 6499TIP3    H240989   5.267   6.400   0.251 -0.5111 -0.6836 -0.2371
 6500TIP3   OH240990   1.406   0.955   2.939 -0.3873  0.0246 -0.1291
 6500TIP3    H140991   1.456   0.878   2.965 -1.2034 -0.3285  0.4388
 6500TIP3    H240992   1.414   1.015   3.013  0.1825  0.4606 -0.5383
 6501TIP3   OH240993   6.641   5.357  10.460  0.3571  0.2741  0.1338
 6501TIP3    H140994   6.546   5.350  10.472  0.2711  1.0121 -0.0787
 6501TIP3    H240995   6.672   5.266  10.462 -0.5884 -0.1280 -1.7212
 6502TIP3   OH240996   1.947   3.778   5.723  0.2462 -0.9586 -0.2895
 6502TIP3    H140997   1.950   3.796   5.629  0.0865  0.5178 -0.0249
 6502TIP3    H240998   1.999   3.698   5.734  1.9461 -0.0227 -1.3663
 6503TIP3   OH240999   0.293   0.826  12.814 -0.1690 -0.9243 -0.0440
 6503TIP3    H141000   0.241   0.891  12.862  1.2430 -0.7679  1.3336
 6503TIP3    H241001   0.251   0.742  12.833 -0.8927 -0.6131 -0.2821
 6504TIP3   OH241002   4.630   5.542  12.045  0.5519  0.0677  0.0390
 6504TIP3    H141003   4.606   5.485  11.972  0.3355 -0.4165  0.4878
 6504TIP3    H241004   4.634   5.630  12.006 -2.2984  0.2339  0.0291
 6505TIP3   OH241005   0.244   2.602  16.730  0.0099 -0.0340 -0.0220
 6505TIP3    H141006   0.293   2.530  16.689 -1.4536 -1.3436  0.4752
 6505TIP3    H241007   0.227   2.663  16.658 -0.3661 -1.0990 -0.8513
 6506TIP3   OH241008   5.587   3.150  14.528 -0.1961 -0.2877  0.3723
 6506TIP3    H141009   5.500   3.152  14.488 -0.7286 -2.3606  1.3899
 6506TIP3    H241010   5.599   3.238  14.563 -2.6372 -0.5031  1.8431
 6507TIP3   OH241011   6.670   0.298  16.445 -0.2958 -0.3095 -0.4565
 6507TIP3    H141012   6.705   0.384  16.419 -0.7341  0.2663  0.7823
 6507TIP3    H241013   6.595   0.284  16.387  0.4573 -0.3740 -1.4174
 6508TIP3   OH241014   6.091   4.764   4.046 -0.5503 -0.2297 -0.3261
 6508TIP3    H141015   6.142   4.838   4.013  1.1090 -0.4395  1.6958
 6508TIP3    H241016   6.026   4.804   4.104  0.3758 -0.3452  0.8021
 6509TIP3   OH241017   3.132   1.014   0.476  0.3052 -0.2245  0.2737
 6509TIP3    H141018   3.055   1.065   0.452  0.5761 -0.0827 -0.3166
 6509TIP3    H241019   3.099   0.927   0.498 -0.1415  0.1504  1.1012
 6510TIP3   OH241020   2.956   0.217   5.613  0.1387  0.3471 -1.1396
 6510TIP3    H141021   3.020   0.247   5.677  0.5569 -2.8345  0.0432
 6510TIP3    H241022   2.910   0.146   5.657 -0.6209 -0.9127 -3.8440
 6511TIP3   OH241023   1.838   4.098  12.626  0.3476  0.0211 -1.2078
 6511TIP3    H141024   1.883   4.058  12.700  1.5433 -0.7344 -2.3175
 6511TIP3    H241025   1.797   4.177  12.662  0.7445 -0.4456  0.2855
 6512TIP3   OH241026   0.404   5.451   2.874 -0.6206 -0.1651  0.2202
 6512TIP3    H141027   0.439   5.430   2.961 -1.9871 -1.1668  0.5484
 6512TIP3    H241028   0.367   5.368   2.843 -1.0035  0.4241 -0.9007
 6513TIP3   OH241029   2.512   5.246  16.375 -0.0018  0.2072 -0.1627
 6513TIP3    H141030   2.514   5.198  16.458 -0.8069 -0.0240 -0.2776
 6513TIP3    H241031   2.561   5.189  16.314 -1.6766 -0.8853 -0.5097
 6514TIP3   OH241032   5.197   4.983  12.052 -0.1858 -0.3484 -0.4839
 6514TIP3    H141033   5.292   4.982  12.064 -0.2837  0.6511  0.4887
 6514TIP3    H241034   5.161   4.971  12.140 -0.9587 -0.5023 -0.8155
 6515TIP3   OH241035   2.510   1.915   1.722  0.4738  0.7151 -0.2688
 6515TIP3    H141036   2.578   1.854   1.748 -0.2922 -0.4471 -0.9569
 6515TIP3    H241037   2.461   1.932   1.802  0.5529  0.2404 -0.1189
 6516TIP3   OH241038   0.426   2.522   0.162  0.1694 -0.8122 -0.0842
 6516TIP3    H141039   0.365   2.561   0.099  0.1176 -1.3525 -0.3753
 6516TIP3    H241040   0.392   2.548   0.247 -1.0042 -1.8584 -0.2131
 6517TIP3   OH241041   4.618   0.472   2.765  0.8519  0.3764  0.6066
 6517TIP3    H141042   4.698   0.460   2.816  1.3514  0.6626 -0.1024
 6517TIP3    H241043   4.547   0.459   2.828  1.4556  0.2378  1.2644
 6518TIP3   OH241044   4.203   6.585   3.185  0.3576  0.0506  0.2040
 6518TIP3    H141045   4.237   6.565   3.098 -0.6353  0.0305 -0.1855
 6518TIP3    H241046   4.112   6.556   3.182 -0.2986  2.0324  0.5453
 6519TIP3   OH241047   2.011   6.764   3.461  0.2370 -1.0761 -0.2596
 6519TIP3    H141048   2.019   6.798   3.372  0.1392 -0.1228  0.0907
 6519TIP3    H241049   2.063   6.824   3.514 -0.0763 -1.3794  0.3960
 6520TIP3   OH241050   0.342   0.019   5.013  0.0484  0.0762  0.2351
 6520TIP3    H141051   0.343  -0.076   5.005  1.0675  0.2120 -1.4195
 6520TIP3    H241052   0.318   0.051   4.925  2.3886  1.4029  0.0469
 6521TIP3   OH241053   4.508   5.264   0.681 -0.5902  0.4730  0.4171
 6521TIP3    H141054   4.512   5.315   0.600  1.1431  0.7467  0.6614
 6521TIP3    H241055   4.589   5.212   0.681 -1.7545 -1.3817  0.7630
 6522TIP3   OH241056   5.367   4.488  15.888  0.1698  0.1775  0.0658
 6522TIP3    H141057   5.286   4.451  15.854 -0.1230  0.4152  0.5036
 6522TIP3    H241058   5.403   4.419  15.944  0.0098  0.2673  0.2799
 6523TIP3   OH241059   3.204   0.552   4.459 -0.5327 -0.5967  0.2414
 6523TIP3    H141060   3.200   0.569   4.553  0.3563 -2.3464  0.6243
 6523TIP3    H241061   3.114   0.564   4.429 -0.4024  2.2851  0.8666
 6524TIP3   OH241062   2.514   2.619   4.796  0.7637 -0.1915 -0.2552
 6524TIP3    H141063   2.517   2.543   4.855 -3.8748 -1.0352 -0.8907
 6524TIP3    H241064   2.444   2.674   4.831  1.0022  1.5406 -2.3931
 6525TIP3   OH241065   0.124   5.662   3.886 -0.2044  0.6292 -0.1372
 6525TIP3    H141066   0.206   5.711   3.884  0.0456  0.3838  2.6413
 6525TIP3    H241067   0.147   5.575   3.852  0.7504  0.4840  0.8567
 6526TIP3   OH241068   5.878   0.279   5.702  0.2331 -0.2020 -0.0461
 6526TIP3    H141069   5.815   0.263   5.773 -0.5528 -1.3691 -0.9970
 6526TIP3    H241070   5.840   0.353   5.654 -0.7801 -1.3149 -1.0038
 6527TIP3   OH241071   1.126   4.792  16.635  0.3962  0.2768 -0.2619
 6527TIP3    H141072   1.056   4.782  16.699 -0.4520  0.4526 -1.1606
 6527TIP3    H241073   1.172   4.872  16.663  1.1271 -0.6223  1.1496
 6528TIP3   OH241074   3.373   1.588   6.010 -0.4390  0.2109 -0.6957
 6528TIP3    H141075   3.348   1.502   6.043  1.0081  0.1599  0.3110
 6528TIP3    H241076   3.426   1.569   5.933  0.0299  0.1853 -0.3704
 6529TIP3   OH241077   5.947   3.815   5.499 -0.5483 -0.6788 -0.3162
 6529TIP3    H141078   6.020   3.753   5.501 -1.3167 -1.6746 -1.9708
 6529TIP3    H241079   5.984   3.894   5.459 -0.2069 -0.9648 -0.5674
 6530TIP3   OH241080   2.265   5.519   1.519 -0.2269 -0.2899 -0.3481
 6530TIP3    H141081   2.277   5.593   1.461  0.5896 -0.0057  0.1787
 6530TIP3    H241082   2.279   5.554   1.607 -1.0953 -0.7902 -0.0027
 6531TIP3   OH241083   2.485   1.140  14.206 -0.0758 -0.0184  0.1300
 6531TIP3    H141084   2.390   1.128  14.208  0.0381 -1.1400 -0.6761
 6531TIP3    H241085   2.515   1.080  14.138  1.5786 -2.1746  2.6881
 6532TIP3   OH241086   4.920   4.185  13.210  0.5462  0.5643  0.4310
 6532TIP3    H141087   4.902   4.100  13.171 -0.7424  0.3139  1.5300
 6532TIP3    H241088   4.915   4.247  13.136 -0.8023 -0.0299 -0.0009
 6533TIP3   OH241089   1.972   2.874  13.506  0.1010  0.2445 -0.0588
 6533TIP3    H141090   1.898   2.819  13.531 -0.7853  0.3411 -2.3506
 6533TIP3    H241091   1.951   2.961  13.539 -0.9866  0.3470 -1.0137
 6534TIP3   OH241092   4.302   6.818  13.807  0.3864 -0.4925  0.5060
 6534TIP3    H141093   4.368   6.875  13.767 -1.8534  2.0574  0.3608
 6534TIP3    H241094   4.265   6.770  13.733  1.4417 -1.2991  0.4831
 6535TIP3   OH241095   1.639   3.538  16.643  0.3578 -0.0925 -0.1244
 6535TIP3    H141096   1.614   3.620  16.686 -0.0284 -1.6634  2.7746
 6535TIP3    H241097   1.716   3.508  16.692  0.0543 -1.8324 -0.6940
 6536TIP3   OH241098   1.778   1.887   3.639 -0.2272  0.4469  0.4497
 6536TIP3    H141099   1.692   1.870   3.677  0.6145 -1.0059  1.7438
 6536TIP3    H241100   1.807   1.969   3.681 -0.8919  0.8567  0.1233
 6537TIP3   OH241101   3.751   1.053  11.658  0.2297  0.0815 -0.1404
 6537TIP3    H141102   3.820   1.119  11.669  1.7159 -1.3690 -0.4880
 6537TIP3    H241103   3.782   0.998  11.586 -1.5418 -0.3209 -0.6307
 6538TIP3   OH241104   1.911   4.612   3.115 -0.7059  0.0274 -0.4518
 6538TIP3    H141105   1.959   4.695   3.124 -0.4966 -0.0852 -0.5360
 6538TIP3    H241106   1.893   4.585   3.205  1.0149 -0.8887 -0.3692
 6539TIP3   OH241107   1.170   5.369   3.068 -0.2032 -0.2158 -0.3183
 6539TIP3    H141108   1.093   5.314   3.079  0.5521 -1.1060  0.6277
 6539TIP3    H241109   1.135   5.455   3.047 -1.4484 -0.6428 -0.0524
 6540TIP3   OH241110   6.433   0.227   2.597  0.2074  0.1551 -0.7617
 6540TIP3    H141111   6.524   0.235   2.566  0.0445  0.7035 -1.0920
 6540TIP3    H241112   6.380   0.263   2.527 -0.3709 -1.4625 -1.1781
 6541TIP3   OH241113   1.273   0.419  15.081 -0.2314 -0.0491  0.7079
 6541TIP3    H141114   1.209   0.360  15.121 -1.3341  1.0682  0.6378
 6541TIP3    H241115   1.220   0.488  15.041  0.9370 -0.1585 -1.0914
 6542TIP3   OH241116   4.239   0.858  11.288  0.8545 -0.2389  0.4827
 6542TIP3    H141117   4.195   0.931  11.332  0.9387 -0.2628  0.6088
 6542TIP3    H241118   4.182   0.783  11.304  0.1700  0.0255 -0.6383
 6543TIP3   OH241119   0.108   6.365   0.249 -0.3500  0.4174 -0.1013
 6543TIP3    H141120   0.144   6.305   0.184 -0.4432  2.3372 -1.9773
 6543TIP3    H241121   0.184   6.406   0.290 -0.3045 -0.4591  0.7306
 6544TIP3   OH241122   2.188   2.070  13.199 -0.0355 -0.8387 -0.1195
 6544TIP3    H141123   2.206   2.040  13.110 -0.4592  0.0387 -0.5115
 6544TIP3    H241124   2.093   2.066  13.208 -0.0771  0.0574 -0.0710
 6545TIP3   OH241125   6.032   4.290  13.041 -0.5924  0.2565 -0.0726
 6545TIP3    H141126   6.075   4.247  13.114 -0.8591 -0.9070 -0.5924
 6545TIP3    H241127   5.938   4.280  13.058 -0.6650 -0.7184 -0.9602
 6546TIP3   OH241128   5.833   4.293   3.127 -0.3953 -0.0479  0.3491
 6546TIP3    H141129   5.870   4.318   3.043 -0.2808 -1.8963 -0.1683
 6546TIP3    H241130   5.894   4.328   3.192  0.3123  0.0715 -0.3802
 6547TIP3   OH241131   2.582   2.075  15.470 -0.1223 -0.0365  0.2317
 6547TIP3    H141132   2.629   2.158  15.468 -2.2115  1.1790 -0.1998
 6547TIP3    H241133   2.643   2.013  15.511  0.7860  2.1613  2.3275
 6548TIP3   OH241134   5.434   3.153   1.941 -0.5314 -0.3477 -0.3780
 6548TIP3    H141135   5.394   3.139   2.027  0.5847 -1.1393  0.0376
 6548TIP3    H241136   5.482   3.071   1.924  0.0092  0.1612 -1.3240
 6549TIP3   OH241137   3.959   2.849   5.009 -0.2035  0.3579  0.5105
 6549TIP3    H141138   4.035   2.791   5.012  0.0715  0.7600  2.4112
 6549TIP3    H241139   3.905   2.814   4.939  1.6671 -0.0123 -0.7761
 6550TIP3   OH241140   4.057   4.490   0.711 -0.1018 -0.0622 -0.1626
 6550TIP3    H141141   4.032   4.557   0.775  0.2038  0.2692 -0.3833
 6550TIP3    H241142   4.076   4.540   0.631  0.9259 -0.3332 -0.0950
 6551TIP3   OH241143   4.064   6.730  14.186  0.2404  0.1927 -0.0017
 6551TIP3    H141144   4.136   6.743  14.248  0.9205  0.3030 -0.8060
 6551TIP3    H241145   4.104   6.687  14.111 -0.4759  0.5157 -0.5800
 6552TIP3   OH241146   4.374   1.051  11.671 -0.0981 -0.4476  0.0488
 6552TIP3    H141147   4.425   1.126  11.642  0.9123 -1.3232 -0.4588
 6552TIP3    H241148   4.432   1.006  11.733 -1.1663 -0.1400  1.2927
 6553TIP3   OH241149   4.356   0.356  13.893 -0.1481  0.6363  0.0746
 6553TIP3    H141150   4.435   0.344  13.946 -0.0819 -1.1494 -0.4067
 6553TIP3    H241151   4.380   0.322  13.807 -1.6079 -0.3717  0.0659
 6554TIP3   OH241152   2.710   0.733   4.490  0.0470  0.4004  0.3465
 6554TIP3    H141153   2.664   0.770   4.414 -0.5218  0.4278  0.7011
 6554TIP3    H241154   2.739   0.809   4.540 -1.1089  0.3844  1.0671
 6555TIP3   OH241155   0.788   4.073   2.740  0.0719 -0.4825 -0.8268
 6555TIP3    H141156   0.825   3.988   2.719  0.5976 -0.5306  0.2419
 6555TIP3    H241157   0.695   4.057   2.753 -0.0167 -0.6928 -1.6915
 6556TIP3   OH241158   3.153   4.158  12.933  0.1108 -0.4778  0.5376
 6556TIP3    H141159   3.183   4.092  12.870 -0.4601 -1.2494  1.0577
 6556TIP3    H241160   3.164   4.116  13.018  0.8534  0.5493  0.9523
 6557TIP3   OH241161   3.817   3.970  16.170  0.3193 -0.5628  0.2431
 6557TIP3    H141162   3.827   3.920  16.252 -1.6437 -0.2060  0.7249
 6557TIP3    H241163   3.772   4.051  16.197  1.8191  0.6548 -0.8204
 6558TIP3   OH241164   2.023   5.573   1.737 -0.2138  0.6283  0.4173
 6558TIP3    H141165   2.008   5.643   1.673 -0.3364 -0.5206 -0.8223
 6558TIP3    H241166   2.102   5.600   1.784  0.5229  0.9201 -0.9728
 6559TIP3   OH241167   6.689   3.967   0.618 -0.2807 -0.3496 -0.2011
 6559TIP3    H141168   6.691   4.017   0.700 -2.2258  1.3169 -1.1247
 6559TIP3    H241169   6.628   3.896   0.635  0.2732 -0.7385  0.1844
 6560TIP3   OH241170   3.904   2.104   0.412 -0.0399 -0.1931  0.0830
 6560TIP3    H141171   3.829   2.145   0.369  0.5938 -0.5672 -1.4116
 6560TIP3    H241172   3.865   2.051   0.482 -1.2362 -0.8181 -1.0204
 6561TIP3   OH241173   1.541   2.922  12.088  0.2959  0.1575 -0.4968
 6561TIP3    H141174   1.625   2.923  12.134 -0.0191  0.5496  0.0794
 6561TIP3    H241175   1.538   3.006  12.043 -0.7771  1.1093  1.3126
 6562TIP3   OH241176   1.686   6.702   0.044 -0.2707  0.3597 -0.4637
 6562TIP3    H141177   1.700   6.774   0.106  0.6817  1.3519 -1.7940
 6562TIP3    H241178   1.629   6.740  -0.024 -2.2181 -1.0420  0.3565
 6563TIP3   OH241179   0.930   0.862   3.079 -0.7798  0.5681  0.3125
 6563TIP3    H141180   0.992   0.807   3.128 -0.8544  0.3535  0.1699
 6563TIP3    H241181   0.869   0.799   3.040 -0.7557  0.7410 -0.0055
 6564TIP3   OH241182   2.870   3.249  14.408  0.2287 -0.2314  0.3312
 6564TIP3    H141183   2.949   3.287  14.369 -1.2346  2.4747 -0.1262
 6564TIP3    H241184   2.901   3.200  14.484  2.1645  2.5043  1.3781
 6565TIP3   OH241185   1.279   4.854   0.505  0.8589  0.0265  0.8625
 6565TIP3    H141186   1.197   4.897   0.482  1.1663 -0.1389 -0.6188
 6565TIP3    H241187   1.332   4.859   0.425  1.8415 -0.9007  1.4376
 6566TIP3   OH241188   4.252   5.787  14.428 -0.5340 -0.1689  0.2216
 6566TIP3    H141189   4.267   5.876  14.396  0.8669 -0.5384 -0.1666
 6566TIP3    H241190   4.186   5.797  14.497 -0.2870  1.1796  0.2699
 6567TIP3   OH241191   2.929   6.356  10.842  0.2037 -0.5089 -0.2427
 6567TIP3    H141192   2.897   6.311  10.764  0.9924 -1.6858  0.0986
 6567TIP3    H241193   2.865   6.336  10.910 -1.2544  1.7061 -0.9275
 6568TIP3   OH241194   6.208   5.467  14.606 -0.5055 -0.5907  0.5409
 6568TIP3    H141195   6.164   5.420  14.677 -0.1581 -0.5012  0.8202
 6568TIP3    H241196   6.258   5.535  14.651 -1.8801  0.7557  0.0738
 6569TIP3   OH241197   6.429   2.046  15.555 -0.6586 -0.1694  0.2103
 6569TIP3    H141198   6.352   2.080  15.600 -0.2958 -0.6422  1.1849
 6569TIP3    H241199   6.488   2.018  15.624  0.6926  0.8010 -0.5066
 6570TIP3   OH241200   0.659   6.451  16.343  0.5754 -0.3717  0.3749
 6570TIP3    H141201   0.611   6.377  16.380  0.2652 -1.0677 -1.3975
 6570TIP3    H241202   0.601   6.526  16.358 -0.8125 -1.1028 -1.1729
 6571TIP3   OH241203   2.449   0.639   4.550  0.3615  0.4263  0.6157
 6571TIP3    H141204   2.532   0.625   4.505  0.0257  0.3110  0.0253
 6571TIP3    H241205   2.473   0.678   4.634  1.0539 -0.2686  0.7409
 6572TIP3   OH241206   0.514   5.997  13.635 -0.1667 -0.1439 -0.7328
 6572TIP3    H141207   0.432   5.966  13.596 -0.3513  0.4875 -0.8639
 6572TIP3    H241208   0.578   5.928  13.616 -0.7443 -0.7821 -0.3523
 6573TIP3   OH241209   1.270   6.414   3.975 -0.0255 -0.0274 -0.3866
 6573TIP3    H141210   1.289   6.439   4.066 -0.0095 -1.6177  0.0517
 6573TIP3    H241211   1.179   6.386   3.977  1.3293 -4.8297  0.2109
 6574TIP3   OH241212   0.090   3.286  16.911 -0.1765 -0.3802 -0.3566
 6574TIP3    H141213   0.105   3.281  17.006  0.0624  0.2170 -0.3577
 6574TIP3    H241214   0.129   3.206  16.876 -2.7619 -1.9963  0.3595
 6575TIP3   OH241215   6.559   4.252  10.410  0.3600  0.8849  0.9543
 6575TIP3    H141216   6.529   4.294  10.329  1.4375  0.7699  0.4847
 6575TIP3    H241217   6.525   4.308  10.480 -1.8552  0.1663  0.4872
 6576TIP3   OH241218   6.539   2.861   2.982  0.6661  0.8786  0.2034
 6576TIP3    H141219   6.512   2.770   2.969 -1.2671  1.4623 -0.0901
 6576TIP3    H241220   6.489   2.890   3.058 -1.4782  2.7163 -1.8134
 6577TIP3   OH241221   4.368   0.922  12.825  0.1683 -0.8679  0.2138
 6577TIP3    H141222   4.360   0.994  12.761  1.2172 -1.2178 -0.3237
 6577TIP3    H241223   4.355   0.964  12.910  1.4272  0.0842 -0.0537
 6578TIP3   OH241224   2.047   6.543   4.657 -0.2901 -0.2578  0.3009
 6578TIP3    H141225   1.958   6.512   4.638 -0.1364 -1.1537  1.0168
 6578TIP3    H241226   2.046   6.635   4.632 -0.6933 -0.8689 -2.1030
 6579TIP3   OH241227   6.203   1.423  14.706  0.1535 -0.2329 -0.5739
 6579TIP3    H141228   6.256   1.349  14.735 -1.0063 -1.2360 -1.0050
 6579TIP3    H241229   6.222   1.492  14.770  0.2075 -1.3253  0.6183
 6580TIP3   OH241230   0.775   0.185   2.697  0.1635 -0.3108  0.9015
 6580TIP3    H141231   0.839   0.218   2.634  0.7742 -1.9055  0.6811
 6580TIP3    H241232   0.828   0.164   2.775  0.0373 -2.4652  0.4117
 6581TIP3   OH241233   6.112   3.372  15.978  0.1333 -0.8700  0.0146
 6581TIP3    H141234   6.040   3.316  16.007 -1.7698  2.1060  1.3555
 6581TIP3    H241235   6.187   3.342  16.028 -0.6186 -2.8416 -0.0163
 6582TIP3   OH241236   5.313   3.613  11.100  0.3444 -0.0013  0.0492
 6582TIP3    H141237   5.271   3.695  11.076 -0.0066 -0.6352 -1.5379
 6582TIP3    H241238   5.375   3.637  11.170  0.7316  1.7182 -0.8665
 6583TIP3   OH241239   3.971   2.162   1.184  0.3391 -0.6112 -0.1689
 6583TIP3    H141240   4.010   2.241   1.147 -1.9089  0.0852 -1.1541
 6583TIP3    H241241   4.018   2.090   1.142  0.8555  0.2004 -1.0074
 6584TIP3   OH241242   0.861   6.136  13.292 -0.7084 -0.7826 -0.6786
 6584TIP3    H141243   0.908   6.215  13.266 -1.0312 -0.6280 -0.7893
 6584TIP3    H241244   0.904   6.109  13.373 -2.1258  0.8257  0.6213
 6585TIP3   OH241245   5.638   0.748   4.248  0.1538  0.3118 -0.2548
 6585TIP3    H141246   5.673   0.684   4.310 -0.8900  0.2964  0.3404
 6585TIP3    H241247   5.703   0.819   4.247 -0.3845  0.8741  1.8002
 6586TIP3   OH241248   2.341   5.890  14.129  0.1315  0.1804  0.0141
 6586TIP3    H141249   2.275   5.849  14.186  0.5348  0.2172  0.5055
 6586TIP3    H241250   2.304   5.975  14.107  0.3978  0.5406  0.9731
 6587TIP3   OH241251   3.809   2.087  14.192  0.6116 -0.1601 -0.1520
 6587TIP3    H141252   3.765   2.168  14.216  2.3831  0.8368 -0.2124
 6587TIP3    H241253   3.755   2.052  14.120  0.2661  1.3567 -0.6644
 6588TIP3   OH241254   6.254   6.733   5.792 -0.1010  0.2495  0.1459
 6588TIP3    H141255   6.189   6.755   5.859 -0.1575  0.3509  0.0585
 6588TIP3    H241256   6.331   6.706   5.842 -0.5488 -0.8992  0.2558
 6589TIP3   OH241257   6.449   6.344   4.049 -0.0820 -0.0748 -0.4448
 6589TIP3    H141258   6.437   6.434   4.019  0.0627 -0.1687 -0.7935
 6589TIP3    H241259   6.538   6.321   4.020  0.4253  0.1607  0.9123
 6590TIP3   OH241260   6.230   4.539  17.282 -0.1700 -0.5654 -0.0999
 6590TIP3    H141261   6.213   4.633  17.270  0.3061 -0.4861 -0.1537
 6590TIP3    H241262   6.144   4.498  17.275 -0.2619 -0.2323 -1.1076
 6591TIP3   OH241263   0.988   6.722   1.335  0.9153 -0.3272 -0.2819
 6591TIP3    H141264   1.077   6.745   1.363  0.4392  0.2992  0.7171
 6591TIP3    H241265   0.932   6.784   1.380 -0.1434 -1.5368  0.0983
 6592TIP3   OH241266   6.563   5.356  15.320 -0.4476 -0.5403  0.6625
 6592TIP3    H141267   6.601   5.372  15.407 -0.4356  0.6084  0.4482
 6592TIP3    H241268   6.628   5.302  15.275 -0.1748 -0.6223  1.1460
 6593TIP3   OH241269   1.078   1.286  11.318 -0.5232  0.1129 -0.0507
 6593TIP3    H141270   1.076   1.295  11.223 -0.7748  1.9590  0.1277
 6593TIP3    H241271   1.131   1.208  11.333 -0.1358  0.0487 -1.6854
 6594TIP3   OH241272   1.721   5.455  16.126 -0.7619  0.4844 -0.3640
 6594TIP3    H141273   1.793   5.515  16.142 -0.7332  1.0322 -2.3985
 6594TIP3    H241274   1.650   5.487  16.182  0.3782  0.2811  1.2079
 6595TIP3   OH241275   4.271   5.950   5.447  0.0089  0.3809  0.5069
 6595TIP3    H141276   4.333   5.969   5.377 -0.7064  0.4305 -0.1210
 6595TIP3    H241277   4.325   5.918   5.519  0.5591 -1.7036 -0.7921
 6596TIP3   OH241278   5.141   3.087   3.519 -0.2052 -1.0540 -0.4435
 6596TIP3    H141279   5.201   3.083   3.444 -0.5236 -3.6293 -0.6109
 6596TIP3    H241280   5.131   2.996   3.546 -2.0846 -0.3932  1.1737
 6597TIP3   OH241281   4.542   6.420   1.528 -0.6042  0.0866  0.6375
 6597TIP3    H141282   4.610   6.367   1.486  1.3016  0.9836  2.4451
 6597TIP3    H241283   4.462   6.370   1.518  0.5084 -1.4622 -0.7400
 6598TIP3   OH241284   4.657   2.268  12.132  0.4741 -0.3494 -0.3917
 6598TIP3    H141285   4.604   2.324  12.075  3.4169  2.2627 -0.7312
 6598TIP3    H241286   4.711   2.218  12.071  1.2409 -0.0101  0.0057
 6599TIP3   OH241287   2.615   3.726  10.538  0.4433  0.4031 -0.1095
 6599TIP3    H141288   2.708   3.720  10.560  0.4361  0.3941 -0.0828
 6599TIP3    H241289   2.613   3.774  10.455  0.4593  0.5790 -0.0093
 6600TIP3   OH241290   3.817   6.527   3.364  1.4337 -0.0203  0.2777
 6600TIP3    H141291   3.837   6.462   3.432 -0.4411  0.5001  1.3716
 6600TIP3    H241292   3.750   6.484   3.310  0.8058  0.6549  0.5035
 6601TIP3   OH241293   4.886   1.031   0.893 -0.1670  0.1789  0.0259
 6601TIP3    H141294   4.906   1.089   0.819  0.1106 -0.7063 -0.6061
 6601TIP3    H241295   4.876   1.089   0.968 -1.4069  1.1707 -0.8948
 6602TIP3   OH241296   2.128   2.847   5.993 -0.2011 -0.5699 -0.4672
 6602TIP3    H141297   2.122   2.832   6.088 -0.3928  0.9422 -0.2322
 6602TIP3    H241298   2.037   2.857   5.965 -0.0071  1.5160 -0.3840
 6603TIP3   OH241299   5.700   2.794   2.900  0.1525 -0.1509 -1.1358
 6603TIP3    H141300   5.780   2.828   2.860  1.5406 -0.0983  1.6235
 6603TIP3    H241301   5.657   2.872   2.937 -0.0650 -0.4823 -0.6864
 6604TIP3   OH241302   0.873   1.206  16.094  0.5077 -0.2924 -0.1522
 6604TIP3    H141303   0.920   1.288  16.082  1.0030 -0.5282  0.1368
 6604TIP3    H241304   0.884   1.160  16.010 -1.8124  0.9527 -1.1640
 6605TIP3   OH241305   5.013   1.720   4.199  0.2379  0.2109  0.2946
 6605TIP3    H141306   5.005   1.815   4.210  1.4847  0.3668 -0.0986
 6605TIP3    H241307   4.976   1.702   4.113 -0.6045  0.2346  0.6349
 6606TIP3   OH241308   5.809   5.715   5.418 -0.6117  0.0945 -0.3316
 6606TIP3    H141309   5.732   5.760   5.451 -1.0971 -2.3390  2.0210
 6606TIP3    H241310   5.774   5.640   5.370  0.2402 -0.7932  0.3989
 6607TIP3   OH241311   3.791   4.813   3.006  0.3143  0.2728 -0.1155
 6607TIP3    H141312   3.799   4.895   2.956  0.9233  0.7306  0.7102
 6607TIP3    H241313   3.704   4.780   2.985  0.9708 -0.1250 -2.3544
 6608TIP3   OH241314   4.588   0.345  16.812 -0.1154 -0.1135 -0.0606
 6608TIP3    H141315   4.680   0.349  16.838 -0.5841  0.8964  1.4639
 6608TIP3    H241316   4.539   0.360  16.893 -1.6326 -1.1349 -0.7670
 6609TIP3   OH241317   2.196   2.857   2.370 -0.6406  0.0175 -0.1481
 6609TIP3    H141318   2.183   2.767   2.399  1.2687 -0.2738 -0.1335
 6609TIP3    H241319   2.238   2.849   2.285  0.6303  0.8947  0.3909
 6610TIP3   OH241320   5.803   2.786   4.302 -0.1147  0.1484  0.5764
 6610TIP3    H141321   5.793   2.698   4.266  0.4448  0.0484  0.6667
 6610TIP3    H241322   5.728   2.835   4.268 -1.2263 -0.7618  1.7084
 6611TIP3   OH241323   6.308   6.599   0.585 -0.3575 -0.2064 -0.3090
 6611TIP3    H141324   6.310   6.504   0.573 -0.0094 -0.2407  0.0134
 6611TIP3    H241325   6.373   6.633   0.524 -1.4143 -0.0703 -1.3750
 6612TIP3   OH241326   3.374   0.851   5.097  0.5098  0.2146 -0.3907
 6612TIP3    H141327   3.326   0.921   5.140 -1.2978 -1.8566  1.0867
 6612TIP3    H241328   3.395   0.789   5.167  2.2449 -0.6333 -1.6262
 6613TIP3   OH241329   6.739   6.652  15.291 -0.5858  0.6070  0.2120
 6613TIP3    H141330   6.701   6.571  15.324  0.1327 -0.3558 -1.2452
 6613TIP3    H241331   6.772   6.630  15.204  0.3347  2.2575  0.1015
 6614TIP3   OH241332   3.099   3.333   2.098 -0.1069 -0.2705 -0.3753
 6614TIP3    H141333   3.175   3.373   2.057 -1.1269  2.1636 -0.0036
 6614TIP3    H241334   3.130   3.249   2.131  1.9440 -0.0931 -1.7947
 6615TIP3   OH241335   1.327   2.771   3.798  0.6093  0.0155  0.3281
 6615TIP3    H141336   1.349   2.836   3.865 -0.7190  1.6916 -0.7922
 6615TIP3    H241337   1.408   2.758   3.748  0.9454  0.6630  0.7029
 6616TIP3   OH241338   5.243   5.392  12.009  0.0622  0.0701 -0.6653
 6616TIP3    H141339   5.263   5.483  11.987  1.4980 -0.4747 -1.7085
 6616TIP3    H241340   5.196   5.358  11.933 -2.3578  0.5079  0.5877
 6617TIP3   OH241341   0.197   4.536   3.391  0.1807 -0.4815 -0.2246
 6617TIP3    H141342   0.137   4.462   3.384 -2.0365  1.1052  1.0801
 6617TIP3    H241343   0.239   4.525   3.477  0.5676 -0.7319 -0.4447
 6618TIP3   OH241344   2.398   4.492   3.848 -0.4525  0.0247  0.5235
 6618TIP3    H141345   2.368   4.413   3.802  0.9157  1.0177 -2.1577
 6618TIP3    H241346   2.481   4.466   3.888  0.5001  0.3457 -1.1927
 6619TIP3   OH241347   6.415   2.838  10.952 -0.1712  0.0373  0.2898
 6619TIP3    H141348   6.463   2.756  10.934  0.7956  0.3617  1.3020
 6619TIP3    H241349   6.463   2.878  11.024 -1.7614  0.5760  1.0729
 6620TIP3   OH241350   3.419   3.441  11.995 -0.0463 -0.7218 -0.2959
 6620TIP3    H141351   3.461   3.523  12.024 -1.5555 -0.4406  1.1505
 6620TIP3    H241352   3.411   3.389  12.075 -4.0466 -0.0384 -0.1587
 6621TIP3   OH241353   5.489   5.509  11.666  0.1910  0.5604  0.4447
 6621TIP3    H141354   5.557   5.505  11.598 -1.3782  2.1082 -1.2683
 6621TIP3    H241355   5.497   5.425  11.713  2.7893  0.4181 -0.1761
 6622TIP3   OH241356   0.050   5.972   3.536  0.0103  0.2167  0.2218
 6622TIP3    H141357   0.018   5.884   3.515  2.0604 -0.6138  0.5230
 6622TIP3    H241358   0.136   5.976   3.495 -0.1292  2.1484  0.0987
 6623TIP3   OH241359   0.118   4.767  11.990  0.3265 -0.0569  0.0329
 6623TIP3    H141360   0.160   4.681  11.984 -0.2840 -0.4162  0.8190
 6623TIP3    H241361   0.031   4.754  11.951  0.4070  0.3280 -0.2819
 6624TIP3   OH241362   5.239   0.461  13.659  0.5438 -0.2144  0.6092
 6624TIP3    H141363   5.204   0.378  13.626  0.5255  0.9610 -2.4962
 6624TIP3    H241364   5.334   0.453  13.650  0.4615  0.7433 -1.4583
 6625TIP3   OH241365   3.278   1.372  14.482  0.6722  0.5805 -0.2038
 6625TIP3    H141366   3.264   1.280  14.504 -2.1210  0.6523 -1.4700
 6625TIP3    H241367   3.365   1.374  14.440  0.7252 -1.4811 -0.2302
 6626TIP3   OH241368   4.260   3.454  14.489  0.3315 -0.4095 -0.4933
 6626TIP3    H141369   4.314   3.469  14.412  1.7734  0.8960  0.7364
 6626TIP3    H241370   4.208   3.377  14.468  1.9605 -1.0938 -2.0815
 6627TIP3   OH241371   5.427   5.949  13.332  0.3097 -0.5684 -0.1697
 6627TIP3    H141372   5.489   6.022  13.330  0.0858 -0.3468  0.9238
 6627TIP3    H241373   5.373   5.961  13.254 -0.4842  1.1065  0.6129
 6628TIP3   OH241374   2.076   1.296  15.040  0.2225  0.6191  0.0505
 6628TIP3    H141375   2.090   1.292  14.946 -1.5154  1.4250 -0.2585
 6628TIP3    H241376   2.021   1.221  15.060  0.5135  0.4992  0.4203
 6629TIP3   OH241377   1.711   3.317  11.771  0.3179  0.1331 -0.3818
 6629TIP3    H141378   1.801   3.319  11.739  0.1868  0.5177 -0.7296
 6629TIP3    H241379   1.703   3.395  11.826 -0.2180  0.8627 -1.4818
 6630TIP3   OH241380   1.658   2.949  16.959  0.8573 -0.3305 -0.3286
 6630TIP3    H141381   1.672   2.960  16.865  2.0190 -1.6184 -0.3089
 6630TIP3    H241382   1.744   2.926  16.994  0.6661  1.1831  1.2258
 6631TIP3   OH241383   1.388   2.534   0.455 -0.4859  0.7408 -0.4085
 6631TIP3    H141384   1.453   2.464   0.443 -0.5879  0.7941 -1.3782
 6631TIP3    H241385   1.310   2.501   0.410 -1.5284  0.1568  1.7871
 6632TIP3   OH241386   4.271   5.606  12.312  0.3153 -0.4918 -0.0384
 6632TIP3    H141387   4.310   5.556  12.241  1.5685 -3.0284  2.3241
 6632TIP3    H241388   4.182   5.572  12.319  0.0770  0.0038 -0.5792
 6633TIP3   OH241389   5.534   3.536  12.513  0.0410 -0.4162 -0.3053
 6633TIP3    H141390   5.564   3.624  12.535  0.3195 -0.7685  0.7859
 6633TIP3    H241391   5.500   3.543  12.425  1.3742  0.4808 -0.7654
 6634TIP3   OH241392   2.299   6.582   3.272 -0.0440  0.3409 -0.2662
 6634TIP3    H141393   2.301   6.678   3.273 -0.2068  0.3379  0.6180
 6634TIP3    H241394   2.298   6.557   3.364  1.6041 -0.5653 -0.4866
 6635TIP3   OH241395   1.451   4.747   2.298 -0.0660 -0.0519 -0.4325
 6635TIP3    H141396   1.430   4.685   2.368 -1.3122  0.1871 -0.5696
 6635TIP3    H241397   1.380   4.734   2.234 -0.1777  1.3030 -0.5949
 6636TIP3   OH241398   1.362   0.914  12.272 -0.0703  0.1729 -0.0972
 6636TIP3    H141399   1.339   0.828  12.238  1.2793 -0.3355  0.2267
 6636TIP3    H241400   1.350   0.974  12.199  0.6378 -0.5607 -0.8188
 6637TIP3   OH241401   3.173   2.128   5.530 -0.0312 -0.6476  0.7239
 6637TIP3    H141402   3.217   2.046   5.509  0.0905 -0.6773  1.0926
 6637TIP3    H241403   3.196   2.187   5.457 -1.8125 -1.5556 -0.6102
 6638TIP3   OH241404   6.411   0.256   5.349 -0.2151  0.2958  0.0991
 6638TIP3    H141405   6.421   0.181   5.408 -1.1261  1.3274  1.6144
 6638TIP3    H241406   6.317   0.266   5.338 -0.0419 -0.3720 -2.2247
 6639TIP3   OH241407   2.558   3.509  10.349 -0.2294  0.1855 -0.2101
 6639TIP3    H141408   2.614   3.452  10.402 -1.6468 -1.6729 -0.6322
 6639TIP3    H241409   2.572   3.597  10.384  0.3318 -0.7362  1.9341
 6640TIP3   OH241410   2.401   3.432  13.696 -0.2674 -0.2905 -0.0018
 6640TIP3    H141411   2.482   3.415  13.647  1.6104  0.0584  2.8601
 6640TIP3    H241412   2.391   3.527  13.693  0.7971 -0.1031  1.6642
 6641TIP3   OH241413   5.914   1.450  14.945  0.2364  0.0818  0.3684
 6641TIP3    H141414   5.982   1.516  14.932  0.2485  0.0283  0.1701
 6641TIP3    H241415   5.954   1.368  14.918  0.9698 -0.3694  2.6518
 6642TIP3   OH241416   5.102   5.717   4.001  0.0644  0.1038  0.0127
 6642TIP3    H141417   5.009   5.737   3.997 -0.6445 -3.0391 -0.1306
 6642TIP3    H241418   5.122   5.676   3.917  1.6629  0.9820 -0.0701
 6643TIP3   OH241419   4.127   2.212  11.616  0.3176 -0.2250  0.0072
 6643TIP3    H141420   4.102   2.304  11.615 -0.9658 -0.5759 -0.6646
 6643TIP3    H241421   4.214   2.211  11.656 -0.2982  1.1260  1.4300
 6644TIP3   OH241422   6.671   4.941   3.514 -0.1351  0.0944  0.2149
 6644TIP3    H141423   6.710   4.872   3.567  0.2768 -0.1498 -0.3982
 6644TIP3    H241424   6.736   4.958   3.445 -0.6959  0.3519 -0.2594
 6645TIP3   OH241425   1.656   5.878  15.403  0.2139  0.5421  0.1372
 6645TIP3    H141426   1.570   5.876  15.360  0.4344 -0.7701 -0.2888
 6645TIP3    H241427   1.637   5.870  15.496 -0.1583  1.0227  0.1045
 6646TIP3   OH241428   2.695   5.652  15.353 -0.6843 -1.0467  0.7723
 6646TIP3    H141429   2.782   5.688  15.341 -1.5637  0.7225 -0.6362
 6646TIP3    H241430   2.695   5.570  15.304  0.7044 -1.9233  2.2348
 6647TIP3   OH241431   1.836   3.260   3.594  0.0062  0.0783  0.8753
 6647TIP3    H141432   1.875   3.346   3.584  0.3446 -0.0867  0.7691
 6647TIP3    H241433   1.810   3.256   3.686 -0.2309  0.3852  0.8210
 6648TIP3   OH241434   1.596   1.283  14.888 -0.2816  0.9882  0.6573
 6648TIP3    H141435   1.613   1.203  14.938 -0.5151  1.2269  1.1292
 6648TIP3    H241436   1.676   1.334  14.896 -0.3359  1.0472  0.8299
 6649TIP3   OH241437   0.033   0.378  14.769 -0.3235 -0.1814  0.3730
 6649TIP3    H141438   0.083   0.341  14.842  0.5238  2.9967  1.4668
 6649TIP3    H241439  -0.053   0.397  14.805 -0.6165 -0.6486 -0.0697
 6650TIP3   OH241440   4.235   1.963   0.834 -0.2738  0.0826 -0.3285
 6650TIP3    H141441   4.202   2.050   0.809  0.0365  0.2617 -0.1268
 6650TIP3    H241442   4.184   1.939   0.911  1.4106  1.2457  1.2167
 6651TIP3   OH241443   4.815   5.168   0.022  0.3343 -0.0128 -0.1250
 6651TIP3    H141444   4.749   5.228  -0.014  0.0579  1.1284  2.1591
 6651TIP3    H241445   4.847   5.212   0.101  0.9646 -2.3623  0.9855
 6652TIP3   OH241446   4.398   1.668   3.970  0.8071 -0.1792  0.1844
 6652TIP3    H141447   4.376   1.632   4.056  2.9617 -2.3673 -0.1258
 6652TIP3    H241448   4.445   1.749   3.989  1.1351 -0.5737  1.0919
 6653TIP3   OH241449   3.153   3.529  12.986  0.2260  0.5628  0.3225
 6653TIP3    H141450   3.172   3.524  12.893  1.5689  1.2126  0.5438
 6653TIP3    H241451   3.177   3.619  13.010  1.9569 -0.2455  1.7221
 6654TIP3   OH241452   5.388   4.113   4.236  0.1079  0.2348  0.3773
 6654TIP3    H141453   5.328   4.127   4.164  2.5588  2.5192 -1.2969
 6654TIP3    H241454   5.378   4.020   4.258 -1.3174 -0.2729 -2.2696
 6655TIP3   OH241455   6.603   4.481  12.916 -0.0700 -0.0431  0.5010
 6655TIP3    H141456   6.621   4.413  12.981 -0.5133 -0.2836  0.3753
 6655TIP3    H241457   6.631   4.562  12.958  1.2160 -0.3905  0.3391
 6656TIP3   OH241458   6.556   2.959  12.654  0.5329 -0.8451 -0.0860
 6656TIP3    H141459   6.646   2.990  12.665  1.0827 -2.0371 -1.1723
 6656TIP3    H241460   6.549   2.934  12.562 -1.0164 -0.4561 -0.0980
 6657TIP3   OH241461   0.333   2.954   3.720  0.8051 -0.3318 -0.2647
 6657TIP3    H141462   0.347   2.871   3.674  1.6605 -0.2650 -0.1336
 6657TIP3    H241463   0.389   3.017   3.673  1.0848 -0.0980  0.3794
 6658TIP3   OH241464   2.667   5.920  16.189  0.3303 -0.4545  0.0425
 6658TIP3    H141465   2.629   5.976  16.258  0.7989 -0.9964  0.7533
 6658TIP3    H241466   2.722   5.858  16.237  2.9462  0.9557 -1.0279
 6659TIP3   OH241467   4.402   5.424  14.875  0.1647  0.3787  0.0634
 6659TIP3    H141468   4.327   5.430  14.815 -0.6071  1.8291  1.1518
 6659TIP3    H241469   4.363   5.424  14.962  1.4851  2.6149  0.6889
 6660TIP3   OH241470   3.398   2.591  12.836 -0.1248  0.3443  0.8542
 6660TIP3    H141471   3.484   2.569  12.800 -0.8653  0.4398 -1.0263
 6660TIP3    H241472   3.397   2.687  12.839 -0.9785  0.4250 -1.2338
 6661TIP3   OH241473   6.604   6.800  14.012 -0.1235 -0.3938 -0.4835
 6661TIP3    H141474   6.612   6.845  13.927 -0.0270  0.2803 -0.1241
 6661TIP3    H241475   6.531   6.843  14.055  0.6712  0.1805  0.3195
 6662TIP3   OH241476   5.579   3.681   0.387 -0.0485  0.7939 -0.3081
 6662TIP3    H141477   5.655   3.649   0.435  0.2322  0.4841 -0.9575
 6662TIP3    H241478   5.528   3.603   0.368 -1.3799  1.1746  1.5670
 6663TIP3   OH241479   3.809   0.060  15.573 -0.0781 -0.0313 -0.6251
 6663TIP3    H141480   3.812   0.131  15.637 -0.9681 -1.3981  1.0118
 6663TIP3    H241481   3.716   0.036  15.570 -0.0482  0.0629 -2.5037
 6664TIP3   OH241482   3.768   1.450   3.149  0.2320 -0.2094  0.1117
 6664TIP3    H141483   3.708   1.496   3.090  0.4745 -0.1640 -0.0967
 6664TIP3    H241484   3.718   1.375   3.180 -0.4252  0.5802  1.0087
 6665TIP3   OH241485   4.571   0.560   6.335  0.2270  0.1880  0.4744
 6665TIP3    H141486   4.559   0.566   6.430 -0.9990  0.7611  0.2932
 6665TIP3    H241487   4.625   0.636   6.312 -0.0694  0.4410  0.6184
 6666TIP3   OH241488   0.083   3.311  15.280  0.1198 -0.4808 -0.6899
 6666TIP3    H141489   0.161   3.338  15.329 -0.5411  0.5729 -0.2230
 6666TIP3    H241490   0.082   3.368  15.203  1.2559 -2.2484 -2.0507
 6667TIP3   OH241491   0.773   2.665  14.956  0.4029  0.1917 -0.3805
 6667TIP3    H141492   0.685   2.641  14.928  0.6079 -0.6755 -0.2973
 6667TIP3    H241493   0.831   2.618  14.897  0.8168  1.5507 -1.0758
 6668TIP3   OH241494   2.876   2.901   3.193 -0.1625  0.2982 -0.0927
 6668TIP3    H141495   2.968   2.905   3.219  0.2453 -0.1025 -1.4464
 6668TIP3    H241496   2.846   2.814   3.220  0.3094 -0.1850 -1.1187
 6669TIP3   OH241497   3.426   6.558   6.449  0.1057  0.3172  0.0902
 6669TIP3    H141498   3.344   6.606   6.459 -1.0011 -1.5671  0.2589
 6669TIP3    H241499   3.412   6.477   6.497  1.4895 -0.7188 -1.2076
 6670TIP3   OH241500   1.719   5.574  11.581  0.1663  0.2223  0.6110
 6670TIP3    H141501   1.651   5.518  11.619  0.0977  0.0855  0.2879
 6670TIP3    H241502   1.677   5.617  11.507  0.8870 -1.1043 -0.5877
 6671TIP3   OH241503   3.087   1.708  11.304 -0.1959 -0.5713  0.6054
 6671TIP3    H141504   3.103   1.774  11.372 -0.4509 -1.3415  1.4202
 6671TIP3    H241505   3.136   1.631  11.333  0.1229 -0.7311 -0.3599
 6672TIP3   OH241506   2.869   3.690  10.651  0.8290  0.0170  0.4721
 6672TIP3    H141507   2.863   3.763  10.713 -0.2432  3.2200 -3.2179
 6672TIP3    H241508   2.958   3.695  10.617  0.7726 -0.4344  0.2593
 6673TIP3   OH241509   1.800   3.026   6.685 -0.1120  0.0380  0.6230
 6673TIP3    H141510   1.784   3.115   6.716 -0.9831 -0.2698  1.0939
 6673TIP3    H241511   1.878   3.032   6.630 -1.5036  1.4821 -1.1961
 6674TIP3   OH241512   4.798   4.963   0.618 -0.0580  0.1326  0.4337
 6674TIP3    H141513   4.842   5.028   0.672  1.0490 -1.4704  1.5048
 6674TIP3    H241514   4.735   4.921   0.677  0.4328 -0.9230  0.2210
 6675TIP3   OH241515   1.653   1.732  13.276  0.6297 -0.3203  0.1818
 6675TIP3    H141516   1.635   1.652  13.227  1.0972 -1.2329  1.4711
 6675TIP3    H241517   1.637   1.709  13.368  0.8188  1.0440  0.5803
 6676TIP3   OH241518   0.568   2.272   3.722  0.0113 -0.1022 -0.2519
 6676TIP3    H141519   0.491   2.318   3.689 -0.4629  0.0397  0.9925
 6676TIP3    H241520   0.583   2.202   3.659 -0.2714  0.7352 -1.2665
 6677TIP3   OH241521   4.504   5.235   2.865  0.1386  0.3764  0.2700
 6677TIP3    H141522   4.595   5.204   2.864  0.1645  0.4226  1.2949
 6677TIP3    H241523   4.453   5.159   2.894 -0.2246  0.1628 -0.9086
 6678TIP3   OH241524   4.827   4.407   2.005 -0.4616  0.1201 -0.1355
 6678TIP3    H141525   4.815   4.397   1.911  0.2662  1.6161 -0.3932
 6678TIP3    H241526   4.738   4.402   2.041 -0.7472 -0.3623 -0.9001
 6679TIP3   OH241527   3.187   3.911   5.581  0.1377  0.0107 -0.3072
 6679TIP3    H141528   3.142   3.979   5.632  0.4080  0.5303 -0.7540
 6679TIP3    H241529   3.262   3.887   5.635 -0.1944 -0.2309  0.0442
 6680TIP3   OH241530   2.753   1.672  13.728 -0.0475 -0.4324  0.0064
 6680TIP3    H141531   2.772   1.757  13.689  0.9849 -1.2328 -1.2852
 6680TIP3    H241532   2.701   1.626  13.663 -0.0542 -1.0180  0.4209
 6681TIP3   OH241533   1.734   4.076  14.386  0.5280  0.0201  0.0392
 6681TIP3    H141534   1.828   4.094  14.384  0.5501  0.0810  1.2300
 6681TIP3    H241535   1.727   3.982  14.372  0.8523 -0.2190  1.4801
 6682TIP3   OH241536   3.085   5.278   6.504 -0.2014  0.3367  0.4757
 6682TIP3    H141537   3.000   5.238   6.520 -0.7500  1.7582  1.1283
 6682TIP3    H241538   3.066   5.368   6.478  0.9795 -0.0612 -1.8989
 6683TIP3   OH241539   6.385   0.381   4.164  0.4433  0.4534 -0.0732
 6683TIP3    H141540   6.410   0.473   4.163  2.4666 -0.0261  1.7785
 6683TIP3    H241541   6.446   0.339   4.104 -0.3274  0.2548 -0.7333
 6684TIP3   OH241542   2.860   0.812   0.314  0.0864 -0.3820 -0.1276
 6684TIP3    H141543   2.851   0.907   0.325 -1.5175 -0.5477  0.1003
 6684TIP3    H241544   2.869   0.800   0.220 -1.5519 -0.1321 -0.3332
 6685TIP3   OH241545   2.189   1.732  15.521  0.4521  0.3623  0.1161
 6685TIP3    H141546   2.116   1.763  15.467  0.6688  0.0562 -0.3584
 6685TIP3    H241547   2.266   1.774  15.483  0.5833  0.2806  0.2949
 6686TIP3   OH241548   3.027   6.387   2.112  0.1604  0.2568 -0.4802
 6686TIP3    H141549   2.956   6.370   2.175  1.7689 -2.8994  0.5874
 6686TIP3    H241550   2.983   6.396   2.028 -1.7870  1.8002  0.6433
 6687TIP3   OH241551   4.477   6.020  13.014  0.1975  0.2541  0.0645
 6687TIP3    H141552   4.408   6.034  13.080  0.4336 -0.9541  0.5940
 6687TIP3    H241553   4.448   6.069  12.938 -0.8485  0.4336  0.5704
 6688TIP3   OH241554   1.096   0.858   2.556  0.0269  0.3703  0.1510
 6688TIP3    H141555   1.067   0.772   2.587  1.0281 -0.0843 -0.1471
 6688TIP3    H241556   1.116   0.906   2.636  0.3924 -0.0109  0.2930
 6689TIP3   OH241557   1.095   1.897  13.156 -0.0383 -0.2513  0.1992
 6689TIP3    H141558   1.010   1.912  13.116  0.3085  0.9445 -0.1170
 6689TIP3    H241559   1.111   1.975  13.209  1.9350  0.6835 -1.6795
 6690TIP3   OH241560   1.460   2.012   4.129  0.3466 -0.3403 -0.4163
 6690TIP3    H141561   1.435   1.923   4.154  0.7687 -0.4174 -0.2541
 6690TIP3    H241562   1.503   2.047   4.207 -0.7243  0.3697 -0.1348
 6691TIP3   OH241563   6.479   2.269   5.707  0.2531  0.4843  0.5705
 6691TIP3    H141564   6.430   2.265   5.789  0.3563 -3.7963  0.5457
 6691TIP3    H241565   6.562   2.226   5.727  0.3196 -0.5569 -1.7139
 6692TIP3   OH241566   0.135   4.124  13.962  0.6666 -0.2698 -0.6137
 6692TIP3    H141567   0.172   4.176  14.033 -1.6158 -1.3392  1.4373
 6692TIP3    H241568   0.211   4.092  13.913  2.3161  0.1892  1.5674
 6693TIP3   OH241569   1.828   5.419   2.764  0.1184 -0.2293 -0.7180
 6693TIP3    H141570   1.892   5.360   2.725  2.0102  1.5874 -0.4113
 6693TIP3    H241571   1.797   5.372   2.841  1.2815 -1.0234 -0.7214
 6694TIP3   OH241572   0.422   3.597  11.983 -0.2289 -0.3139 -0.0524
 6694TIP3    H141573   0.476   3.518  11.974  0.3732  0.1822 -0.8541
 6694TIP3    H241574   0.370   3.599  11.902 -1.4026 -0.7447  0.6755
 6695TIP3   OH241575   3.911   3.170  15.282 -0.0597  0.2517  0.3021
 6695TIP3    H141576   3.902   3.089  15.333  0.8652 -0.0454  0.0072
 6695TIP3    H241577   3.824   3.187  15.247 -0.4234 -0.2210  0.9687
 6696TIP3   OH241578   0.969   2.564  11.725 -0.0281  0.7471 -0.3602
 6696TIP3    H141579   1.051   2.528  11.759  0.2435  0.5797 -1.1653
 6696TIP3    H241580   0.906   2.553  11.796  0.7491  1.2603  0.4171
 6697TIP3   OH241581   1.705   3.066   2.709 -0.2869 -0.1881 -0.3330
 6697TIP3    H141582   1.774   3.002   2.690 -1.4672 -1.2446 -1.0615
 6697TIP3    H241583   1.693   3.061   2.804  0.2960 -0.3415 -0.2642
 6698TIP3   OH241584   3.301   6.593  12.474 -0.7526  0.2174 -0.4906
 6698TIP3    H141585   3.343   6.511  12.447  0.2722  0.1376  1.2286
 6698TIP3    H241586   3.208   6.572  12.479 -0.8497 -0.0504 -2.8144
 6699TIP3   OH241587   3.389   0.675  16.821  0.0369  0.4479 -0.2165
 6699TIP3    H141588   3.413   0.768  16.820  1.8796 -0.0068 -0.1299
 6699TIP3    H241589   3.302   0.672  16.781  0.3425  2.1021 -1.0401
 6700TIP3   OH241590   5.038   5.024   3.816  0.0940 -0.0081 -0.2491
 6700TIP3    H141591   5.069   5.104   3.774 -2.0297  0.6883 -0.5538
 6700TIP3    H241592   4.944   5.023   3.799 -0.3517 -1.1740  2.0723
 6701TIP3   OH241593   6.019   4.143  15.874  0.0933  0.3438  0.3744
 6701TIP3    H141594   5.970   4.163  15.954 -0.4743  1.5414 -0.2682
 6701TIP3    H241595   6.031   4.227  15.831 -0.8213 -0.4582 -1.5111
 6702TIP3   OH241596   1.389   4.154  10.268  0.8406  0.8422  0.4620
 6702TIP3    H141597   1.391   4.103  10.350 -1.3472 -2.1539 -1.2428
 6702TIP3    H241598   1.459   4.116  10.215  0.5019  0.9301 -0.0531
 6703TIP3   OH241599   1.047   6.736  16.724 -0.1688 -0.0346 -0.1158
 6703TIP3    H141600   1.096   6.742  16.641 -0.6535 -0.4288 -0.4330
 6703TIP3    H241601   1.050   6.825  16.759  0.0852  0.1275 -0.5376
 6704TIP3   OH241602   0.834   5.296  13.652  0.4890  0.8206  0.6839
 6704TIP3    H141603   0.809   5.204  13.661  1.2727  0.4608 -0.7397
 6704TIP3    H241604   0.780   5.330  13.581  1.7852  0.8466 -0.3174
 6705TIP3   OH241605   3.110   5.509  14.740  0.2644  0.1324  0.2986
 6705TIP3    H141606   3.099   5.463  14.824  1.2284  1.1570  0.9911
 6705TIP3    H241607   3.180   5.572  14.756  1.5885 -0.7604 -1.7405
 6706TIP3   OH241608   0.877   1.018  11.534  0.5036 -0.1293 -0.3234
 6706TIP3    H141609   0.860   1.108  11.506  0.0982  0.0074  0.3451
 6706TIP3    H241610   0.792   0.985  11.562  0.7489 -0.5354 -0.0468
 6707TIP3   OH241611   5.255   1.696  15.220 -0.0105 -0.1343 -0.1383
 6707TIP3    H141612   5.268   1.603  15.202 -0.7500 -0.1839 -0.4453
 6707TIP3    H241613   5.337   1.738  15.193  0.5288 -0.7574  0.5082
 6708TIP3   OH241614   0.604   3.225  14.522  0.0423 -0.3231 -0.4313
 6708TIP3    H141615   0.637   3.192  14.605 -0.2950 -1.1631 -0.6235
 6708TIP3    H241616   0.528   3.279  14.546  1.5833  1.6847  0.0088
 6709TIP3   OH241617   6.688   2.460  12.723  0.1969  0.0548 -0.1583
 6709TIP3    H141618   6.714   2.380  12.768  1.0069 -0.5421 -1.6622
 6709TIP3    H241619   6.680   2.525  12.792  1.9195 -0.7199  0.7899
 6710TIP3   OH241620   6.799   2.402  14.787 -0.0535 -0.2974  0.2449
 6710TIP3    H141621   6.719   2.401  14.839  0.6619 -0.9959  1.3535
 6710TIP3    H241622   6.861   2.453  14.839  0.8400 -1.4556  0.3395
 6711TIP3   OH241623   4.002   3.457  17.276 -0.3042 -0.9469 -0.5575
 6711TIP3    H141624   3.963   3.532  17.321  1.0918 -0.5444  0.0198
 6711TIP3    H241625   3.930   3.418  17.227 -1.1131  0.5866 -0.6055
 6712TIP3   OH241626   1.314   5.277  16.420 -0.3106 -0.1895  0.0783
 6712TIP3    H141627   1.267   5.272  16.337  0.8350  1.9712 -0.7460
 6712TIP3    H241628   1.379   5.207  16.415 -0.2768 -0.0990 -0.8315
 6713TIP3   OH241629   6.398   5.730   0.868  0.0714  0.7694 -0.2320
 6713TIP3    H141630   6.317   5.745   0.819  0.6365 -0.3268 -1.5241
 6713TIP3    H241631   6.390   5.640   0.901 -0.4130  1.5768  1.9177
 6714TIP3   OH241632   3.761   6.327  14.949 -0.4906 -0.1222  0.3879
 6714TIP3    H141633   3.691   6.266  14.970 -0.6198 -0.2315 -0.3278
 6714TIP3    H241634   3.717   6.411  14.936 -0.8083 -0.6394 -2.2664
 6715TIP3   OH241635   3.419   5.564   4.027  0.1080  0.2872 -0.0502
 6715TIP3    H141636   3.324   5.555   4.025  0.0261  0.6014  1.6251
 6715TIP3    H241637   3.439   5.585   4.119  1.8753 -0.8653 -0.1549
 6716TIP3   OH241638   0.284   5.792   2.882  0.1614  0.1544  0.0736
 6716TIP3    H141639   0.263   5.724   2.818  1.5452 -0.8725  0.7002
 6716TIP3    H241640   0.306   5.744   2.962  0.5294  1.3609  0.7025
 6717TIP3   OH241641   4.829   6.174   5.877  0.4009 -0.4909 -0.0249
 6717TIP3    H141642   4.816   6.125   5.958 -0.7648 -1.7267 -0.9472
 6717TIP3    H241643   4.884   6.248   5.903 -1.5565  0.2270  2.2985
 6718TIP3   OH241644   4.583   6.480   2.143  0.0531  0.7550 -0.4765
 6718TIP3    H141645   4.521   6.407   2.144  1.1518 -0.1831  0.3638
 6718TIP3    H241646   4.650   6.456   2.207  1.2475  1.7963 -1.3062
 6719TIP3   OH241647   1.705   5.202  11.432 -0.1639  0.2959  0.2058
 6719TIP3    H141648   1.631   5.258  11.408 -0.8048 -0.1960  1.0051
 6719TIP3    H241649   1.676   5.156  11.510  0.4182 -1.0445 -0.3520
 6720TIP3   OH241650   1.322   1.003  12.017 -0.0960 -0.0767  0.5917
 6720TIP3    H141651   1.315   0.932  11.952 -0.0526  0.3709  0.0962
 6720TIP3    H241652   1.330   1.083  11.965  0.7207  0.2149  1.1513
 6721TIP3   OH241653   0.326   6.793   3.923 -0.0193 -0.2840 -0.2907
 6721TIP3    H141654   0.365   6.798   3.836  0.8140  1.2306  0.1443
 6721TIP3    H241655   0.355   6.874   3.966  1.9394 -2.3051  2.3600
 6722TIP3   OH241656   4.183   0.472  14.674  0.1846 -1.0683 -0.8928
 6722TIP3    H141657   4.259   0.439  14.721 -0.0887 -0.2901  0.1023
 6722TIP3    H241658   4.114   0.407  14.691  0.3482 -1.2667 -0.9912
 6723TIP3   OH241659   3.330   1.718  12.751 -0.8390 -0.6042 -0.0655
 6723TIP3    H141660   3.321   1.813  12.747 -0.4857 -0.5101  1.1868
 6723TIP3    H241661   3.243   1.686  12.777 -1.2423 -0.7015 -1.5321
 6724TIP3   OH241662   5.821   0.413   0.845  0.7868  0.2018  0.0119
 6724TIP3    H141663   5.761   0.463   0.790 -0.7839 -0.8456  0.7322
 6724TIP3    H241664   5.857   0.346   0.788 -0.7514 -0.8097  0.1914
 6725TIP3   OH241665   0.922   6.006  14.734  0.2641 -0.5783 -0.2665
 6725TIP3    H141666   0.826   6.007  14.726  0.2766  1.2647 -0.4333
 6725TIP3    H241667   0.950   6.090  14.698  1.8095 -0.3871  1.2848
 6726TIP3   OH241668   5.060   1.406   6.338  0.1596 -0.2032 -0.5146
 6726TIP3    H141669   5.008   1.385   6.415  0.7982 -2.2939 -0.6096
 6726TIP3    H241670   5.033   1.494   6.313  0.6627  0.9033  2.6782
 6727TIP3   OH241671   4.762   3.524  15.759 -0.6587  0.6534  0.5578
 6727TIP3    H141672   4.849   3.538  15.723 -0.8512  0.0789 -0.1396
 6727TIP3    H241673   4.726   3.612  15.771 -1.0299  0.8402 -1.7332
 6728TIP3   OH241674   3.815   4.745  16.265 -0.3089 -0.3243 -0.8431
 6728TIP3    H141675   3.739   4.795  16.296 -1.5087 -1.5451 -1.7424
 6728TIP3    H241676   3.885   4.810  16.258 -1.8826  1.3022 -2.2328
 6729TIP3   OH241677   1.554   5.718   0.910  1.0986 -0.1537  0.1467
 6729TIP3    H141678   1.568   5.809   0.887 -1.8652 -0.0084 -1.3879
 6729TIP3    H241679   1.597   5.668   0.840 -0.2180  0.1567 -0.9080
 6730TIP3   OH241680   3.128   3.224   5.174  0.2508  0.5174 -0.3411
 6730TIP3    H141681   3.121   3.312   5.136 -0.3690  0.3118 -0.7044
 6730TIP3    H241682   3.197   3.182   5.122 -1.1114 -0.0181 -1.7767
 6731TIP3   OH241683   4.293   6.726  10.501  0.2540  0.3217  0.3048
 6731TIP3    H141684   4.212   6.768  10.472  1.1280  2.0685  0.3532
 6731TIP3    H241685   4.329   6.686  10.422 -0.0519  0.5517  0.0472
 6732TIP3   OH241686   5.066   6.478   5.718 -0.5165  0.2604 -0.4098
 6732TIP3    H141687   4.994   6.498   5.658  0.1410  2.7113 -0.4381
 6732TIP3    H241688   5.106   6.399   5.683 -0.7488  1.1115 -2.6376
 6733TIP3   OH241689   6.403   5.745   1.534 -0.0139  0.1538 -0.0966
 6733TIP3    H141690   6.403   5.657   1.573  1.2487 -0.3106 -1.1052
 6733TIP3    H241691   6.475   5.790   1.578 -1.7329  1.2813  1.6614
 6734TIP3   OH241692   5.541   3.529   6.611 -0.1011 -0.1363  0.0283
 6734TIP3    H141693   5.570   3.588   6.680  0.3303 -0.6006  0.2519
 6734TIP3    H241694   5.588   3.447   6.628  0.3278 -0.1280 -1.0623
 6735TIP3   OH241695   2.952   3.873   0.194 -0.0308  0.3950 -0.0258
 6735TIP3    H141696   2.985   3.808   0.255  1.3377  1.8359  0.7938
 6735TIP3    H241697   2.861   3.887   0.220  0.4666  0.7996  1.5316
 6736TIP3   OH241698   0.130   0.093   5.172 -0.1274 -0.0891  0.0698
 6736TIP3    H141699   0.065   0.100   5.101 -0.8316 -0.4958  0.6671
 6736TIP3    H241700   0.214   0.088   5.127 -0.7571 -3.1276 -0.8711
 6737TIP3   OH241701   2.735   0.756   0.727 -0.6428 -0.0433  0.3900
 6737TIP3    H141702   2.689   0.685   0.773 -1.3738 -1.7562 -2.8078
 6737TIP3    H241703   2.786   0.711   0.659  1.6747  2.2757  0.5315
 6738TIP3   OH241704   3.686   2.953  14.264  0.9839 -0.0958 -0.1909
 6738TIP3    H141705   3.607   2.959  14.317  1.4179 -0.7634  0.5482
 6738TIP3    H241706   3.657   2.912  14.182  0.4177  0.3887 -0.2337
 6739TIP3   OH241707   0.174   5.197  12.755  0.5420  0.0273  0.2468
 6739TIP3    H141708   0.162   5.107  12.785  2.0341 -0.1815  0.2534
 6739TIP3    H241709   0.099   5.244  12.792 -0.2136 -1.1883  0.3020
 6740TIP3   OH241710   2.917   3.866  13.952 -0.4440 -0.2508  0.3871
 6740TIP3    H141711   2.882   3.791  14.001 -1.4968 -0.2818 -0.3798
 6740TIP3    H241712   2.892   3.942  14.004 -0.4116 -0.3683  0.5735
 6741TIP3   OH241713   3.577   2.018  15.981 -0.1537  0.5278  0.1744
 6741TIP3    H141714   3.619   1.932  15.982  1.4401  1.2972  0.7904
 6741TIP3    H241715   3.517   2.014  15.906  1.4564 -0.3927 -1.0825
 6742TIP3   OH241716   5.854   0.935   4.987 -0.2661 -0.4961 -0.2349
 6742TIP3    H141717   5.763   0.939   5.017  0.6556 -2.1790  2.9096
 6742TIP3    H241718   5.894   1.015   5.022 -0.0474 -0.7374  0.0661
 6743TIP3   OH241719   2.687   1.419  13.116  0.1965 -0.2187  0.3890
 6743TIP3    H141720   2.710   1.421  13.023 -0.2381 -2.5728  0.1825
 6743TIP3    H241721   2.593   1.402  13.116 -0.1466  1.5713  1.2676
 6744TIP3   OH241722   2.674   4.839  15.724  0.0569 -0.4810  0.0360
 6744TIP3    H141723   2.651   4.906  15.788 -0.6667 -0.9540  0.2877
 6744TIP3    H241724   2.598   4.835  15.665  1.4173  1.1345 -1.8790
 6745TIP3   OH241725   0.765   1.128  10.886  0.2388  0.5579 -0.5710
 6745TIP3    H141726   0.841   1.168  10.843  1.2796 -1.7142 -0.9026
 6745TIP3    H241727   0.735   1.061  10.824 -0.1424 -0.6439  0.8918
 6746TIP3   OH241728   2.528   6.265  14.349 -0.0486  0.2763  0.2115
 6746TIP3    H141729   2.529   6.169  14.351 -0.2682  0.2825  0.6288
 6746TIP3    H241730   2.618   6.289  14.330  0.2420  0.0122  1.2434
 6747TIP3   OH241731   6.652   0.608  12.758 -0.4716  0.5316  0.1378
 6747TIP3    H141732   6.672   0.698  12.783 -1.3145  0.4490  1.1525
 6747TIP3    H241733   6.707   0.591  12.682  0.6240  1.4829  0.7034
 6748TIP3   OH241734   0.619   3.491  16.755 -0.3370 -0.3209 -0.5524
 6748TIP3    H141735   0.550   3.554  16.734 -1.3799 -1.9054 -2.0326
 6748TIP3    H241736   0.692   3.516  16.698 -0.3136  0.2712 -0.2723
 6749TIP3   OH241737   6.180   3.379   0.741 -0.0148 -0.3357  0.1308
 6749TIP3    H141738   6.110   3.315   0.728  0.3955 -0.0352 -4.0805
 6749TIP3    H241739   6.251   3.328   0.781 -1.7492 -1.1264  2.3660
 6750TIP3   OH241740   3.822   5.558   5.145  0.4973  0.2553 -0.3219
 6750TIP3    H141741   3.808   5.646   5.109 -1.7633 -0.2147 -0.6934
 6750TIP3    H241742   3.744   5.542   5.199  0.9226 -1.5000 -0.2093
 6751TIP3   OH241743   3.215   1.428  11.608 -1.1561  0.6800 -0.2083
 6751TIP3    H141744   3.240   1.518  11.630 -3.0779  1.2502 -0.2197
 6751TIP3    H241745   3.136   1.438  11.555  0.4256 -0.8926 -2.9401
 6752TIP3   OH241746   0.538   5.955   4.583  0.2296  0.2384  0.1039
 6752TIP3    H141747   0.444   5.948   4.602  0.3297  0.1638  0.5612
 6752TIP3    H241748   0.580   5.901   4.649  0.5224 -0.6936 -0.8275
 6753TIP3   OH241749   2.695   1.061   2.627  0.1698 -0.0766 -0.4307
 6753TIP3    H141750   2.606   1.091   2.641 -0.7190 -3.1493  0.9273
 6753TIP3    H241751   2.732   1.054   2.715  1.8740  1.4920 -0.9951
 6754TIP3   OH241752   1.995   1.838  14.036  0.2446 -0.1246  0.0804
 6754TIP3    H141753   2.089   1.852  14.023  0.1964 -0.2650 -0.4425
 6754TIP3    H241754   1.967   1.794  13.956 -0.0662 -1.0546  0.6951
 6755TIP3   OH241755   1.458   5.478   6.019  0.1878 -0.2599 -0.4942
 6755TIP3    H141756   1.494   5.438   5.940 -1.4700  0.4540 -1.6415
 6755TIP3    H241757   1.382   5.424   6.040  0.3190 -0.1356  0.3116
 6756TIP3   OH241758   6.254   2.424  17.001  0.0725 -0.2634  0.3157
 6756TIP3    H141759   6.205   2.506  16.992 -1.0679 -1.0602 -0.9248
 6756TIP3    H241760   6.194   2.366  17.048  0.3958 -0.7768  0.0900
 6757TIP3   OH241761   4.016   6.015  15.323  0.6321  0.5613  0.5323
 6757TIP3    H141762   4.047   6.089  15.271 -2.0893  0.4554 -1.3633
 6757TIP3    H241763   3.975   6.055  15.400 -0.3080  1.0092 -0.1953
 6758TIP3   OH241764   0.512   2.344  17.229 -0.1685  0.4725  0.2636
 6758TIP3    H141765   0.510   2.414  17.294 -0.0021 -3.5236  4.7847
 6758TIP3    H241766   0.433   2.294  17.244  0.5382 -1.3368 -1.7663
 6759TIP3   OH241767   4.100   4.355   4.087  0.2881 -0.3445  0.2070
 6759TIP3    H141768   4.012   4.318   4.079  0.2469 -0.1125 -0.4454
 6759TIP3    H241769   4.129   4.367   3.996 -1.4843  5.4543  0.2219
 6760TIP3   OH241770   5.922   5.033   3.027 -0.8098  0.0530 -0.5984
 6760TIP3    H141771   5.944   5.121   2.995 -1.0236  0.2560 -0.1934
 6760TIP3    H241772   5.879   5.049   3.111  0.3573 -0.5112  0.1119
 6761TIP3   OH241773   0.139   3.071  15.919  0.0570 -0.6179  0.1057
 6761TIP3    H141774   0.102   2.988  15.889 -1.4133  0.1310 -0.2190
 6761TIP3    H241775   0.230   3.051  15.939  0.0111 -2.0619 -1.0248
 6762TIP3   OH241776   0.121   0.309   3.992 -0.0226  0.6084  0.0212
 6762TIP3    H141777   0.062   0.262   3.933 -0.0377 -0.3896  0.8200
 6762TIP3    H241778   0.087   0.399   3.993 -1.6545  0.0143  0.6124
 6763TIP3   OH241779   5.257   0.920   3.135  0.2768  0.4842  0.2348
 6763TIP3    H141780   5.279   0.854   3.201 -1.2268  1.8517  2.1644
 6763TIP3    H241781   5.188   0.880   3.083  0.3580  0.0031  0.4953
 6764TIP3   OH241782   6.648   5.523  12.871  0.2936  0.0946  0.3201
 6764TIP3    H141783   6.721   5.566  12.826 -0.9919  1.5748 -0.3936
 6764TIP3    H241784   6.595   5.485  12.801  0.3628 -0.9596  0.8335
 6765TIP3   OH241785   5.290   6.062  12.480 -0.1104  0.2085 -0.2523
 6765TIP3    H141786   5.340   6.049  12.560  0.2836  0.9762 -0.3648
 6765TIP3    H241787   5.334   6.008  12.415  1.2174  1.6688 -0.6045
 6766TIP3   OH241788   3.358   5.152  10.916  0.5234 -0.6494  0.0037
 6766TIP3    H141789   3.291   5.088  10.938 -1.3544  0.8145 -1.2517
 6766TIP3    H241790   3.347   5.222  10.981  0.5357 -0.2012 -0.4732
 6767TIP3   OH241791   0.020   1.649  13.602  1.0426 -0.4078  0.1193
 6767TIP3    H141792   0.048   1.559  13.589 -1.4563 -1.2209  0.0421
 6767TIP3    H241793  -0.025   1.647  13.687 -0.7784  0.2911 -0.7984
 6768TIP3   OH241794   1.202   0.166   1.814  0.2131 -0.7875 -0.2499
 6768TIP3    H141795   1.200   0.236   1.879 -0.3623  0.1694 -1.2676
 6768TIP3    H241796   1.144   0.197   1.744  1.5652 -1.3424 -1.6585
 6769TIP3   OH241797   2.561   4.172   6.256  0.2421 -0.6975  0.2022
 6769TIP3    H141798   2.515   4.196   6.337  0.3632 -1.4920  0.5086
 6769TIP3    H241799   2.581   4.079   6.266 -0.6366 -1.0521 -1.1701
 6770TIP3   OH241800   3.760   4.753   1.308 -0.8032 -0.1710 -0.2977
 6770TIP3    H141801   3.737   4.846   1.300 -0.8820  0.0316  2.0974
 6770TIP3    H241802   3.848   4.753   1.345 -1.0424 -1.0543  0.2916
 6771TIP3   OH241803   1.217   4.999   2.144  0.2923 -0.0689  0.4140
 6771TIP3    H141804   1.193   4.906   2.147 -0.7181  0.2029  0.9619
 6771TIP3    H241805   1.166   5.034   2.071  0.1497  0.1997  0.6417
 6772TIP3   OH241806   2.900   0.877  15.128  0.4224  0.1123 -0.4167
 6772TIP3    H141807   2.880   0.794  15.171 -0.0379  0.5343  0.2004
 6772TIP3    H241808   2.825   0.894  15.071 -0.2865  0.9435  0.7483
 6773TIP3   OH241809   3.475   3.472  17.074  0.0375 -0.1499  0.4030
 6773TIP3    H141810   3.424   3.410  17.021 -0.5725  1.7921 -1.3614
 6773TIP3    H241811   3.413   3.540  17.099  0.9943  0.4825  1.1251
 6774TIP3   OH241812   4.829   1.558  11.365  0.0505 -0.1185  0.2071
 6774TIP3    H141813   4.913   1.591  11.397 -0.4735  0.8300  0.6028
 6774TIP3    H241814   4.813   1.607  11.285 -0.6884  0.5272  0.7504
 6775TIP3   OH241815   1.272   1.645  12.441 -0.0982  0.2987 -0.6517
 6775TIP3    H141816   1.353   1.603  12.410 -0.3039 -2.0790  1.8202
 6775TIP3    H241817   1.204   1.580  12.424 -0.6924  0.2382  1.7667
 6776TIP3   OH241818   2.953   6.788  10.966  0.2160  0.3346  0.6158
 6776TIP3    H141819   2.931   6.860  10.907  2.0876  1.0008  0.7224
 6776TIP3    H241820   2.943   6.709  10.912 -2.1993  0.6188  0.6018
 6777TIP3   OH241821   3.599   4.878  13.146  0.0388 -0.1876  0.4459
 6777TIP3    H141822   3.512   4.902  13.179  0.2441  0.8849  0.2086
 6777TIP3    H241823   3.657   4.944  13.183  0.3491  0.7185 -1.6466
 6778TIP3   OH241824   2.131   2.749  16.572  0.1461 -0.1243 -0.4333
 6778TIP3    H141825   2.093   2.756  16.485 -0.4384 -1.8250 -0.3269
 6778TIP3    H241826   2.086   2.675  16.613 -0.6622  1.5688  1.8791
 6779TIP3   OH241827   1.916   3.879  14.779  0.2653  0.0754 -0.1861
 6779TIP3    H141828   1.937   3.883  14.872 -1.0679 -0.1797  0.1330
 6779TIP3    H241829   1.821   3.888  14.775  0.4651  1.8347 -1.6436
 6780TIP3   OH241830   6.357   1.661  11.081 -0.4748  0.6399  0.6398
 6780TIP3    H141831   6.434   1.608  11.060 -1.1696 -0.6721  1.2570
 6780TIP3    H241832   6.331   1.702  10.999  0.8267  1.0144  0.4167
 6781TIP3   OH241833   4.800   3.295   3.079 -0.0825  0.0880 -0.1796
 6781TIP3    H141834   4.859   3.219   3.083  0.6038  0.6007 -0.6223
 6781TIP3    H241835   4.789   3.321   3.170  0.4760  0.0656 -0.1022
 6782TIP3   OH241836   4.620   2.610   4.700  0.0667  0.5116 -0.0550
 6782TIP3    H141837   4.588   2.698   4.721  1.0203  1.0985 -1.0108
 6782TIP3    H241838   4.702   2.603   4.750 -0.1387  0.0543  0.2265
 6783TIP3   OH241839   3.539   3.812   0.918 -0.0864  0.1253  0.2234
 6783TIP3    H141840   3.567   3.820   0.826 -0.6850  0.7085  0.0905
 6783TIP3    H241841   3.452   3.774   0.913 -1.8445  3.9018  0.3204
 6784TIP3   OH241842   0.644   0.537   1.965 -0.1632  0.4883 -0.1773
 6784TIP3    H141843   0.730   0.578   1.951 -0.0655  0.9859  1.7052
 6784TIP3    H241844   0.660   0.470   2.031 -0.9780 -0.3199 -0.8006
 6785TIP3   OH241845   4.643   1.154  14.902  0.6905  0.1628  0.1756
 6785TIP3    H141846   4.642   1.128  14.810 -0.2442 -0.0800  0.2471
 6785TIP3    H241847   4.644   1.249  14.900  0.0414  0.1663 -0.0883
 6786TIP3   OH241848   0.418   3.827  11.558  0.0655 -0.8769  0.3025
 6786TIP3    H141849   0.398   3.765  11.488 -0.7632  0.8004 -0.9698
 6786TIP3    H241850   0.514   3.828  11.562  0.1075 -1.1638 -0.6364
 6787TIP3   OH241851   1.408   3.286   1.498  0.0607  0.0133  0.4292
 6787TIP3    H141852   1.400   3.271   1.404 -0.6379  0.3708  0.4292
 6787TIP3    H241853   1.353   3.362   1.515  1.1082  0.6630  0.9407
 6788TIP3   OH241854   4.069   2.488  11.695 -0.0733 -0.5441  0.0570
 6788TIP3    H141855   4.048   2.480  11.788  0.4324 -0.2193  0.2000
 6788TIP3    H241856   3.984   2.502  11.653 -0.2963 -0.6114  0.4769
 6789TIP3   OH241857   5.873   5.722   0.342 -0.3019  0.2721  0.2858
 6789TIP3    H141858   5.814   5.646   0.341  0.4653 -0.3358  0.7699
 6789TIP3    H241859   5.824   5.791   0.297 -0.9309 -0.5738 -0.3526
 6790TIP3   OH241860   4.835   5.360   5.018  0.0754  0.2874  0.1056
 6790TIP3    H141861   4.922   5.322   5.031 -0.4141 -0.4769  1.3312
 6790TIP3    H241862   4.849   5.455   5.022  1.1022  0.2166 -1.5057
 6791TIP3   OH241863   4.013   0.656   0.418 -0.3894  0.4078 -0.2719
 6791TIP3    H141864   4.086   0.702   0.459  0.1113  0.1852 -0.9058
 6791TIP3    H241865   3.937   0.677   0.473 -0.0039  1.2848 -0.0725
 6792TIP3   OH241866   5.549   3.928   4.002  0.2659 -0.3192 -0.1874
 6792TIP3    H141867   5.594   3.900   4.081 -1.3964 -1.2435  0.4524
 6792TIP3    H241868   5.589   3.877   3.932  1.2216 -0.0529  0.1587
 6793TIP3   OH241869   1.007   0.174  16.848 -0.1405 -0.2677 -0.3218
 6793TIP3    H141870   0.971   0.218  16.772 -1.7467  0.4390  0.8092
 6793TIP3    H241871   1.011   0.242  16.916 -0.0649 -1.2104  0.6343
 6794TIP3   OH241872   6.777   0.236   2.589  0.4705  0.7679 -0.5372
 6794TIP3    H141873   6.789   0.143   2.606  3.2416  1.0138 -1.0131
 6794TIP3    H241874   6.815   0.280   2.665 -1.0376  1.5238 -0.2026
 6795TIP3   OH241875   3.682   3.668   2.854  0.1697 -0.5248 -0.0914
 6795TIP3    H141876   3.728   3.750   2.836 -0.9319 -0.1778 -1.3793
 6795TIP3    H241877   3.624   3.688   2.928 -0.4333 -0.0013 -0.6990
 6796TIP3   OH241878   1.027   3.267   1.490  0.4489 -0.4928 -0.0692
 6796TIP3    H141879   1.048   3.185   1.445  0.5012 -0.4611 -0.1029
 6796TIP3    H241880   0.935   3.258   1.515  0.5213 -0.6596  0.1370
 6797TIP3   OH241881   5.169   4.477   2.419  0.2645  0.0520  0.1492
 6797TIP3    H141882   5.142   4.445   2.505  1.3996  0.2466  0.5815
 6797TIP3    H241883   5.110   4.432   2.358 -1.6267  1.1585  1.1267
 6798TIP3   OH241884   4.344   2.745  12.476 -0.1653  0.3696  0.4743
 6798TIP3    H141885   4.331   2.831  12.515  1.5800  0.1544  1.6130
 6798TIP3    H241886   4.275   2.737  12.410 -1.0809  2.1360  1.1859
 6799TIP3   OH241887   4.234   4.889   2.586  0.3977 -0.0942 -0.8231
 6799TIP3    H141888   4.205   4.928   2.504  1.2088  2.4926  0.0736
 6799TIP3    H241889   4.330   4.885   2.577  0.4258 -0.5622 -0.3241
 6800TIP3   OH241890   3.378   3.174   3.936 -0.2572 -0.1540  0.1339
 6800TIP3    H141891   3.302   3.164   3.993 -1.0582 -0.0491 -0.9032
 6800TIP3    H241892   3.352   3.241   3.873  0.9001  0.2776  0.1039
 6801TIP3   OH241893   6.214   1.146   0.651  0.0489 -0.6300  0.4059
 6801TIP3    H141894   6.169   1.110   0.728 -1.7541  1.2837  0.2858
 6801TIP3    H241895   6.299   1.102   0.651 -0.1372 -1.1190  3.1723
 6802TIP3   OH241896   4.976   2.236   3.545  0.2111  0.8803  0.0905
 6802TIP3    H141897   5.024   2.154   3.528  0.8977  1.3372 -0.1972
 6802TIP3    H241898   4.976   2.282   3.461  1.9834  2.2838  0.8055
 6803TIP3   OH241899   1.197   3.456  12.745  0.1607 -0.0006  0.5885
 6803TIP3    H141900   1.213   3.409  12.827 -1.1344 -0.7725  0.4277
 6803TIP3    H241901   1.271   3.434  12.689 -1.2263 -3.3123 -0.0952
 6804TIP3   OH241902   4.173   1.546   5.786  0.1866  0.2721  0.0237
 6804TIP3    H141903   4.228   1.497   5.724 -0.0078  0.5588 -0.3773
 6804TIP3    H241904   4.231   1.612   5.824  0.3721 -0.0719  0.3407
 6805TIP3   OH241905   2.257   1.755   1.618 -1.3182  0.1978  0.7302
 6805TIP3    H141906   2.196   1.772   1.690  1.1316  1.4800  2.5737
 6805TIP3    H241907   2.264   1.660   1.614 -0.5471  0.1314  3.0259
 6806TIP3   OH241908   3.257   3.405  16.310  0.1242  0.5255  0.1551
 6806TIP3    H141909   3.221   3.329  16.264  0.9385  0.1341  0.1528
 6806TIP3    H241910   3.211   3.480  16.272 -1.1988 -0.0263  0.6716
 6807TIP3   OH241911   5.334   5.878  15.728 -0.0535 -0.5074  0.1903
 6807TIP3    H141912   5.308   5.796  15.684 -1.3875  1.0183 -1.9422
 6807TIP3    H241913   5.378   5.929  15.660 -0.1238  0.9745  1.2376
 6808TIP3   OH241914   5.532   3.621  11.608 -0.2953  0.1371 -0.2272
 6808TIP3    H141915   5.592   3.650  11.539  0.9279 -0.7045  0.4493
 6808TIP3    H241916   5.550   3.679  11.682  0.8396 -1.0957  0.5046
 6809TIP3   OH241917   3.602   3.337   3.654  0.3054 -0.0359  0.2831
 6809TIP3    H141918   3.687   3.296   3.640 -0.2416 -1.0651 -0.0514
 6809TIP3    H241919   3.613   3.388   3.735  1.6452  0.9769 -0.5116
 6810TIP3   OH241920   0.110   3.778   2.402  0.0659  0.1599  0.3830
 6810TIP3    H141921   0.136   3.774   2.494 -0.4771  0.2898  0.5426
 6810TIP3    H241922   0.181   3.824   2.359  1.1580 -1.4160  0.4393
 6811TIP3   OH241923   5.389   2.904   1.189  0.1206  0.4804 -0.3274
 6811TIP3    H141924   5.340   2.984   1.207 -1.7517 -0.1947 -2.2313
 6811TIP3    H241925   5.365   2.845   1.261 -0.2454  0.8510 -0.1430
 6812TIP3   OH241926   0.637   6.400   1.901  0.6897  0.5033  0.2585
 6812TIP3    H141927   0.560   6.348   1.879  1.7529 -1.6231  1.4195
 6812TIP3    H241928   0.623   6.483   1.855 -1.8896 -0.1232 -0.2048
 6813TIP3   OH241929   2.479   6.736  13.546  0.0757 -0.0191 -0.1152
 6813TIP3    H141930   2.396   6.691  13.561 -0.5431  1.7206  2.0440
 6813TIP3    H241931   2.545   6.681  13.589 -0.3392 -0.0441  0.4880
 6814TIP3   OH241932   4.253   1.633   0.870 -0.3984  0.8007  0.0445
 6814TIP3    H141933   4.186   1.668   0.929 -0.5748  0.2865  0.1563
 6814TIP3    H241934   4.268   1.544   0.903 -1.7929 -0.1306 -1.7851
 6815TIP3   OH241935   0.659   0.305   1.512  0.4563 -0.5195 -0.1519
 6815TIP3    H141936   0.660   0.349   1.427 -1.7595 -0.8154 -0.3637
 6815TIP3    H241937   0.649   0.376   1.576 -2.4823 -0.6105 -0.4551
 6816TIP3   OH241938   1.246   0.539   2.316  0.2644 -0.7947 -0.3492
 6816TIP3    H141939   1.283   0.481   2.383  3.3271  0.2654 -1.0477
 6816TIP3    H241940   1.242   0.485   2.237  0.1026 -0.9867 -0.2093
 6817TIP3   OH241941   3.755   2.845  16.640  0.3142 -0.3812  0.5058
 6817TIP3    H141942   3.665   2.818  16.622  0.6809 -2.1563  1.2846
 6817TIP3    H241943   3.786   2.882  16.557 -0.7014 -0.9390 -0.1374
 6818TIP3   OH241944   1.512   2.444  10.804  0.1597 -0.2394  0.1121
 6818TIP3    H141945   1.470   2.391  10.736  2.0571 -1.6006 -0.0275
 6818TIP3    H241946   1.553   2.380  10.862  0.0130  0.9799  1.6072
 6819TIP3   OH241947   2.720   6.021  11.889  0.3561 -0.2113  0.2433
 6819TIP3    H141948   2.768   6.102  11.872 -1.9609  1.2372  0.3954
 6819TIP3    H241949   2.657   6.044  11.958 -1.1305 -1.8147 -0.5374
 6820TIP3   OH241950   2.312   3.802   5.865 -0.1151  0.2391 -0.2086
 6820TIP3    H141951   2.259   3.790   5.786  0.8234  0.2391 -0.8508
 6820TIP3    H241952   2.308   3.895   5.883 -0.3871  0.2296 -0.2209
 6821TIP3   OH241953   4.284   5.726   0.104  0.0727  0.2496 -0.0770
 6821TIP3    H141954   4.289   5.763   0.016 -0.9597 -2.2205 -1.2300
 6821TIP3    H241955   4.373   5.733   0.138  0.2848  2.0672 -0.9425
 6822TIP3   OH241956   2.984   1.815   6.617 -0.2536  0.2044  0.3047
 6822TIP3    H141957   3.013   1.878   6.684  2.0761 -0.8487  0.3629
 6822TIP3    H241958   2.914   1.765   6.660  0.4576  0.2767  1.5963
 6823TIP3   OH241959   2.105   3.567  15.869  0.4049  0.0111  0.3042
 6823TIP3    H141960   2.070   3.635  15.812 -0.1754 -1.5878 -1.2997
 6823TIP3    H241961   2.078   3.594  15.957 -1.4213  0.8842 -0.4912
 6824TIP3   OH241962   6.481   4.954  13.219  0.0609  0.5933  0.1180
 6824TIP3    H141963   6.502   4.939  13.311 -1.0065 -0.5576  0.1811
 6824TIP3    H241964   6.421   4.883  13.196  0.7361  0.5633 -1.6122
 6825TIP3   OH241965   3.776   2.172  12.912  0.2907 -0.0137 -0.3889
 6825TIP3    H141966   3.747   2.138  12.997 -2.2060 -3.0089 -2.3433
 6825TIP3    H241967   3.723   2.251  12.899 -1.1483 -0.9512 -0.2808
 6826TIP3   OH241968   4.924   1.307  13.956  0.2848  0.1004  0.0079
 6826TIP3    H141969   5.010   1.335  13.989 -0.5527  2.4935  0.2314
 6826TIP3    H241970   4.901   1.372  13.891 -2.4272  0.8603  1.6310
 6827TIP3   OH241971   0.352   5.526   4.386  0.0241  0.0882  0.0596
 6827TIP3    H141972   0.361   5.443   4.433 -1.7198  1.2010  2.4887
 6827TIP3    H241973   0.420   5.582   4.423 -1.5677  1.0738  1.5679
 6828TIP3   OH241974   3.690   4.050   0.772  0.2454 -0.1535  0.3099
 6828TIP3    H141975   3.685   4.140   0.740  0.7980 -0.3064 -0.2014
 6828TIP3    H241976   3.646   3.998   0.704  1.7721 -0.5261 -0.4135
 6829TIP3   OH241977   4.506   3.753  11.182  0.1999  0.4266 -0.0757
 6829TIP3    H141978   4.505   3.665  11.143 -1.9426  0.4145 -0.0146
 6829TIP3    H241979   4.466   3.809  11.116  0.4892  1.1536  0.3634
 6830TIP3   OH241980   0.051   6.543   3.679 -0.1591  0.3811 -0.1302
 6830TIP3    H141981   0.105   6.622   3.690  0.1874  0.3342 -1.3902
 6830TIP3    H241982   0.106   6.484   3.628 -0.7439 -0.3470  0.0842
 6831TIP3   OH241983   3.075   4.072  11.367 -0.0305  0.4428  0.2342
 6831TIP3    H141984   3.166   4.050  11.345 -1.3660 -2.0836 -3.1494
 6831TIP3    H241985   3.059   4.154  11.321 -0.5090 -0.9961 -2.2705
 6832TIP3   OH241986   6.738   5.098  11.869  0.4961  0.4374  0.4834
 6832TIP3    H141987   6.712   5.022  11.815  2.0900 -0.0455  0.3614
 6832TIP3    H241988   6.741   5.064  11.958  1.5798  0.2557  0.3807
 6833TIP3   OH241989   1.920   3.073   2.120 -0.3053 -0.2575 -0.3362
 6833TIP3    H141990   2.013   3.071   2.144  0.0153  3.5298 -0.9732
 6833TIP3    H241991   1.920   3.061   2.025 -0.4145  0.3454 -0.4133
 6834TIP3   OH241992   2.550   0.723  15.838 -0.3361 -0.6050 -0.0400
 6834TIP3    H141993   2.613   0.651  15.842  1.7565  1.2541  1.6392
 6834TIP3    H241994   2.465   0.680  15.841  0.8642 -3.0321  0.8610
 6835TIP3   OH241995   5.772   6.380   0.853  0.7149 -0.3010  0.2379
 6835TIP3    H141996   5.729   6.310   0.804 -1.3664  1.4186 -0.4846
 6835TIP3    H241997   5.783   6.345   0.941 -0.0271 -1.6359 -0.1826
 6836TIP3   OH241998   2.076   4.570   3.865  0.0506 -0.0480  0.0666
 6836TIP3    H141999   2.161   4.528   3.850  0.0931  1.0378 -3.2562
 6836TIP3    H242000   2.094   4.640   3.927  0.9565 -1.6661  1.7013
 6837TIP3   OH242001   0.896   3.320   3.135 -0.3409  0.5842  0.0875
 6837TIP3    H142002   0.876   3.262   3.061  0.4147  1.8599 -1.1267
 6837TIP3    H242003   0.810   3.356   3.160 -0.3947  1.3773 -1.2045
 6838TIP3   OH242004   5.625   0.812  13.903  0.9941  0.3855 -0.1044
 6838TIP3    H142005   5.542   0.846  13.936  0.2911 -1.7943  0.4930
 6838TIP3    H242006   5.617   0.819  13.808  0.1365  0.2434 -0.0523
 6839TIP3   OH242007   1.709   3.581  14.613  0.4119 -0.4924 -0.7785
 6839TIP3    H142008   1.804   3.570  14.617  0.3702 -0.6624 -0.1953
 6839TIP3    H242009   1.682   3.595  14.704  0.2583  2.7726 -1.2638
 6840TIP3   OH242010   5.419   6.395  15.966 -0.0148 -0.1279  0.3524
 6840TIP3    H142011   5.403   6.352  15.881 -2.1574 -1.3945  1.3696
 6840TIP3    H242012   5.496   6.350  16.001  0.6602  0.1518 -0.7375
 6841TIP3   OH242013   1.232   6.237   4.624  0.3634 -1.0573  0.0650
 6841TIP3    H142014   1.185   6.182   4.686  0.3790 -2.2422 -0.9517
 6841TIP3    H242015   1.181   6.233   4.543  0.6523 -0.0054 -0.1837
 6842TIP3   OH242016   4.424   5.974  12.003  0.1388  0.2687 -0.2608
 6842TIP3    H142017   4.359   5.974  12.072 -0.3583 -0.3398 -0.7242
 6842TIP3    H242018   4.381   5.932  11.929  0.4849  1.3573 -1.1034
 6843TIP3   OH242019   3.636   3.746   0.060  0.2458 -0.0727  0.2496
 6843TIP3    H142020   3.604   3.760   0.149  2.2897  1.9323  0.7387
 6843TIP3    H242021   3.698   3.674   0.067 -1.4005 -1.5255 -0.0165
 6844TIP3   OH242022   5.886   2.709  12.507 -0.6084 -0.3758  0.2415
 6844TIP3    H142023   5.963   2.655  12.526 -0.5035  0.1111  1.2376
 6844TIP3    H242024   5.866   2.752  12.590 -0.2271  1.7420 -0.7390
 6845TIP3   OH242025   6.537   6.716   0.127 -0.3724  0.5287 -0.1559
 6845TIP3    H142026   6.511   6.808   0.130  0.4929  0.7545  0.5923
 6845TIP3    H242027   6.462   6.672   0.089 -0.9331  1.5007 -0.2060
 6846TIP3   OH242028   0.559   3.926   2.278  0.4183  0.3518 -0.0147
 6846TIP3    H142029   0.585   3.878   2.199  0.9756  0.3822  0.1520
 6846TIP3    H242030   0.597   4.013   2.268  1.3955  0.0289  0.7792
 6847TIP3   OH242031   5.908   0.104   2.742  0.6543  0.4218 -0.1533
 6847TIP3    H142032   5.825   0.150   2.756  0.1358  0.4593 -2.8843
 6847TIP3    H242033   5.975   0.171   2.756  0.0004  1.4627 -1.8003
 6848TIP3   OH242034   1.182   2.314   6.110  0.6417  0.4099 -0.4387
 6848TIP3    H142035   1.108   2.259   6.136  0.6763  0.0393 -1.1281
 6848TIP3    H242036   1.258   2.257   6.116  0.7587  0.5504 -0.5821
 6849TIP3   OH242037   0.532   1.382   4.356 -0.1527 -0.2420 -0.1525
 6849TIP3    H142038   0.546   1.321   4.284  1.7418  0.1573 -0.1483
 6849TIP3    H242039   0.443   1.364   4.387 -0.0849 -2.0703 -1.0098
 6850TIP3   OH242040   0.371   3.096  16.708 -0.0414  0.0191  0.5802
 6850TIP3    H142041   0.388   3.061  16.795 -1.2540 -0.1211  0.7760
 6850TIP3    H242042   0.457   3.122  16.674  0.3701  0.5535  2.0170
 6851TIP3   OH242043   4.543   4.982   3.559 -0.2326  0.0798  0.2174
 6851TIP3    H142044   4.580   4.932   3.487  1.5425  0.2729  0.9804
 6851TIP3    H242045   4.519   4.915   3.624  1.4008  0.1403  0.9012
 6852TIP3   OH242046   4.836   2.411   5.534 -0.2569 -0.1753 -0.1182
 6852TIP3    H142047   4.810   2.460   5.613 -1.9187 -1.3912  0.1240
 6852TIP3    H242048   4.799   2.462   5.462 -2.2231 -1.1518  0.1499
 6853TIP3   OH242049   3.108   2.391  10.987 -0.0684 -0.0531  0.5079
 6853TIP3    H142050   3.085   2.416  11.077 -1.0930 -0.7430  0.4427
 6853TIP3    H242051   3.100   2.296  10.986 -1.1194  0.0435 -0.6126
 6854TIP3   OH242052   4.941   4.882  15.178 -0.1877 -0.3071  0.1331
 6854TIP3    H142053   4.930   4.816  15.109 -3.6827 -0.3938  0.6709
 6854TIP3    H242054   4.952   4.830  15.258  0.0587 -0.2324  0.1465
 6855TIP3   OH242055   6.028   1.194  11.957  0.1177  0.8003  0.0355
 6855TIP3    H142056   6.118   1.182  11.926  0.0342  0.3763 -0.0464
 6855TIP3    H242057   6.037   1.231  12.044  0.3561  2.1636 -0.5581
 6856TIP3   OH242058   3.430   1.195  16.373  0.5199 -0.3868 -0.4282
 6856TIP3    H142059   3.430   1.281  16.416  1.7603 -0.0063 -1.1730
 6856TIP3    H242060   3.435   1.132  16.445  0.1285  0.1743  0.0919
 6857TIP3   OH242061   4.304   1.589  15.443 -0.4079  0.6803  0.1867
 6857TIP3    H142062   4.376   1.599  15.380 -1.3884 -0.5521 -1.1694
 6857TIP3    H242063   4.259   1.509  15.415 -2.0618  1.2155  1.2644
 6858TIP3   OH242064   5.760   5.420   0.031  0.4264 -0.3518  0.2834
 6858TIP3    H142065   5.714   5.412  -0.052  1.9167  0.9244 -0.6923
 6858TIP3    H242066   5.853   5.420   0.007  0.8523  1.4682  1.7947
 6859TIP3   OH242067   6.427   3.010   3.844  0.1645  0.5571  0.0823
 6859TIP3    H142068   6.437   2.936   3.784 -0.4008 -0.4420  1.2164
 6859TIP3    H242069   6.363   2.981   3.909  2.9164  0.4873  2.8876
 6860TIP3   OH242070   4.494   3.580   3.449 -0.1064  0.1854  0.3832
 6860TIP3    H142071   4.440   3.544   3.519 -1.0484 -0.5847 -0.7153
 6860TIP3    H242072   4.573   3.527   3.450 -0.0551  0.2742  0.9702
 6861TIP3   OH242073   5.522   5.683  13.308  0.2197  0.1180  0.2799
 6861TIP3    H142074   5.464   5.609  13.323 -1.1020  0.8057 -1.3522
 6861TIP3    H242075   5.469   5.760  13.328  1.1541  0.7031  0.5869
 6862TIP3   OH242076   1.869   1.311  11.901  0.0653 -0.7185 -0.0201
 6862TIP3    H142077   1.937   1.376  11.884 -1.1719  0.4863 -0.4868
 6862TIP3    H242078   1.796   1.338  11.846 -1.1501 -1.4155  1.2192
 6863TIP3   OH242079   4.907   0.479  14.820  0.0294  0.0661 -0.5334
 6863TIP3    H142080   4.999   0.502  14.812 -0.4914  2.8577  0.9196
 6863TIP3    H242081   4.904   0.414  14.890  0.8410  0.3241 -0.2571
 6864TIP3   OH242082   5.162   4.087  12.198 -0.0413 -0.4838  0.1136
 6864TIP3    H142083   5.152   4.182  12.202  2.0923 -0.2469  0.8037
 6864TIP3    H242084   5.118   4.061  12.117  0.6961  1.3105 -0.8891
 6865TIP3   OH242085   1.330   5.068  14.179  0.4836  0.0543 -0.3941
 6865TIP3    H142086   1.253   5.085  14.233 -0.7910  1.2857 -2.5504
 6865TIP3    H242087   1.352   4.976  14.197  0.5842  0.6262  2.7565
 6866TIP3   OH242088   2.343   2.490  15.368 -0.3918 -0.4176  0.5320
 6866TIP3    H142089   2.343   2.394  15.371 -2.3113 -0.4265  1.2774
 6866TIP3    H242090   2.317   2.511  15.278 -1.3592 -0.6118  0.7652
 6867TIP3   OH242091   4.215   2.150   3.249 -0.4326  0.2987 -0.2314
 6867TIP3    H142092   4.198   2.062   3.216  2.1834 -0.6297  0.7815
 6867TIP3    H242093   4.153   2.161   3.321 -1.2507 -0.4417 -0.8201
 6868TIP3   OH242094   6.463   6.019   4.282 -0.7234 -0.1705 -0.1008
 6868TIP3    H142095   6.500   5.986   4.364  0.2458  0.2731 -0.3633
 6868TIP3    H242096   6.442   6.111   4.300  1.2342  0.4584 -0.9178
 6869TIP3   OH242097   0.221   3.282   0.270  0.6477 -0.1646 -0.4342
 6869TIP3    H142098   0.173   3.252   0.193 -1.3164  1.5014  0.0979
 6869TIP3    H242099   0.274   3.355   0.239  0.0299  0.3600 -0.2581
 6870TIP3   OH242100   3.980   2.135   5.636  0.4166  0.4917  0.2373
 6870TIP3    H142101   3.968   2.156   5.728  0.4687 -0.6245  0.5056
 6870TIP3    H242102   3.971   2.040   5.631  2.6143  0.2822 -0.5436
 6871TIP3   OH242103   3.423   1.336   0.810  0.3514 -0.1072  0.8839
 6871TIP3    H142104   3.425   1.308   0.901 -2.8984 -1.7671  0.4986
 6871TIP3    H242105   3.350   1.398   0.805  1.0720  0.6626 -0.4081
 6872TIP3   OH242106   5.261   6.010  13.568  0.5037  0.6196 -0.2261
 6872TIP3    H142107   5.295   5.978  13.485 -1.1409 -1.8368 -0.0105
 6872TIP3    H242108   5.201   5.942  13.597  1.7568  0.9847  3.4537
 6873TIP3   OH242109   0.618   0.748  13.137  0.5686  0.2686  0.4087
 6873TIP3    H142110   0.625   0.653  13.136 -0.3413  0.1468  2.7865
 6873TIP3    H242111   0.694   0.778  13.087 -0.3766 -1.7320 -2.3652
 6874TIP3   OH242112   6.120   0.700   0.801  0.5306  0.2660 -0.4475
 6874TIP3    H142113   6.197   0.755   0.792  1.0112 -0.5174 -1.2405
 6874TIP3    H242114   6.149   0.625   0.854  0.3960 -0.1545 -0.9574
 6875TIP3   OH242115   1.981   2.480  16.401  0.2101 -0.1465 -0.2037
 6875TIP3    H142116   1.992   2.524  16.317  0.5714 -1.7219 -0.9780
 6875TIP3    H242117   2.005   2.389  16.385 -1.2721 -0.8112  1.2071
 6876TIP3   OH242118   6.214   4.867  12.001  0.0292 -0.8023 -0.6152
 6876TIP3    H142119   6.250   4.797  11.948  0.5643 -1.7645  0.9784
 6876TIP3    H242120   6.284   4.889  12.063 -0.2154  0.9712 -0.9264
 6877TIP3   OH242121   0.855   1.265   0.217  0.0397  0.1413 -0.0794
 6877TIP3    H142122   0.938   1.310   0.203  0.4436 -0.7972 -0.7608
 6877TIP3    H242123   0.807   1.322   0.277  1.5582  0.2080  1.1171
 6878TIP3   OH242124   0.205   1.137   1.692 -0.2817 -0.2223 -0.1631
 6878TIP3    H142125   0.221   1.208   1.630 -1.5262  0.4044  0.2277
 6878TIP3    H242126   0.252   1.163   1.771 -0.0931 -0.2051 -0.2811
 6879TIP3   OH242127   6.098   1.270  14.402  0.1809  0.3197  0.2758
 6879TIP3    H142128   6.137   1.357  14.414 -0.1888  0.4715  0.3955
 6879TIP3    H242129   6.070   1.269  14.310  0.3499  0.2554  0.2239
 6880TIP3   OH242130   4.308   4.328  10.607  0.6234  0.5496  0.1424
 6880TIP3    H142131   4.266   4.376  10.536  4.4840  0.6368 -2.2731
 6880TIP3    H242132   4.304   4.236  10.580  0.8176  0.4205  0.5419
 6881TIP3   OH242133   2.556   6.010   0.390  0.6463  0.1602 -0.1666
 6881TIP3    H142134   2.464   6.035   0.380  0.4219 -1.3040 -2.0291
 6881TIP3    H242135   2.597   6.034   0.307  2.0500  1.1516  0.7940
 6882TIP3   OH242136   5.029   1.955   1.396  0.0187  0.4066  0.2389
 6882TIP3    H142137   5.072   1.894   1.337 -1.6661 -0.3535 -0.2303
 6882TIP3    H242138   5.063   2.041   1.370  0.5068 -0.0804 -0.7595
 6883TIP3   OH242139   4.349   2.380   4.432 -0.1898  0.4042  0.3763
 6883TIP3    H142140   4.395   2.306   4.392  1.7643  2.5979 -1.5876
 6883TIP3    H242141   4.276   2.397   4.373  1.5692  2.3982 -1.3226
 6884TIP3   OH242142   3.077   3.544   3.239  0.4278  0.0209  0.4699
 6884TIP3    H142143   3.069   3.468   3.180 -1.4458 -0.1870  0.9486
 6884TIP3    H242144   3.037   3.616   3.190  1.7753  0.5955  0.2107
 6885TIP3   OH242145   5.698   0.505   0.585  0.1496 -0.5024  0.5453
 6885TIP3    H142146   5.773   0.552   0.549 -0.8148 -0.9431 -2.1755
 6885TIP3    H242147   5.635   0.573   0.607  0.4723 -0.2706  0.7603
 6886TIP3   OH242148   5.437   1.229  13.828  0.2617 -0.4705  0.8252
 6886TIP3    H142149   5.430   1.294  13.898  0.3923 -0.3992  0.7715
 6886TIP3    H242150   5.383   1.264  13.757  2.0966  0.6430 -0.0327
 6887TIP3   OH242151   0.218   0.618   5.174 -0.6788 -0.0090 -0.0245
 6887TIP3    H142152   0.171   0.538   5.198 -0.1080 -0.2660  0.2196
 6887TIP3    H242153   0.301   0.587   5.138 -0.7637  0.4439 -0.6178
 6888TIP3   OH242154   1.025   1.081   0.599  0.4230 -0.2364 -0.4879
 6888TIP3    H142155   1.027   0.985   0.600  1.4902 -0.2217 -0.1723
 6888TIP3    H242156   1.117   1.106   0.608  0.2023  0.8143 -1.1114
 6889TIP3   OH242157   2.656   5.010  11.409 -0.2502  0.0665  0.2434
 6889TIP3    H142158   2.603   5.014  11.489 -0.9417  0.1978 -0.2156
 6889TIP3    H242159   2.742   5.043  11.435 -0.3734 -0.2057  1.0121
 6890TIP3   OH242160   3.511   5.862   5.946  0.3175 -0.4428  0.1159
 6890TIP3    H142161   3.456   5.809   6.003  1.2079  0.8173  2.1859
 6890TIP3    H242162   3.528   5.942   5.996  3.7547 -0.6676 -0.5876
 6891TIP3   OH242163   2.066   5.139  14.548 -0.1161  0.4161 -0.3882
 6891TIP3    H142164   1.999   5.163  14.483 -0.4621  0.7776  0.0954
 6891TIP3    H242165   2.023   5.153  14.632 -0.5362 -2.5022 -0.0782
 6892TIP3   OH242166   4.925   4.697   0.573  0.1187 -0.1945  0.1779
 6892TIP3    H142167   4.871   4.775   0.583 -0.3665 -0.2835 -1.6624
 6892TIP3    H242168   4.989   4.703   0.645  0.2695  2.0213 -0.1025
 6893TIP3   OH242169   6.694   5.829  14.891 -0.7605  0.3730  0.0199
 6893TIP3    H142170   6.764   5.854  14.831 -0.3381  1.2334  0.8720
 6893TIP3    H242171   6.658   5.748  14.853  0.8767 -0.2429 -0.2525
 6894TIP3   OH242172   1.850   5.625  13.676  0.6213  0.5886 -0.0642
 6894TIP3    H142173   1.869   5.660  13.589 -0.3689  0.7250 -0.2401
 6894TIP3    H242174   1.756   5.604  13.673  0.6114  0.4571  0.9199
 6895TIP3   OH242175   2.068   3.040   6.603 -0.6005 -0.4448 -0.6827
 6895TIP3    H142176   2.094   3.111   6.661 -1.5161 -1.0476  0.4962
 6895TIP3    H242177   2.134   3.041   6.533 -1.6344  2.7185 -1.6976
 6896TIP3   OH242178   2.124   6.090   0.695 -0.9910  0.4017  0.6421
 6896TIP3    H142179   2.057   6.103   0.628 -0.7161  2.8023  0.7761
 6896TIP3    H242180   2.151   5.999   0.685  0.3868  1.1373 -3.8005
 6897TIP3   OH242181   2.458   6.550  11.030 -0.4267 -0.6404 -0.1888
 6897TIP3    H142182   2.479   6.467  11.075 -1.1097 -1.0662 -0.6622
 6897TIP3    H242183   2.363   6.555  11.032 -0.3623  0.5172  0.5136
 6898TIP3   OH242184   5.065   3.866   4.790 -0.3165 -1.0453 -0.2891
 6898TIP3    H142185   5.060   3.786   4.842  0.6955 -0.5659  0.5564
 6898TIP3    H242186   5.157   3.890   4.790 -0.4183 -0.6161 -1.6752
 6899TIP3   OH242187   6.218   2.166  16.074  0.6573 -0.6533 -0.1311
 6899TIP3    H142188   6.312   2.149  16.085  0.6204 -1.2274 -0.6878
 6899TIP3    H242189   6.189   2.194  16.160  2.2347  3.8247 -0.9204
 6900TIP3   OH242190   6.112   4.592   1.603 -0.1265  0.1780  0.4163
 6900TIP3    H142191   6.043   4.611   1.666 -0.3064 -0.3219  0.3729
 6900TIP3    H242192   6.078   4.520   1.551 -0.7383  1.7765 -1.4567
 6901TIP3   OH242193   1.476   6.306   5.813 -0.5861 -0.1503 -0.7042
 6901TIP3    H142194   1.429   6.348   5.741 -0.6557  1.0513  0.0249
 6901TIP3    H242195   1.567   6.333   5.801 -0.0822 -2.3481 -2.0248
 6902TIP3   OH242196   4.006   4.801   1.442  0.3989  0.0087 -0.5985
 6902TIP3    H142197   3.994   4.861   1.516 -0.1659 -1.2159  0.3277
 6902TIP3    H242198   4.060   4.730   1.478  0.0885 -0.6107 -1.3540
 6903TIP3   OH242199   5.714   4.721   0.609  0.1001 -0.2772  0.0375
 6903TIP3    H142200   5.808   4.730   0.629  0.0738 -0.4525  0.2471
 6903TIP3    H242201   5.671   4.723   0.694 -0.1584  0.6386 -0.1175
 6904TIP3   OH242202   2.555   5.159  16.631  0.0124  0.0468  1.0989
 6904TIP3    H142203   2.534   5.230  16.692  0.3670  1.9939 -1.0077
 6904TIP3    H242204   2.649   5.165  16.618  0.0217 -0.7177  0.7902
 6905TIP3   OH242205   3.270   5.374   5.248  0.5421 -0.7515  0.0179
 6905TIP3    H142206   3.336   5.312   5.217  0.4729 -1.3337  1.0363
 6905TIP3    H242207   3.220   5.326   5.314 -2.0519 -0.9460 -1.9744
 6906TIP3   OH242208   5.754   6.071  11.630 -0.2790 -0.1603  0.7504
 6906TIP3    H142209   5.765   6.148  11.685 -1.2934  0.4881  0.0809
 6906TIP3    H242210   5.765   5.996  11.689 -0.7104  0.5143  1.6910
 6907TIP3   OH242211   0.649   0.913  11.623  0.1819 -0.2044 -0.4623
 6907TIP3    H142212   0.584   0.964  11.671  0.2326 -0.9737  0.4207
 6907TIP3    H242213   0.676   0.844  11.683 -0.5788 -1.8730 -1.9955
 6908TIP3   OH242214   1.939   2.159   2.956 -0.2268  0.4252  0.3626
 6908TIP3    H142215   1.864   2.105   2.979  0.0159  0.5705  1.5420
 6908TIP3    H242216   1.994   2.102   2.902  0.3485 -0.7408  2.1457
 6909TIP3   OH242217   2.974   4.942  12.715 -0.1913 -0.5147  0.3054
 6909TIP3    H142218   2.903   5.007  12.720 -0.5509 -0.8852  0.1117
 6909TIP3    H242219   2.930   4.862  12.687 -0.0091 -1.2419  2.0590
 6910TIP3   OH242220   2.362   1.933   1.945  0.3475  0.1542  0.1266
 6910TIP3    H142221   2.337   2.025   1.945 -1.4538 -0.3150  0.7496
 6910TIP3    H242222   2.283   1.886   1.971  0.8461 -1.6857 -1.5137
 6911TIP3   OH242223   3.426   3.129  11.164  0.5027 -0.0421  0.7762
 6911TIP3    H142224   3.364   3.095  11.099 -1.1281  1.4309  1.5164
 6911TIP3    H242225   3.467   3.204  11.122  0.7326 -0.1446  0.8163
 6912TIP3   OH242226   0.812   5.755   3.455 -0.5369 -0.0277 -0.0040
 6912TIP3    H142227   0.787   5.672   3.495  0.0112  0.5370  1.5304
 6912TIP3    H242228   0.886   5.734   3.399 -0.4333 -0.5771  0.3439
 6913TIP3   OH242229   6.049   6.204   6.113  0.2028  0.1531  0.2519
 6913TIP3    H142230   6.026   6.150   6.037  1.9489  0.7296 -0.7204
 6913TIP3    H242231   6.066   6.291   6.076  0.7404  0.5310  1.3637
 6914TIP3   OH242232   4.100   6.523  15.470 -0.2173 -0.9479 -0.1187
 6914TIP3    H142233   4.184   6.566  15.453 -0.5852 -0.3236 -0.3748
 6914TIP3    H242234   4.116   6.470  15.548  0.5210 -1.1314 -0.3904
 6915TIP3   OH242235   6.194   1.588   5.386 -0.6205  0.0275 -0.0628
 6915TIP3    H142236   6.123   1.577   5.449 -0.3406 -0.8001  0.1064
 6915TIP3    H242237   6.193   1.682   5.366 -0.8308  0.2659  1.0295
 6916TIP3   OH242238   2.343   6.681   4.429 -0.0923 -0.4539 -0.7304
 6916TIP3    H142239   2.439   6.684   4.432 -0.1499  0.6148  1.1733
 6916TIP3    H242240   2.316   6.715   4.515 -2.1537 -1.7627 -0.8278
 6917TIP3   OH242241   4.140   3.860  15.421 -0.1310 -0.3130 -0.4631
 6917TIP3    H142242   4.063   3.915  15.429 -0.0949 -0.3627  0.2518
 6917TIP3    H242243   4.209   3.907  15.467  0.1483 -0.4923 -0.6906
 6918TIP3   OH242244   4.419   0.501  13.363 -0.5203  0.5584  0.8710
 6918TIP3    H142245   4.371   0.576  13.398  0.2046  1.3975  0.0822
 6918TIP3    H242246   4.474   0.472  13.436  0.8170  2.1646  0.5371
 6919TIP3   OH242247   3.748   3.921   2.801  0.4128  0.8110 -0.1999
 6919TIP3    H142248   3.831   3.966   2.819  0.4352  0.5106  0.4366
 6919TIP3    H242249   3.683   3.990   2.804  0.6737  1.0996 -0.9939
 6920TIP3   OH242250   3.819   1.506  14.110  0.4027 -0.4625  0.0339
 6920TIP3    H142251   3.746   1.453  14.079  0.7725 -0.3522 -1.0483
 6920TIP3    H242252   3.778   1.586  14.142 -0.0978 -1.1072  1.0297
 6921TIP3   OH242253   1.195   3.657   6.168 -0.3062 -0.1885  0.3764
 6921TIP3    H142254   1.173   3.602   6.244  1.3162  0.3657  1.2633
 6921TIP3    H242255   1.242   3.598   6.109 -1.4192 -0.5751 -0.1457
 6922TIP3   OH242256   1.137   0.847  13.677  0.3059  0.3065 -0.2866
 6922TIP3    H142257   1.168   0.901  13.750  0.1197  1.2107 -0.8695
 6922TIP3    H242258   1.058   0.804  13.712  1.6916 -1.3498  0.9102
 6923TIP3   OH242259   6.125   1.994  10.826 -0.5927  0.0352 -0.6249
 6923TIP3    H142260   6.184   2.021  10.896  0.8970 -0.0083 -1.8457
 6923TIP3    H242261   6.046   2.046  10.841 -0.6112 -0.5564  1.5393
 6924TIP3   OH242262   6.808   4.815  16.371 -0.1146  0.3013  0.1757
 6924TIP3    H142263   6.815   4.865  16.453 -0.8750  0.8308 -0.0809
 6924TIP3    H242264   6.877   4.750  16.378 -0.0898  0.4157  1.2001
 6925TIP3   OH242265   2.004   6.695  16.362 -0.0835  0.2129 -0.2016
 6925TIP3    H142266   2.070   6.679  16.295  0.2523 -4.5540  1.0889
 6925TIP3    H242267   2.051   6.687  16.445 -1.8192 -0.9673  0.6948
 6926TIP3   OH242268   2.062   4.623   6.818 -0.2953  0.2136  0.0841
 6926TIP3    H142269   2.124   4.599   6.887 -2.1283 -0.6520  1.4943
 6926TIP3    H242270   2.094   4.578   6.740  0.2491 -1.1109  1.0498
 6927TIP3   OH242271   4.026   2.681   3.574 -0.2010  0.3573  0.1372
 6927TIP3    H142272   4.087   2.662   3.645  0.3868 -0.8328 -0.6930
 6927TIP3    H242273   3.945   2.707   3.619 -0.1970 -1.5260  1.2509
 6928TIP3   OH242274   5.592   0.107  15.937 -0.4668  0.3214  0.4052
 6928TIP3    H142275   5.635   0.172  15.882 -2.0652 -0.0743 -1.3838
 6928TIP3    H242276   5.518   0.154  15.976 -1.0334 -0.1602 -0.0863
 6929TIP3   OH242277   0.846   2.783  12.026 -1.0504 -0.3595  0.3609
 6929TIP3    H142278   0.929   2.813  11.989 -1.0957  0.8546  1.2154
 6929TIP3    H242279   0.850   2.687  12.021  0.3611 -0.2972  0.3301
 6930TIP3   OH242280   4.447   4.414  11.424 -0.0970  0.0219  0.4443
 6930TIP3    H142281   4.411   4.474  11.358  0.5454  0.6113  0.6334
 6930TIP3    H242282   4.538   4.402  11.399 -0.3958 -1.4814 -0.0325
 6931TIP3   OH242283   6.258   2.443   5.229  0.7063 -0.0197 -0.6723
 6931TIP3    H142284   6.261   2.529   5.186 -0.1599  0.6827  0.6390
 6931TIP3    H242285   6.166   2.419   5.227  0.5190  0.4426  1.5804
 6932TIP3   OH242286   1.607   1.440  13.276  0.3587 -0.1073 -0.2185
 6932TIP3    H142287   1.511   1.437  13.278  0.3797 -0.1116  1.4950
 6932TIP3    H242288   1.631   1.378  13.206 -0.8759 -0.0366 -0.7263
 6933TIP3   OH242289   3.781   4.670   0.769 -0.0460  0.1690  0.0582
 6933TIP3    H142290   3.862   4.666   0.820 -1.4398 -1.2012  2.2789
 6933TIP3    H242291   3.797   4.611   0.695  0.5783 -1.0423  1.1230
 6934TIP3   OH242292   5.101   1.422   2.496 -0.4515  0.3369  0.3644
 6934TIP3    H142293   5.019   1.410   2.448  0.7271 -1.6182 -1.2172
 6934TIP3    H242294   5.169   1.425   2.429  0.8818  1.1111  1.7073
 6935TIP3   OH242295   6.377   6.305  16.165 -0.7044 -0.1602 -0.2055
 6935TIP3    H142296   6.334   6.273  16.085  1.0832 -2.1740 -0.3852
 6935TIP3    H242297   6.463   6.334  16.136 -0.7767  0.9767  0.6761
 6936TIP3   OH242298   4.925   6.347  13.840 -0.0306  0.4642  0.1073
 6936TIP3    H142299   4.900   6.363  13.749 -1.7374  0.4100  0.5393
 6936TIP3    H242300   4.934   6.252  13.845  0.4087  0.4953 -0.0921
 6937TIP3   OH242301   6.768   3.087  14.166  0.4876  0.3454  0.0137
 6937TIP3    H142302   6.761   3.025  14.238  1.7122  0.5320  0.3075
 6937TIP3    H242303   6.691   3.143  14.175  0.4234  0.1181  0.9429
 6938TIP3   OH242304   4.671   6.171   2.508  0.9471 -0.1812 -0.2590
 6938TIP3    H142305   4.754   6.130   2.533  0.7421 -1.0289 -0.9214
 6938TIP3    H242306   4.609   6.098   2.503  0.2468  0.3981 -0.1228
 6939TIP3   OH242307   3.544   0.520   2.472 -0.8773 -0.3214 -0.1324
 6939TIP3    H142308   3.534   0.592   2.534  1.2633  0.8583 -1.1094
 6939TIP3    H242309   3.561   0.443   2.527  0.0882  0.5385  0.8037
 6940TIP3   OH242310   1.543   6.428   2.084  0.2391  0.0066 -0.3077
 6940TIP3    H142311   1.621   6.372   2.080 -0.5282 -1.1755  0.9218
 6940TIP3    H242312   1.483   6.390   2.021 -0.6846 -1.2143  1.2737
 6941TIP3   OH242313   5.167   2.607   1.877  0.1621  0.0387 -0.1992
 6941TIP3    H142314   5.263   2.598   1.879  0.1502 -0.0054  2.1067
 6941TIP3    H242315   5.142   2.607   1.969 -1.9022  1.8772 -0.7337
 6942TIP3   OH242316   1.615   6.213  13.180 -0.0733  0.6597  0.2601
 6942TIP3    H142317   1.566   6.133  13.202  0.9906 -0.3099 -0.8765
 6942TIP3    H242318   1.551   6.268  13.135 -0.2883 -0.3587 -0.6881
 6943TIP3   OH242319   5.041   0.241  14.567  0.3884 -0.7139 -0.0885
 6943TIP3    H142320   4.949   0.237  14.542 -0.8431  1.0456  3.7886
 6943TIP3    H242321   5.067   0.332  14.552  0.0869 -0.0309  3.1580
 6944TIP3   OH242322   6.795   5.098  10.851 -0.2146 -0.6113 -0.0700
 6944TIP3    H142323   6.854   5.135  10.917 -0.9000  0.7515 -0.2082
 6944TIP3    H242324   6.773   5.012  10.885  0.5278 -0.4669  0.8113
 6945TIP3   OH242325   5.857   2.069   1.934  0.4837 -0.2521 -0.4439
 6945TIP3    H142326   5.935   2.122   1.948  1.0960 -1.3737  0.4894
 6945TIP3    H242327   5.855   2.010   2.009 -1.8927  0.5177  0.1472
 6946TIP3   OH242328   4.384   0.353   1.232  0.4520  0.3937  0.2152
 6946TIP3    H142329   4.331   0.278   1.206  0.9845  0.0825  0.0303
 6946TIP3    H242330   4.330   0.429   1.209 -0.6475  0.0577  1.6028
 6947TIP3   OH242331   0.686   3.424  14.215  0.1578 -0.1017 -0.7143
 6947TIP3    H142332   0.648   3.453  14.298 -0.2037  0.5297 -1.0990
 6947TIP3    H242333   0.734   3.344  14.237 -1.3472 -0.8717 -0.2167
 6948TIP3   OH242334   1.318   5.411   3.297 -0.0701 -0.1490 -0.1519
 6948TIP3    H142335   1.360   5.487   3.255  1.3446 -0.7364  0.1518
 6948TIP3    H242336   1.254   5.380   3.233 -0.4605  1.1306 -0.3931
 6949TIP3   OH242337   6.118   3.595   0.931 -0.5758 -0.4294 -1.0650
 6949TIP3    H142338   6.179   3.553   0.870 -0.7670  0.1025 -1.6330
 6949TIP3    H242339   6.074   3.662   0.878  0.3239  1.0557  0.0211
 6950TIP3   OH242340   3.438   6.191  14.132 -1.1114 -0.2373  0.1741
 6950TIP3    H142341   3.470   6.222  14.047 -0.2968  1.2954  1.0449
 6950TIP3    H242342   3.452   6.096  14.129 -1.9971 -0.3525 -1.7843
 6951TIP3   OH242343   3.833   3.224  15.946  0.1160  0.3628  0.0734
 6951TIP3    H142344   3.858   3.313  15.969 -0.6859  0.5577  0.2046
 6951TIP3    H242345   3.900   3.195  15.884 -0.4426  1.6011 -1.1583
 6952TIP3   OH242346   4.190   4.722  14.593 -0.3067  0.8089 -0.0582
 6952TIP3    H142347   4.261   4.785  14.610  0.2509  0.0068  0.6328
 6952TIP3    H242348   4.125   4.742  14.660  1.1037 -1.1689  1.9717
 6953TIP3   OH242349   5.906   2.188   4.571 -0.4749 -0.1476  0.0038
 6953TIP3    H142350   5.947   2.104   4.553  0.5855  0.4887 -0.6021
 6953TIP3    H242351   5.889   2.226   4.484  1.7754  1.5540  0.2675
 6954TIP3   OH242352   0.323   3.977  10.584  0.0227 -0.4520  0.4311
 6954TIP3    H142353   0.384   3.913  10.548 -0.3415 -0.9067  0.6094
 6954TIP3    H242354   0.376   4.056  10.598  1.0118 -1.3930  2.2801
 6955TIP3   OH242355   5.266   3.337   1.103 -0.0570  0.1452  0.4294
 6955TIP3    H142356   5.354   3.336   1.065 -0.8686 -0.0055 -1.4954
 6955TIP3    H242357   5.244   3.430   1.111 -0.8629  0.1670 -1.8365
 6956TIP3   OH242358   0.486   0.417  15.396 -0.2093 -0.5850  0.1451
 6956TIP3    H142359   0.531   0.486  15.347 -1.2307 -0.3420 -0.4800
 6956TIP3    H242360   0.401   0.409  15.353  0.1328 -2.6903 -0.1870
 6957TIP3   OH242361   4.990   1.353   3.361 -0.1377  0.2806  0.4061
 6957TIP3    H142362   5.079   1.386   3.348 -0.8109  2.3173  0.8118
 6957TIP3    H242363   4.981   1.346   3.456 -0.5256  0.4628  0.3849
 6958TIP3   OH242364   5.363   4.650  13.660  0.0846  0.3196 -0.8183
 6958TIP3    H142365   5.369   4.684  13.749  0.9534 -0.6588 -0.5012
 6958TIP3    H242366   5.307   4.572  13.667  1.2642 -0.5461 -0.8900
 6959TIP3   OH242367   0.325   3.658  16.888 -0.5959  0.4611 -0.1477
 6959TIP3    H142368   0.391   3.726  16.874 -0.5382  0.3710 -0.3100
 6959TIP3    H242369   0.353   3.612  16.966 -1.1059  1.1954  0.4830
 6960TIP3   OH242370   1.762   2.950   1.425  0.1353  0.8683 -0.3881
 6960TIP3    H142371   1.715   3.014   1.478  2.2957  1.4563  0.8820
 6960TIP3    H242372   1.771   2.992   1.339 -1.7701  0.6638 -0.7153
 6961TIP3   OH242373   2.088   4.494  17.288  0.1627 -0.0937  0.0782
 6961TIP3    H142374   2.017   4.528  17.342 -0.0130  0.1502 -0.3035
 6961TIP3    H242375   2.060   4.511  17.198 -0.1979 -1.7699 -0.1450
 6962TIP3   OH242376   2.902   0.258   4.982  0.0045  0.2767 -0.2395
 6962TIP3    H142377   2.893   0.211   4.899  2.6547  0.6721 -0.7993
 6962TIP3    H242378   2.830   0.226   5.036  0.1942 -2.4710 -1.5367
 6963TIP3   OH242379   0.937   3.080  13.445 -0.4215  0.0497 -0.2165
 6963TIP3    H142380   0.887   3.023  13.386  0.5049 -0.8471 -0.1487
 6963TIP3    H242381   0.879   3.154  13.462 -1.9002 -1.1821  0.2032
 6964TIP3   OH242382   4.304   5.181  10.674  0.0504  0.1506 -0.0636
 6964TIP3    H142383   4.277   5.201  10.584  1.3993 -0.9342 -0.7362
 6964TIP3    H242384   4.338   5.264  10.707  0.3460  0.3575 -0.8630
 6965TIP3   OH242385   1.837   2.202  17.158  0.4203 -0.5493  0.6528
 6965TIP3    H142386   1.816   2.111  17.175  1.4364 -1.8342 -4.2485
 6965TIP3    H242387   1.756   2.240  17.125  1.6276 -1.6114 -3.9072
 6966TIP3   OH242388   3.586   4.520  16.823 -0.5780 -0.1139  0.4104
 6966TIP3    H142389   3.519   4.465  16.866 -0.2399 -0.6691  0.2272
 6966TIP3    H242390   3.639   4.459  16.773 -1.7048  0.6627 -1.8164
 6967TIP3   OH242391   2.188   5.664  14.290 -0.6480 -0.1828 -0.6729
 6967TIP3    H142392   2.215   5.630  14.375 -1.4159 -0.2751 -0.4608
 6967TIP3    H242393   2.093   5.651  14.288 -0.6185 -0.3177 -1.6006
 6968TIP3   OH242394   6.805   5.797   4.619  0.6531 -0.5256  0.1369
 6968TIP3    H142395   6.873   5.784   4.552  0.9718  0.1367  0.3235
 6968TIP3    H242396   6.853   5.817   4.699  0.2370  1.2029 -0.0050
 6969TIP3   OH242397   6.413   2.343  12.781 -0.4959 -0.6870 -0.5311
 6969TIP3    H142398   6.443   2.426  12.744 -1.9029 -0.6794 -1.7199
 6969TIP3    H242399   6.357   2.367  12.853  0.6288 -0.6611  0.3544
 6970TIP3   OH242400   4.318   6.464   2.369 -0.4274 -0.4369  0.5501
 6970TIP3    H142401   4.369   6.434   2.293 -2.4295  0.8874 -1.3583
 6970TIP3    H242402   4.247   6.400   2.377 -0.6207 -0.1788  0.9201
 6971TIP3   OH242403   5.739   2.533   5.278 -0.1302  0.1956  0.1102
 6971TIP3    H142404   5.797   2.608   5.266  0.1697 -0.1270 -0.4650
 6971TIP3    H242405   5.746   2.484   5.196  0.0828 -0.7392  0.6801
 6972TIP3   OH242406   3.723   0.010   5.842 -0.0029  0.0999  0.0209
 6972TIP3    H142407   3.814  -0.011   5.864  0.0341  0.1435 -0.0892
 6972TIP3    H242408   3.676   0.007   5.925  0.0394 -0.2396  0.0326
 6973TIP3   OH242409   4.483   3.661   1.101  0.1268 -0.2044  0.0754
 6973TIP3    H142410   4.442   3.586   1.143  0.4412  0.3326  1.3731
 6973TIP3    H242411   4.445   3.663   1.013 -0.8335 -1.1149  0.4551
 6974TIP3   OH242412   5.448   3.924  11.681 -0.2257 -0.2780  0.1803
 6974TIP3    H142413   5.520   3.872  11.718 -0.1613 -0.0047  0.4403
 6974TIP3    H242414   5.412   3.971  11.757  0.0617  0.4778 -0.1524
 6975TIP3   OH242415   4.372   1.101   3.326  0.7532 -0.0292  0.4039
 6975TIP3    H142416   4.338   1.162   3.392  0.1783 -0.5961  0.6357
 6975TIP3    H242417   4.333   1.130   3.244  0.3536 -0.1937  0.5399
 6976TIP3   OH242418   1.132   0.309   5.089  0.2578 -0.1749  0.0223
 6976TIP3    H142419   1.167   0.227   5.053 -1.0209 -1.0029  0.6205
 6976TIP3    H242420   1.154   0.305   5.182  1.9260  1.0941 -0.3039
 6977TIP3   OH242421   4.310   2.351   1.072  0.3330 -0.5117  0.1172
 6977TIP3    H142422   4.246   2.384   1.135  0.0641 -1.4503  0.3334
 6977TIP3    H242423   4.265   2.281   1.026  0.3793  0.4481 -1.4373
 6978TIP3   OH242424   0.388   4.534   1.500 -0.1879  0.6324 -0.0729
 6978TIP3    H142425   0.304   4.576   1.520 -0.9293 -0.5364 -0.7275
 6978TIP3    H242426   0.393   4.535   1.405  0.7619  1.1008 -0.0267
 6979TIP3   OH242427   1.614   6.664   5.671 -0.4904 -0.2591  0.2471
 6979TIP3    H142428   1.623   6.573   5.699  0.2430  0.0594  1.0887
 6979TIP3    H242429   1.681   6.674   5.603 -2.2123 -1.0081 -1.5953
 6980TIP3   OH242430   3.713   3.130  13.567 -0.0492 -0.1102  0.1398
 6980TIP3    H142431   3.719   3.070  13.492 -3.3829  0.4763 -0.6699
 6980TIP3    H242432   3.749   3.212  13.534  0.6162 -0.4824 -0.0803
 6981TIP3   OH242433   0.771   5.593  12.312  0.2973  0.2353  0.7005
 6981TIP3    H142434   0.834   5.555  12.251  0.4725 -0.2352  1.1667
 6981TIP3    H242435   0.764   5.684  12.287 -1.1479 -0.3990 -1.3102
 6982TIP3   OH242436   2.546   4.420   2.925 -0.2453 -0.2281  0.8508
 6982TIP3    H142437   2.503   4.493   2.881  0.2731 -1.5976 -2.0313
 6982TIP3    H242438   2.613   4.461   2.980 -0.7056  1.5184  0.1373
 6983TIP3   OH242439   4.095   6.493  14.661  0.1075  0.0003  0.2662
 6983TIP3    H142440   4.092   6.567  14.722  2.5849 -1.0285  1.7306
 6983TIP3    H242441   4.152   6.524  14.589  2.1771 -0.8558  1.4881
 6984TIP3   OH242442   6.734   1.446   1.733 -0.3061  0.1801  0.0352
 6984TIP3    H142443   6.722   1.468   1.825  1.2596 -0.3108  0.3689
 6984TIP3    H242444   6.686   1.515   1.685 -2.0583 -0.1967  1.2120
 6985TIP3   OH242445   3.864   5.997  14.726 -0.2250  0.0103 -0.1057
 6985TIP3    H142446   3.776   5.987  14.761 -0.5277 -2.3773 -1.4457
 6985TIP3    H242447   3.890   6.086  14.750 -2.3254  0.1393  1.7772
 6986TIP3   OH242448   4.005   4.524  12.602 -0.1013 -0.0369  0.0242
 6986TIP3    H142449   4.007   4.477  12.519  0.3710 -1.4547  0.8250
 6986TIP3    H242450   3.915   4.555  12.610  0.0356  0.7560 -1.3604
 6987TIP3   OH242451   4.195   4.706  12.097  0.4609  0.2853 -0.3352
 6987TIP3    H142452   4.253   4.781  12.085  0.5477 -0.1524 -2.9382
 6987TIP3    H242453   4.214   4.649  12.023 -0.1807 -1.9497  1.1846
 6988TIP3   OH242454   2.594   2.452  15.691 -0.2215  0.0303 -0.0055
 6988TIP3    H142455   2.561   2.531  15.648 -1.2407  0.6546  1.8649
 6988TIP3    H242456   2.645   2.407  15.623 -0.7342  1.6157 -1.4745
 6989TIP3   OH242457   5.513   1.365  12.328 -0.1930 -0.0025  0.4611
 6989TIP3    H142458   5.421   1.386  12.312 -0.4593 -0.7255  1.0601
 6989TIP3    H242459   5.512   1.282  12.375  0.6433  1.2591  2.7992
 6990TIP3   OH242460   3.970   5.191  16.707  0.0485 -0.8451  0.2682
 6990TIP3    H142461   3.938   5.247  16.777 -0.4762 -0.1516 -0.5177
 6990TIP3    H242462   3.893   5.144  16.677  0.3238 -1.3472  0.3415
 6991TIP3   OH242463   1.683   5.000  15.293  0.3810 -0.3197 -0.2961
 6991TIP3    H142464   1.661   4.994  15.386 -0.7948  1.4666 -0.4322
 6991TIP3    H242465   1.663   5.091  15.269  1.0784 -0.6370 -2.1889
 6992TIP3   OH242466   2.041   5.343  13.497  0.3209 -0.0214 -0.6868
 6992TIP3    H142467   2.104   5.393  13.549  2.1234  0.1604 -2.9568
 6992TIP3    H242468   1.976   5.408  13.470  1.5207  0.7105 -1.8912
 6993TIP3   OH242469   6.799   4.345  13.109  0.3691 -0.3853  0.0343
 6993TIP3    H142470   6.792   4.411  13.178  2.7917  1.9193 -1.7912
 6993TIP3    H242471   6.740   4.275  13.136 -3.0773  2.9362  1.6179
 6994TIP3   OH242472   4.989   0.795  13.023 -0.5822 -0.0512 -0.4478
 6994TIP3    H142473   4.921   0.787  13.091 -0.2280  0.4941 -0.0243
 6994TIP3    H242474   5.061   0.741  13.056 -0.7824 -0.5653 -0.8597
 6995TIP3   OH242475   5.679   0.606  15.839  0.3015 -0.2362  0.4785
 6995TIP3    H142476   5.735   0.614  15.762 -0.0352  1.0552  0.3536
 6995TIP3    H242477   5.719   0.664  15.904 -0.4425  0.0890  0.6525
 6996TIP3   OH242478   5.615   3.337   1.735  0.0753  0.2904  0.2622
 6996TIP3    H142479   5.679   3.291   1.681 -0.0489 -0.4106  0.7042
 6996TIP3    H242480   5.646   3.324   1.825 -0.2677  0.5906  0.4255
 6997TIP3   OH242481   6.621   1.593  16.712  0.1656  0.1198 -0.5309
 6997TIP3    H142482   6.644   1.664  16.772  3.5680  0.8119 -2.5354
 6997TIP3    H242483   6.690   1.528  16.725 -1.9072 -2.0996 -0.0598
 6998TIP3   OH242484   4.799   4.066   5.973 -0.6173  0.6080 -0.4951
 6998TIP3    H142485   4.802   4.088   6.066  2.6344 -0.9361 -0.1336
 6998TIP3    H242486   4.775   3.973   5.971  0.5472  0.3048 -1.0807
 6999TIP3   OH242487   3.602   1.962   2.689 -0.2830 -0.0110  0.2611
 6999TIP3    H142488   3.591   1.948   2.783  0.1647  0.9035  0.4552
 6999TIP3    H242489   3.513   1.959   2.653 -0.4444 -0.4729  0.6959
 7000TIP3   OH242490   5.975   1.827   1.553  0.5326  0.0702  0.3423
 7000TIP3    H142491   5.977   1.775   1.473 -2.9333  0.6077 -0.1949
 7000TIP3    H242492   5.966   1.763   1.623 -0.0174 -0.2655 -0.0240
 7001TIP3   OH242493   4.571   5.261  16.634  0.1610  0.1160 -0.4221
 7001TIP3    H142494   4.479   5.285  16.622 -0.5093 -2.7091 -1.5220
 7001TIP3    H242495   4.572   5.212  16.716  0.4830 -0.6643 -0.8839
 7002TIP3   OH242496   3.226   1.675  16.277  0.5808 -0.0870 -0.1206
 7002TIP3    H142497   3.253   1.693  16.368  1.4186  0.7301 -0.5223
 7002TIP3    H242498   3.282   1.602  16.251 -0.1514 -0.7818  0.2491
 7003TIP3   OH242499   5.768   4.908   1.930 -0.2311 -0.2315  0.4075
 7003TIP3    H142500   5.734   4.966   1.862 -0.5446  0.4827  1.1572
 7003TIP3    H242501   5.820   4.965   1.986  2.1884 -1.2962 -0.6785
 7004TIP3   OH242502   0.230   4.433   1.831  0.2005  0.5838 -0.6430
 7004TIP3    H142503   0.188   4.355   1.866  0.3678  0.5240 -0.5752
 7004TIP3    H242504   0.171   4.463   1.762 -0.2658  0.8565 -0.1276
 7005TIP3   OH242505   2.210   5.673  16.426 -0.2362  0.1470 -0.4338
 7005TIP3    H142506   2.170   5.688  16.340  1.4120 -0.1219 -1.2688
 7005TIP3    H242507   2.303   5.684  16.411 -0.0837  2.4722  1.8625
 7006TIP3   OH242508   2.183   4.273  12.987 -0.4225 -0.2609 -0.0495
 7006TIP3    H142509   2.184   4.368  12.981  1.7897 -0.2346  0.3086
 7006TIP3    H242510   2.091   4.251  13.001 -0.6944  1.9542  1.9735
 7007TIP3   OH242511   5.994   5.910   0.021  0.1521  0.0729  0.0376
 7007TIP3    H142512   6.029   5.986   0.068  1.4994 -0.8992  0.6503
 7007TIP3    H242513   5.923   5.878   0.076  0.3259  0.2313  0.3575
 7008TIP3   OH242514   6.031   6.453  17.006 -0.0930  0.0759 -0.0900
 7008TIP3    H142515   6.121   6.447  16.974 -0.0821  0.5107 -0.1523
 7008TIP3    H242516   5.979   6.470  16.927 -0.3418 -1.0436 -0.1753
 7009TIP3   OH242517   5.653   3.335  16.433  0.2420 -0.2837 -0.3090
 7009TIP3    H142518   5.599   3.262  16.465 -0.4200 -0.2851 -1.4115
 7009TIP3    H242519   5.652   3.398  16.505  0.9028 -1.3925  0.6986
 7010TIP3   OH242520   3.891   0.770   4.445 -0.2785 -0.1952 -0.4126
 7010TIP3    H142521   3.914   0.842   4.504 -1.0340 -0.8904  0.7617
 7010TIP3    H242522   3.957   0.703   4.461 -1.6503 -1.2172  1.1961
 7011TIP3   OH242523   5.527   2.348   5.314 -0.3194  0.2981 -0.3946
 7011TIP3    H142524   5.474   2.388   5.384 -2.5103 -0.4324 -1.5941
 7011TIP3    H242525   5.601   2.408   5.303 -0.0909  0.5915  2.3206
 7012TIP3   OH242526   6.481   0.437  12.125 -0.2572  0.2748 -0.4239
 7012TIP3    H142527   6.432   0.496  12.181 -0.4205  0.9999 -1.3324
 7012TIP3    H242528   6.446   0.450  12.037  1.6205  0.8955 -1.1146
 7013TIP3   OH242529   2.427   6.227  12.697 -0.5581  0.3917  0.2247
 7013TIP3    H142530   2.513   6.192  12.720 -1.2969 -1.3787  0.4155
 7013TIP3    H242531   2.412   6.197  12.607 -1.2185  0.1595  0.4041
 7014TIP3   OH242532   0.766   4.264   2.557  0.0992  0.6317 -0.4039
 7014TIP3    H142533   0.775   4.192   2.621  0.0776  0.0045 -1.0969
 7014TIP3    H242534   0.682   4.304   2.579 -0.1924  0.0374 -0.4108
 7015TIP3   OH242535   4.406   1.209   5.901 -0.3118  0.3348 -0.5322
 7015TIP3    H142536   4.473   1.144   5.882 -0.0809  0.9114 -1.7272
 7015TIP3    H242537   4.391   1.254   5.818 -2.5346 -0.1050 -0.4083
 7016TIP3   OH242538   3.870   4.201   4.070 -0.1431  0.0415  0.0856
 7016TIP3    H142539   3.855   4.127   4.128  0.6760 -0.9378 -0.9352
 7016TIP3    H242540   3.797   4.261   4.088 -0.0962 -0.4263  1.8272
 7017TIP3   OH242541   2.902   4.407  12.067  0.0492 -0.6765  0.3067
 7017TIP3    H142542   2.933   4.343  12.003  0.6590  0.9499 -1.0830
 7017TIP3    H242543   2.875   4.482  12.014 -1.9875 -0.3183  1.8070
 7018TIP3   OH242544   5.036   0.553  14.219  0.0374 -0.1132 -0.3754
 7018TIP3    H142545   5.093   0.630  14.214  0.5090 -0.4541 -0.2368
 7018TIP3    H242546   4.981   0.559  14.141 -2.0914  2.0594  1.2356
 7019TIP3   OH242547   5.437   0.685  15.897 -0.2840 -0.4047 -0.4618
 7019TIP3    H142548   5.460   0.757  15.838 -0.3610 -0.1899 -0.2307
 7019TIP3    H242549   5.510   0.623  15.888 -0.2530 -0.3333 -0.7169
 7020TIP3   OH242550   0.334   2.865  11.949 -0.1534 -0.6462  1.0288
 7020TIP3    H142551   0.285   2.786  11.929  0.2306 -0.6401  0.0175
 7020TIP3    H242552   0.419   2.833  11.980 -0.0676 -0.6400  0.8042
 7021TIP3   OH242553   5.836   1.132   5.855 -0.0592  0.3929  0.2214
 7021TIP3    H142554   5.909   1.106   5.911  0.1239 -0.3559 -0.3527
 7021TIP3    H242555   5.777   1.057   5.856  0.7478 -0.3148 -1.9088
 7022TIP3   OH242556   2.272   2.531  16.222  0.4902 -0.4749  0.7573
 7022TIP3    H142557   2.194   2.567  16.181  0.8886 -0.4703 -0.0114
 7022TIP3    H242558   2.248   2.441  16.244  0.1550 -0.3673  0.8281
 7023TIP3   OH242559   2.831   3.685  15.250 -0.1601 -0.5845  0.2655
 7023TIP3    H142560   2.737   3.683  15.267  0.0557  0.4858  1.7024
 7023TIP3    H242561   2.865   3.746  15.315  1.3850 -0.1379 -0.9347
 7024TIP3   OH242562   5.525   5.356  15.094  0.2376 -0.3787  0.0670
 7024TIP3    H142563   5.576   5.424  15.049  0.6246 -0.2657  0.6663
 7024TIP3    H242564   5.457   5.331  15.032 -1.6210  2.5289  0.8428
 7025TIP3   OH242565   5.016   2.529  13.061  0.3379  0.0308 -0.9125
 7025TIP3    H142566   5.004   2.445  13.105  0.7740  0.5146  0.1471
 7025TIP3    H242567   4.990   2.512  12.970 -0.5066 -0.9955 -0.4974
 7026TIP3   OH242568   5.250   4.576  10.293  0.5831 -0.3037 -0.7248
 7026TIP3    H142569   5.318   4.531  10.344  0.7647 -0.9080 -1.4882
 7026TIP3    H242570   5.239   4.521  10.215 -1.0668 -0.4216 -0.4239
 7027TIP3   OH242571   4.983   6.057  16.524  0.0615  0.2598 -0.1943
 7027TIP3    H142572   5.028   6.004  16.458  1.3358 -0.7851  1.4660
 7027TIP3    H242573   5.035   6.045  16.603 -1.3979  1.5550  0.9842
 7028TIP3   OH242574   1.367   0.872   1.137  0.4210  0.3184  0.7633
 7028TIP3    H142575   1.326   0.797   1.093  1.0329 -0.1648  1.0039
 7028TIP3    H242576   1.306   0.944   1.124  0.1308 -0.0662 -0.0305
 7029TIP3   OH242577   4.310   1.320  15.232 -0.2843 -0.0303 -0.1532
 7029TIP3    H142578   4.347   1.400  15.195  0.1642  0.1074  0.5842
 7029TIP3    H242579   4.299   1.262  15.157  1.2122  0.0132 -0.4230
 7030TIP3   OH242580   2.153   3.820   5.214  0.4555 -0.2631 -0.4428
 7030TIP3    H142581   2.120   3.910   5.214  1.7984  0.2407 -0.0304
 7030TIP3    H242582   2.099   3.774   5.278 -1.0751 -0.0657 -1.5806
 7031TIP3   OH242583   4.976   5.442   6.265  0.2921  0.2351  0.5981
 7031TIP3    H142584   5.011   5.530   6.280 -0.6183  0.5194  1.1211
 7031TIP3    H242585   4.882   5.456   6.252 -0.2190 -0.8675  2.9158
 7032TIP3   OH242586   3.557   6.538   5.361  0.0103 -0.2877  0.2276
 7032TIP3    H142587   3.537   6.551   5.268 -0.5148  0.8918  0.4953
 7032TIP3    H242588   3.471   6.528   5.402  0.1886  0.2976  0.7452
 7033TIP3   OH242589   0.194   1.910   1.276  0.2784  0.0699  0.0921
 7033TIP3    H142590   0.147   1.993   1.285  0.1711  0.2193 -1.7421
 7033TIP3    H242591   0.224   1.908   1.185  2.3672 -0.8071  0.7617
 7034TIP3   OH242592   4.089   5.898  11.595 -0.2014 -0.1246  0.3670
 7034TIP3    H142593   4.026   5.965  11.570 -0.7089  0.2729  2.5860
 7034TIP3    H242594   4.136   5.878  11.514 -1.2173  1.6371 -0.7002
 7035TIP3   OH242595   3.730   2.181  12.137  0.1307 -0.0963 -0.1381
 7035TIP3    H142596   3.744   2.118  12.066 -1.4964  1.2080 -1.6857
 7035TIP3    H242597   3.807   2.172  12.193  1.5488 -1.0141 -2.1812
 7036TIP3   OH242598   3.204   1.592   1.640 -0.0842  0.0925 -0.1708
 7036TIP3    H142599   3.195   1.496   1.646 -0.3938  0.0936 -0.5728
 7036TIP3    H242600   3.116   1.622   1.619  0.5427  0.2363 -2.8041
 7037TIP3   OH242601   5.474   3.118  16.793  0.0245  0.1221 -0.3182
 7037TIP3    H142602   5.544   3.163  16.841 -0.1441  0.9875 -0.8835
 7037TIP3    H242603   5.443   3.051  16.854  0.5078  0.5404  0.3978
 7038TIP3   OH242604   4.709   0.587   4.652  0.3250 -0.3272  0.3262
 7038TIP3    H142605   4.771   0.651   4.616  0.2545  0.3590  1.3953
 7038TIP3    H242606   4.710   0.515   4.589  0.6088  0.6106 -0.7653
 7039TIP3   OH242607   2.502   4.189   3.442  0.4557  0.2190  0.4895
 7039TIP3    H142608   2.447   4.117   3.413  0.1268  0.1671  1.2183
 7039TIP3    H242609   2.588   4.150   3.455  0.2948 -0.0309  0.8160
 7040TIP3   OH242610   5.040   0.572  15.506 -0.2740 -0.6200 -0.0282
 7040TIP3    H142611   5.091   0.515  15.564 -0.0405 -1.4286 -1.0135
 7040TIP3    H242612   4.979   0.616  15.564  0.1388 -1.2130  0.8799
 7041TIP3   OH242613   3.508   1.042  13.428 -0.4234 -1.1640  0.2828
 7041TIP3    H142614   3.497   1.075  13.339  1.0047 -0.6963  0.2773
 7041TIP3    H242615   3.459   1.103  13.483 -1.4269 -1.5362 -0.1902
 7042TIP3   OH242616   3.777   6.489   3.714  0.1177  0.3177  0.1320
 7042TIP3    H142617   3.697   6.457   3.672 -0.0507  1.7329 -0.6301
 7042TIP3    H242618   3.801   6.419   3.774 -1.8697 -0.0106  0.5967
 7043TIP3   OH242619   5.620   1.439  14.107 -0.6898  0.0875  0.2382
 7043TIP3    H142620   5.587   1.358  14.146  2.3011 -1.7642 -0.9674
 7043TIP3    H242621   5.667   1.483  14.178  0.5566 -0.8804  0.0133
 7044TIP3   OH242622   4.629   3.152   0.692  0.6087  0.5054  0.0861
 7044TIP3    H142623   4.581   3.104   0.624  0.0456  0.7658  0.2907
 7044TIP3    H242624   4.718   3.158   0.659  0.1445  1.3849 -1.0348
 7045TIP3   OH242625   4.167   2.043   5.007 -0.7617 -0.5342  0.6312
 7045TIP3    H142626   4.166   1.959   4.963  2.6652 -0.0851 -0.4596
 7045TIP3    H242627   4.231   2.033   5.077  1.2228  1.6967 -0.7744
 7046TIP3   OH242628   6.769   0.501   6.029  0.0550 -0.2809  0.2781
 7046TIP3    H142629   6.836   0.536   6.088  0.9868 -1.3585 -0.1026
 7046TIP3    H242630   6.815   0.431   5.981 -0.3621  1.2947 -2.5066
 7047TIP3   OH242631   4.471   4.098  14.041 -0.1905  0.0576  0.0684
 7047TIP3    H142632   4.417   4.175  14.059  0.4395  0.0887  1.8478
 7047TIP3    H242633   4.531   4.127  13.972 -0.9794  0.6824 -0.3635
 7048TIP3   OH242634   1.491   4.805   5.746  0.8260  0.3614 -0.2377
 7048TIP3    H142635   1.414   4.770   5.703  0.6452 -0.6455  0.8817
 7048TIP3    H242636   1.538   4.728   5.778  1.1828  1.0628  0.9633
 7049TIP3   OH242637   0.948   5.663   0.577 -0.0072  0.7899 -0.4448
 7049TIP3    H142638   0.956   5.757   0.560 -0.6992  0.7137 -1.2322
 7049TIP3    H242639   0.856   5.650   0.600 -0.1974  0.1356 -1.5083
 7050TIP3   OH242640   3.635   4.939   0.816 -0.5456 -0.0562  0.1866
 7050TIP3    H142641   3.674   4.867   0.767  0.5439  0.6178  0.0367
 7050TIP3    H242642   3.575   4.981   0.754 -0.5241 -0.2956  0.0030
 7051TIP3   OH242643   5.254   4.189   2.310  0.4132 -0.8739 -0.4558
 7051TIP3    H142644   5.206   4.133   2.371  0.3240  0.8624  1.1423
 7051TIP3    H242645   5.187   4.226   2.253  0.4380 -2.1262 -1.3184
 7052TIP3   OH242646   3.277   5.219   4.163 -0.0157 -0.4719 -0.0340
 7052TIP3    H142647   3.274   5.130   4.128  1.6415 -1.2791  1.8419
 7052TIP3    H242648   3.327   5.212   4.244  1.8967  2.4952 -0.8658
 7053TIP3   OH242649   5.986   0.633  15.557  0.1790  0.0280 -0.8257
 7053TIP3    H142650   6.042   0.666  15.487  0.9465  1.4137  0.4325
 7053TIP3    H242651   5.907   0.687  15.554  0.2158  0.0951 -0.6160
 7054TIP3   OH242652   5.127   2.374   5.048 -0.1577  0.3058  0.5065
 7054TIP3    H142653   5.078   2.395   5.128  0.9283  0.5743  1.1111
 7054TIP3    H242654   5.161   2.458   5.018 -0.4370  0.1833 -0.1642
 7055TIP3   OH242655   2.935   2.392   3.181  0.1525  0.2262 -1.1149
 7055TIP3    H142656   2.997   2.465   3.186 -0.1829  0.3933  1.2491
 7055TIP3    H242657   2.849   2.434   3.188 -0.0112 -0.4579  1.2931
 7056TIP3   OH242658   4.227   1.556  12.942  0.2573 -0.0530 -0.4132
 7056TIP3    H142659   4.265   1.515  12.864  0.1647  2.0470 -1.5936
 7056TIP3    H242660   4.203   1.644  12.913 -0.7316  0.3984  1.7250
 7057TIP3   OH242661   5.020   6.107   4.492  0.9095 -0.3602 -0.2865
 7057TIP3    H142662   5.085   6.169   4.460  1.1622 -0.4496  0.0505
 7057TIP3    H242663   5.046   6.089   4.583  0.8306 -0.9423 -0.3761
 7058TIP3   OH242664   3.255   4.030  13.849  0.0336  0.4918 -0.4093
 7058TIP3    H142665   3.331   4.080  13.880  0.0749 -1.1079  2.1631
 7058TIP3    H242666   3.272   3.940  13.877 -1.4835 -0.4425 -2.3412
 7059TIP3   OH242667   3.076   5.210   3.511  0.2469 -0.3544  0.1564
 7059TIP3    H142668   3.112   5.178   3.594  0.1312 -0.4735  0.1598
 7059TIP3    H242669   3.061   5.132   3.459  2.7485 -0.1216 -0.9737
 7060TIP3   OH242670   1.759   0.945  11.219  0.2202  0.2214  0.4963
 7060TIP3    H142671   1.824   0.882  11.250 -0.2933  0.3250  1.7999
 7060TIP3    H242672   1.724   0.905  11.139  1.0909 -0.3558  0.3896
 7061TIP3   OH242673   1.751   1.004  12.199 -0.0555  0.4464 -0.6183
 7061TIP3    H142674   1.669   1.043  12.228 -0.1047  0.5069 -0.8359
 7061TIP3    H242675   1.734   0.910  12.200 -0.6822  0.5264 -2.2947
 7062TIP3   OH242676   4.584   2.695   1.980 -0.6765 -0.2995 -0.2970
 7062TIP3    H142677   4.537   2.675   2.061 -0.2375  0.0064  0.0352
 7062TIP3    H242678   4.616   2.611   1.949  1.7555 -0.0585  1.4588
 7063TIP3   OH242679   0.158   5.692   5.556 -0.7329  0.1416  0.7020
 7063TIP3    H142680   0.157   5.698   5.652  0.0816  1.1731  0.6535
 7063TIP3    H242681   0.236   5.641   5.535 -1.5035 -1.0287  0.6208
 7064TIP3   OH242682   4.412   6.492   5.129  0.1763 -0.3488  0.2163
 7064TIP3    H142683   4.353   6.532   5.065 -0.9194 -2.4957 -0.1763
 7064TIP3    H242684   4.452   6.566   5.175 -1.3799  1.1821 -0.8338
 7065TIP3   OH242685   1.291   4.911  11.460  0.2686 -0.2750 -0.0606
 7065TIP3    H142686   1.288   4.858  11.380  0.7675  0.3255 -0.4861
 7065TIP3    H242687   1.348   4.985  11.437 -1.0571  0.8631  0.2719
 7066TIP3   OH242688   1.595   1.078  13.190 -0.3557  1.1424  0.1872
 7066TIP3    H142689   1.680   1.066  13.234 -0.2591 -0.7400 -0.4879
 7066TIP3    H242690   1.531   1.074  13.261 -0.0341  0.3066  0.4396
 7067TIP3   OH242691   4.771   6.331   1.373 -0.9792  0.0813  0.1784
 7067TIP3    H142692   4.794   6.391   1.302 -0.2838 -1.8791 -1.2987
 7067TIP3    H242693   4.853   6.319   1.422 -1.0991  0.2714  0.4276
 7068TIP3   OH242694   3.372   2.347  10.639 -0.1008  0.7145  0.9521
 7068TIP3    H142695   3.287   2.386  10.620 -1.3324 -1.8922  0.9087
 7068TIP3    H242696   3.409   2.401  10.708 -0.5860  3.5018 -0.9027
 7069TIP3   OH242697   1.688   2.497  13.064 -0.5431 -0.3110  0.0407
 7069TIP3    H142698   1.600   2.460  13.057 -1.2657  1.3066  0.2326
 7069TIP3    H242699   1.746   2.421  13.068 -2.0724 -1.4393  1.8533
 7070TIP3   OH242700   6.817   6.331   0.538 -0.3108  0.1865 -0.5292
 7070TIP3    H142701   6.860   6.326   0.453 -1.8205  2.7015 -1.4696
 7070TIP3    H242702   6.889   6.328   0.602  0.9122 -0.3832 -1.9124
 7071TIP3   OH242703   1.443   1.336  15.127  0.2690  0.5822  0.3828
 7071TIP3    H142704   1.424   1.242  15.137  0.0714  0.5117 -0.5944
 7071TIP3    H242705   1.518   1.339  15.068  0.2908  1.0457  0.4338
 7072TIP3   OH242706   5.778   5.809  16.774 -0.3329 -0.0467 -0.0688
 7072TIP3    H142707   5.802   5.888  16.822 -0.7331 -0.4246  0.7633
 7072TIP3    H242708   5.776   5.740  16.841 -0.5299 -0.6512 -0.6956
 7073TIP3   OH242709   0.501   3.531  17.058 -0.4465  0.0660  0.1903
 7073TIP3    H142710   0.557   3.468  17.014 -2.9356 -0.1731 -2.8233
 7073TIP3    H242711   0.442   3.479  17.111 -1.1789 -0.0363 -0.7141
 7074TIP3   OH242712   0.564   3.466   2.118 -0.6197  0.2817  0.1885
 7074TIP3    H142713   0.479   3.486   2.081  1.2668  1.8282 -3.5949
 7074TIP3    H242714   0.591   3.545   2.163  0.3261  1.1283 -1.7853
 7075TIP3   OH242715   1.771   2.514  12.591 -0.8220 -0.1939  0.1231
 7075TIP3    H142716   1.749   2.483  12.679  0.7186 -0.4124  0.4310
 7075TIP3    H242717   1.708   2.584  12.574 -0.4376  0.5527  1.8114
 7076TIP3   OH242718   0.108   1.883  13.528 -0.0955 -0.5729  0.1299
 7076TIP3    H142719   0.191   1.899  13.572  0.1113 -0.9254 -0.1364
 7076TIP3    H242720   0.092   1.789  13.539  1.7331 -1.4201 -3.6264
 7077TIP3   OH242721   2.966   5.337   2.330  0.8670 -0.7110  0.0601
 7077TIP3    H142722   2.907   5.398   2.284  0.6386 -0.3505  0.8184
 7077TIP3    H242723   2.975   5.263   2.270 -1.9842 -1.6963  0.7520
 7078TIP3   OH242724   5.043   4.017  15.878  0.7658 -0.8092  0.9524
 7078TIP3    H142725   4.974   4.083  15.874  0.3813 -1.1662  1.6121
 7078TIP3    H242726   4.997   3.934  15.889  1.3060 -0.9963  1.9248
 7079TIP3   OH242727   6.618   0.995  13.912  0.3655  0.5403 -0.2188
 7079TIP3    H142728   6.620   1.064  13.846  0.3874  0.8408  0.0902
 7079TIP3    H242729   6.593   0.916  13.864 -1.2638  1.0841 -0.3027
 7080TIP3   OH242730   6.727   0.834  14.556 -0.2100 -0.3289 -0.0218
 7080TIP3    H142731   6.647   0.846  14.504  0.9087 -1.7569 -2.1596
 7080TIP3    H242732   6.757   0.922  14.575 -2.7063  0.2531  1.5105
 7081TIP3   OH242733   5.256   3.127  13.870  0.0550  0.0994  0.1936
 7081TIP3    H142734   5.298   3.090  13.948 -1.8095 -0.2684  1.0360
 7081TIP3    H242735   5.315   3.198  13.843  0.2963  0.8095  2.4619
 7082TIP3   OH242736   5.546   2.613  16.898  0.2773  0.3316 -0.3083
 7082TIP3    H142737   5.534   2.708  16.910  0.6621  0.2764  0.5327
 7082TIP3    H242738   5.580   2.582  16.982  0.3307 -0.5281 -0.6403
 7083TIP3   OH242739   0.627   0.230  16.294  0.3736  0.3519 -0.3942
 7083TIP3    H142740   0.678   0.160  16.253  0.2948 -0.3587  0.7042
 7083TIP3    H242741   0.693   0.286  16.334  0.3926  0.4571 -0.5726
 7084TIP3   OH242742   6.248   2.798  11.156  0.4759  0.0603  0.4944
 7084TIP3    H142743   6.307   2.800  11.080  1.7198  0.5806  1.4601
 7084TIP3    H242744   6.270   2.716  11.201  1.0673  0.6625  1.3186
 7085TIP3   OH242745   3.378   4.581   4.295  0.4470 -0.2505 -0.2306
 7085TIP3    H142746   3.401   4.671   4.270 -1.4564 -0.1744 -1.8519
 7085TIP3    H242747   3.462   4.540   4.316  1.5213  1.4094 -1.1141
 7086TIP3   OH242748   4.493   3.196   3.395 -0.1437  0.3639 -0.1588
 7086TIP3    H142749   4.491   3.215   3.489  0.5344  2.0025 -0.4534
 7086TIP3    H242750   4.506   3.101   3.389 -1.4253  0.0814  1.3969
 7087TIP3   OH242751   1.280   2.657  12.191 -0.4285 -0.5171 -0.5951
 7087TIP3    H142752   1.375   2.642  12.199 -0.3965 -0.6118 -1.1903
 7087TIP3    H242753   1.266   2.741  12.235 -0.1896 -0.8935  0.2061
 7088TIP3   OH242754   0.022   6.429   4.813  0.2717 -0.3342  0.2372
 7088TIP3    H142755  -0.044   6.378   4.766 -0.6173  0.9490  0.0574
 7088TIP3    H242756   0.086   6.364   4.843 -1.3280 -1.6755  0.8568
 7089TIP3   OH242757   2.849   0.660  15.896  0.1470  0.4261  0.3706
 7089TIP3    H142758   2.866   0.743  15.851 -0.1952  0.9822  1.2481
 7089TIP3    H242759   2.808   0.686  15.979 -0.4574 -0.6470  0.4180
 7090TIP3   OH242760   3.371   0.340   0.116  0.1182  0.1473 -0.3441
 7090TIP3    H142761   3.334   0.364   0.201 -1.7611  0.9932 -1.3713
 7090TIP3    H242762   3.462   0.317   0.135 -0.1346  0.8241  1.8133
 7091TIP3   OH242763   0.252   5.371  13.862 -0.1598  0.3058 -0.4862
 7091TIP3    H142764   0.174   5.410  13.823 -0.0273  0.5039 -0.5534
 7091TIP3    H242765   0.219   5.294  13.908 -0.2438 -0.2685 -1.4766
 7092TIP3   OH242766   5.903   2.375   2.884 -0.5425 -0.3757  0.4149
 7092TIP3    H142767   5.946   2.300   2.843  0.3890  0.9772 -1.1384
 7092TIP3    H242768   5.976   2.432   2.910 -1.2749  0.2746  1.0569
 7093TIP3   OH242769   5.831   5.756   4.973  0.4994  0.2297  0.4190
 7093TIP3    H142770   5.899   5.806   5.018  0.6433 -0.7176  1.2580
 7093TIP3    H242771   5.748   5.794   5.003  0.6335  0.9049 -0.0524
 7094TIP3   OH242772   6.295   0.721   4.757  0.2521  0.3335  0.9368
 7094TIP3    H142773   6.318   0.802   4.712  0.7027  0.0490  0.6503
 7094TIP3    H242774   6.258   0.749   4.841 -0.2211  0.8519  0.5500
 7095TIP3   OH242775   3.872   6.639  13.845  0.5049 -0.1900  0.4038
 7095TIP3    H142776   3.914   6.723  13.868  1.4023 -0.4361 -0.3134
 7095TIP3    H242777   3.908   6.577  13.909  2.2871 -0.6804 -1.0383
 7096TIP3   OH242778   1.877   4.846  13.071 -0.0838 -0.2828  0.2598
 7096TIP3    H142779   1.943   4.886  13.128 -0.0709 -1.5265  1.1431
 7096TIP3    H242780   1.878   4.900  12.991  2.0085 -0.2802  0.2530
 7097TIP3   OH242781   3.368   0.664  15.624  0.0409  0.0716  0.3309
 7097TIP3    H142782   3.372   0.589  15.683  0.7194 -0.4771 -0.4114
 7097TIP3    H242783   3.442   0.720  15.651  0.4756 -0.2780 -0.1268
 7098TIP3   OH242784   4.139   0.355  15.357 -0.1028 -0.1744  0.0796
 7098TIP3    H142785   4.123   0.389  15.269 -0.2629  0.1054  0.2152
 7098TIP3    H242786   4.233   0.365  15.371 -0.2131  0.6053  0.2809
 7099TIP3   OH242787   6.018   6.164  16.232  0.1297  0.1823 -0.1939
 7099TIP3    H142788   6.018   6.069  16.243 -0.0545  0.2213  0.1372
 7099TIP3    H242789   5.925   6.187  16.226  0.1872  0.2868 -0.7511
 7100TIP3   OH242790   0.965   3.498  11.436  0.0448 -0.0101 -0.1605
 7100TIP3    H142791   1.003   3.415  11.463  0.4917 -0.0583 -0.9244
 7100TIP3    H242792   0.981   3.557  11.510  1.5269 -0.0555 -0.4404
 7101TIP3   OH242793   1.287   0.678  16.283  0.1630 -0.2783  0.3610
 7101TIP3    H142794   1.227   0.608  16.261  0.6062 -0.5295 -0.0691
 7101TIP3    H242795   1.281   0.740  16.210  1.6808 -1.1433 -0.5350
 7102TIP3   OH242796   1.838   1.547   6.101  0.5336 -0.1231 -0.0923
 7102TIP3    H142797   1.818   1.538   6.194 -0.2791  0.4148 -0.2106
 7102TIP3    H242798   1.775   1.611   6.068  1.2570  0.2103 -0.8749
 7103TIP3   OH242799   6.554   4.187  11.814 -0.7100 -0.5748 -0.0908
 7103TIP3    H142800   6.583   4.177  11.724  0.0761 -1.6799  0.2753
 7103TIP3    H242801   6.492   4.115  11.827 -0.6467 -0.5524  0.3279
 7104TIP3   OH242802   3.275   6.279  16.065  0.2437 -0.3703  0.4090
 7104TIP3    H142803   3.223   6.319  15.995  0.1428 -0.8547  0.1997
 7104TIP3    H242804   3.366   6.302  16.044  0.1327  0.2903  0.6553
 7105TIP3   OH242805   1.264   3.775   3.074  0.1115  0.4882  0.0473
 7105TIP3    H142806   1.204   3.849   3.068  0.3264  0.7089  0.6127
 7105TIP3    H242807   1.210   3.699   3.051  0.4514  1.0634 -2.7999
 7106TIP3   OH242808   6.638   5.564  12.314  0.1881  0.1789 -0.4008
 7106TIP3    H142809   6.730   5.556  12.337 -0.1885 -1.1040  0.6893
 7106TIP3    H242810   6.629   5.512  12.234  0.6272  1.1812 -1.1048
 7107TIP3   OH242811   3.450   1.460  11.869 -0.3729  0.1654  0.5784
 7107TIP3    H142812   3.544   1.475  11.878 -0.5832  1.3516  0.8474
 7107TIP3    H242813   3.425   1.509  11.791 -0.5354 -1.2661 -0.2934
 7108TIP3   OH242814   2.457   3.881  16.596 -0.2356  0.2638  0.4428
 7108TIP3    H142815   2.493   3.794  16.578 -2.6263 -0.9100  1.0051
 7108TIP3    H242816   2.394   3.895  16.525 -0.9052  0.9096  1.1602
 7109TIP3   OH242817   2.372   4.112  15.963  0.4648 -0.1036  0.2239
 7109TIP3    H142818   2.302   4.177  15.961  0.9667  0.4388  0.0136
 7109TIP3    H242819   2.341   4.044  16.023 -1.2090 -0.9580 -1.5542
 7110TIP3   OH242820   3.170   0.998   3.865  0.7865 -0.0557  0.4244
 7110TIP3    H142821   3.130   0.911   3.865 -1.0837  0.7382 -2.4967
 7110TIP3    H242822   3.255   0.987   3.823  1.2448 -0.7230  1.4995
 7111TIP3   OH242823   0.831   2.517  14.321  0.5263 -0.3961 -0.0067
 7111TIP3    H142824   0.763   2.486  14.261  0.4329  0.6978 -0.4823
 7111TIP3    H242825   0.880   2.438  14.345 -1.0754 -1.2411  0.5603
 7112TIP3   OH242826   3.227   5.399   0.586 -0.5399  0.3503  0.0140
 7112TIP3    H142827   3.147   5.351   0.607 -1.1031  0.9317 -0.7855
 7112TIP3    H242828   3.201   5.462   0.519  0.8103 -0.1445 -0.9987
 7113TIP3   OH242829   2.380   2.685   4.336  0.5243  0.3876  0.1985
 7113TIP3    H142830   2.348   2.615   4.279  1.2252  1.1816 -1.1964
 7113TIP3    H242831   2.386   2.645   4.423 -1.1459 -0.6692 -0.1470
 7114TIP3   OH242832   1.535   1.122  16.879 -0.0803 -0.2758  0.3566
 7114TIP3    H142833   1.489   1.053  16.928 -1.4155  0.4964  0.2126
 7114TIP3    H242834   1.617   1.081  16.852 -0.1421 -1.3082  1.6491
 7115TIP3   OH242835   5.590   2.939   5.405 -0.1875 -0.0236  0.2206
 7115TIP3    H142836   5.550   2.940   5.318  0.1507  2.0486  0.0649
 7115TIP3    H242837   5.519   2.912   5.463 -0.8318  0.0872 -0.5054
 7116TIP3   OH242838   0.111   1.495   4.335  0.1579 -0.0104 -0.1185
 7116TIP3    H142839   0.163   1.574   4.351 -0.0856 -0.0546  0.9497
 7116TIP3    H242840   0.038   1.503   4.397 -1.4078  0.3197 -1.9806
 7117TIP3   OH242841   4.019   1.464   5.128  0.4433 -0.2480 -0.1333
 7117TIP3    H142842   3.975   1.547   5.110  1.5172  0.5183  0.7252
 7117TIP3    H242843   4.112   1.482   5.114  0.8080 -0.9608  1.3003
 7118TIP3   OH242844   4.180   6.555  14.000  0.1319  0.0747  0.2685
 7118TIP3    H142845   4.164   6.528  13.909 -0.0858 -1.0836  0.6464
 7118TIP3    H242846   4.156   6.479  14.052  1.1711  0.4101  1.2466
 7119TIP3   OH242847   5.681   6.179  11.897 -0.4781  0.3030  0.0515
 7119TIP3    H142848   5.622   6.104  11.900  0.4504 -0.4328 -0.0878
 7119TIP3    H242849   5.710   6.191  11.988  0.4873 -0.3995 -0.1573
 7120TIP3   OH242850   1.696   4.554  16.777 -0.3643 -0.2874 -0.3596
 7120TIP3    H142851   1.657   4.513  16.855 -0.7148  0.9292  0.1132
 7120TIP3    H242852   1.760   4.490  16.746  0.3258 -0.4630  1.3809
 7121TIP3   OH242853   5.020   2.883   4.970  0.2416  0.2704  1.0557
 7121TIP3    H142854   5.062   2.969   4.971 -0.1263  0.4957 -1.3745
 7121TIP3    H242855   4.959   2.886   5.043  0.1255  2.1331  0.9117
 7122TIP3   OH242856   1.958   3.706  12.440  1.0150 -0.4002  0.6406
 7122TIP3    H142857   1.987   3.681  12.352  2.7209 -1.3927  1.4589
 7122TIP3    H242858   2.015   3.780  12.463  0.0311  0.3727  0.6013
 7123TIP3   OH242859   4.141   0.711  15.510 -0.0447  0.0447 -0.0558
 7123TIP3    H142860   4.143   0.674  15.422 -1.9797 -1.7183  0.5994
 7123TIP3    H242861   4.135   0.635  15.568  3.1538  1.0589  1.7491
 7124TIP3   OH242862   4.296   3.341   3.223 -0.2335 -0.1339  0.1362
 7124TIP3    H142863   4.222   3.288   3.251 -0.2446  0.3513  1.0282
 7124TIP3    H242864   4.369   3.311   3.276 -0.3358  1.0256  0.9398
 7125TIP3   OH242865   3.184   5.686  12.908  0.2200  0.2163 -0.2447
 7125TIP3    H142866   3.107   5.628  12.915  0.8923 -0.5550  1.0755
 7125TIP3    H242867   3.172   5.749  12.979  0.2863  0.7523 -0.7045
 7126TIP3   OH242868   5.886   6.390  10.534 -0.0354 -0.2451 -0.2827
 7126TIP3    H142869   5.852   6.474  10.504 -2.3454 -1.3466 -0.8548
 7126TIP3    H242870   5.979   6.405  10.548 -0.8623  3.1548  2.2242
 7127TIP3   OH242871   0.967   2.263   0.669  0.1970 -0.5670  0.0384
 7127TIP3    H142872   0.898   2.326   0.687  1.8938  1.1432  0.8083
 7127TIP3    H242873   0.990   2.278   0.578 -0.2306 -0.9183 -0.1275
 7128TIP3   OH242874   1.377   5.454   3.757 -0.3263 -0.8231  0.5904
 7128TIP3    H142875   1.462   5.412   3.747 -0.2564 -0.3850 -0.7642
 7128TIP3    H242876   1.322   5.413   3.691 -0.3330  0.9793 -0.5732
 7129TIP3   OH242877   5.882   0.878  16.919 -0.1399  0.0454 -0.1071
 7129TIP3    H142878   5.915   0.884  17.008 -3.5763  0.5610  1.2195
 7129TIP3    H242879   5.876   0.784  16.902  3.3220 -0.0925 -0.9833
 7130TIP3   OH242880   1.946   0.605   5.649  0.3401 -0.1910 -0.5559
 7130TIP3    H142881   1.894   0.524   5.640 -0.7264  0.3895  0.2603
 7130TIP3    H242882   2.019   0.593   5.588  0.3704 -1.9102 -0.2280
 7131TIP3   OH242883   3.855   1.905   4.358  0.3305 -0.3830 -0.7586
 7131TIP3    H142884   3.790   1.946   4.415  1.7927  1.0974 -0.1141
 7131TIP3    H242885   3.825   1.814   4.349 -1.2658  0.0141  0.3288
 7132TIP3   OH242886   5.519   6.460  15.368  0.6768  0.0023  0.0644
 7132TIP3    H142887   5.429   6.442  15.394  0.2188  0.1819 -1.3102
 7132TIP3    H242888   5.563   6.375  15.373  0.2910 -0.1878  0.2518
 7133TIP3   OH242889   6.469   4.507   2.479 -0.0704  0.8006  0.0346
 7133TIP3    H142890   6.473   4.416   2.507  0.8517  1.4903  2.2825
 7133TIP3    H242891   6.560   4.537   2.483 -0.6244  2.3848  1.3816
 7134TIP3   OH242892   3.659   4.174  14.851  0.3334  0.5485  0.0745
 7134TIP3    H142893   3.577   4.147  14.809  0.5065 -2.7255  1.6248
 7134TIP3    H242894   3.667   4.114  14.926  3.5952  1.5456  0.5800
 7135TIP3   OH242895   2.456   2.535  16.424 -0.1050 -0.4484 -0.1631
 7135TIP3    H142896   2.516   2.603  16.392 -0.5006 -0.1645 -0.3033
 7135TIP3    H242897   2.397   2.518  16.351  0.2895 -1.2833 -0.2882
 7136TIP3   OH242898   0.562   1.349  12.229  0.8067 -0.0983  0.1125
 7136TIP3    H142899   0.533   1.382  12.144  1.8497  0.6422  0.0383
 7136TIP3    H242900   0.481   1.331  12.276  0.1913  2.3058  0.0444
 7137TIP3   OH242901   3.884   1.875   2.965  0.7998  0.0448 -0.3413
 7137TIP3    H142902   3.930   1.826   3.033  0.1301  2.0330  1.6003
 7137TIP3    H242903   3.821   1.812   2.929  1.2268 -1.0579  0.8040
 7138TIP3   OH242904   5.862   1.302  16.629  0.0144  0.6418 -0.4395
 7138TIP3    H142905   5.895   1.239  16.693 -3.3704 -0.3391  0.4456
 7138TIP3    H242906   5.848   1.250  16.549 -1.4930  0.5226 -0.1149
 7139TIP3   OH242907   2.205   5.244  15.967  0.0934  0.0029 -0.5237
 7139TIP3    H142908   2.188   5.246  15.873 -0.3981  2.5818 -0.4116
 7139TIP3    H242909   2.288   5.289  15.978  0.2100 -0.3888  0.2729
 7140TIP3   OH242910   1.199   0.314   5.534 -0.2985 -0.0545  0.4686
 7140TIP3    H142911   1.252   0.241   5.502  1.4034  0.5969  1.7647
 7140TIP3    H242912   1.258   0.390   5.531 -2.5293  1.6867 -2.5187
 7141TIP3   OH242913   5.629   2.052  16.447 -0.1765 -0.1931 -0.1059
 7141TIP3    H142914   5.637   2.128  16.504 -0.6436  0.1470 -0.4946
 7141TIP3    H242915   5.627   1.977  16.507  1.8524 -0.0193  0.1923
 7142TIP3   OH242916   3.834   4.556  13.467 -0.1895 -0.5943  0.0109
 7142TIP3    H142917   3.772   4.628  13.471  1.7422  1.1955 -1.1889
 7142TIP3    H242918   3.835   4.530  13.375  0.7183 -0.7153  0.0506
 7143TIP3   OH242919   4.703   0.103   2.440 -0.2926 -0.1958 -0.4939
 7143TIP3    H142920   4.782   0.129   2.488 -1.0139 -0.1570  0.7169
 7143TIP3    H242921   4.735   0.065   2.359  1.0445 -1.5906  0.6439
 7144TIP3   OH242922   1.718   6.374   5.753 -0.2265 -0.4583  0.1662
 7144TIP3    H142923   1.798   6.409   5.714 -0.7864  0.8553  0.1655
 7144TIP3    H242924   1.748   6.312   5.820  0.7798 -0.0690  0.0732
 7145TIP3   OH242925   1.666   0.592  12.907  0.0448  0.1630 -0.2650
 7145TIP3    H142926   1.659   0.682  12.939 -1.1270  0.3158 -0.8851
 7145TIP3    H242927   1.759   0.579  12.890  0.2665  1.1352  0.1907
 7146TIP3   OH242928   0.071   5.572  12.727 -0.0455 -0.3097  0.3565
 7146TIP3    H142929   0.115   5.650  12.691 -1.0245 -1.4881 -3.6172
 7146TIP3    H242930   0.137   5.531  12.783  1.5630  1.6142 -0.0694
 7147TIP3   OH242931   0.423   1.567   2.690 -0.2069  0.8519  0.7097
 7147TIP3    H142932   0.362   1.636   2.715 -1.2940  0.1435  0.0673
 7147TIP3    H242933   0.484   1.560   2.763  0.3235  2.9384  0.4864
 7148TIP3   OH242934   5.125   5.099  12.953 -0.2108 -0.2572  0.0176
 7148TIP3    H142935   5.108   5.101  12.859 -0.2602 -1.0850  0.0034
 7148TIP3    H242936   5.213   5.062  12.961  0.0956  0.5153  0.2650
 7149TIP3   OH242937   0.152   5.180  11.834  0.2085  0.1752 -0.3154
 7149TIP3    H142938   0.057   5.170  11.833  0.3078 -0.8627  0.0567
 7149TIP3    H242939   0.178   5.155  11.923  1.1585 -2.9220 -1.4023
 7150TIP3   OH242940   3.166   0.167   2.239 -0.1421 -0.0466  0.5746
 7150TIP3    H142941   3.126   0.095   2.287  1.5264 -0.4154  1.4442
 7150TIP3    H242942   3.257   0.141   2.228  0.0956  1.2125 -0.5203
 7151TIP3   OH242943   0.221   4.933  15.805  0.1082  0.2584  0.0341
 7151TIP3    H142944   0.167   4.948  15.728  3.2607 -1.7374 -2.6864
 7151TIP3    H242945   0.251   4.842  15.796  0.9387  0.1194  3.3946
 7152TIP3   OH242946   4.434   3.387  14.251  0.4325 -0.1333 -0.1305
 7152TIP3    H142947   4.415   3.295  14.269  1.8858 -0.7043 -1.3812
 7152TIP3    H242948   4.511   3.385  14.194  1.1523  1.8910  0.6948
 7153TIP3   OH242949   5.019   3.996  14.534  0.1867  0.4300 -1.0096
 7153TIP3    H142950   4.949   4.003  14.469 -0.7983  1.7979  0.1454
 7153TIP3    H242951   5.065   4.080  14.528 -0.8501  1.1921  1.0403
 7154TIP3   OH242952   3.945   2.449   2.869 -0.0326 -0.3073 -0.2754
 7154TIP3    H142953   4.019   2.476   2.815  0.7162 -1.7658 -0.0073
 7154TIP3    H242954   3.981   2.382   2.927 -0.7880  1.2609  2.0914
 7155TIP3   OH242955   5.074   2.992   1.932 -0.1557 -0.3164  0.3713
 7155TIP3    H142956   5.071   3.025   1.843  0.0768  0.6036  0.6991
 7155TIP3    H242957   5.059   3.069   1.987  1.1341 -0.6184  1.1622
 7156TIP3   OH242958   1.734   2.471   3.242  0.3910 -0.0147  0.8973
 7156TIP3    H142959   1.816   2.423   3.228  0.1684  0.0919 -0.9876
 7156TIP3    H242960   1.667   2.403   3.242  0.2322  0.1205 -0.2531
 7157TIP3   OH242961   3.515   4.776   4.120  0.5023  0.2949  0.4762
 7157TIP3    H142962   3.474   4.788   4.035 -1.2627 -0.8201  1.1304
 7157TIP3    H242963   3.596   4.729   4.102 -0.0673 -0.2908 -0.5513
 7158TIP3   OH242964   1.215   0.467   1.341  0.1352 -0.4403 -0.0358
 7158TIP3    H142965   1.145   0.532   1.347  0.3983 -0.0776 -0.8801
 7158TIP3    H242966   1.228   0.455   1.247  2.8004  1.1868  0.0848
 7159TIP3   OH242967   5.643   0.278   3.061  0.6157  0.1998  0.1715
 7159TIP3    H142968   5.567   0.328   3.090  1.5246  2.1678 -0.6907
 7159TIP3    H242969   5.692   0.260   3.141 -0.4588 -0.6050  0.6648
 7160TIP3   OH242970   6.157   2.493   3.425 -0.1336 -0.3216 -0.0386
 7160TIP3    H142971   6.133   2.401   3.435  2.4432 -0.9680  0.6143
 7160TIP3    H242972   6.136   2.513   3.333  1.1983 -2.1682 -0.7841
 7161TIP3   OH242973   5.085   3.150   2.870 -0.1833 -0.4096 -0.4373
 7161TIP3    H142974   5.035   3.123   2.947  0.9593  1.5784  1.0633
 7161TIP3    H242975   5.142   3.076   2.850 -1.2941 -1.3747 -0.0901
 7162TIP3   OH242976   4.858   0.803   2.820 -0.2323  0.5763  0.0032
 7162TIP3    H142977   4.773   0.765   2.797 -1.0017  1.9667  0.5406
 7162TIP3    H242978   4.868   0.784   2.913  0.2548  0.0289 -0.1575
 7163TIP3   OH242979   0.809   1.612  14.422  0.1527 -0.1964 -0.0167
 7163TIP3    H142980   0.845   1.699  14.435  1.9694 -1.1848  1.9613
 7163TIP3    H242981   0.720   1.617  14.455  0.3392  0.8699  0.3311
 7164TIP3   OH242982   3.377   0.789   0.830  0.6711  0.1478  0.0794
 7164TIP3    H142983   3.416   0.864   0.784 -0.6660  0.8970  0.1447
 7164TIP3    H242984   3.321   0.748   0.764 -0.7242  0.8242  0.8438
 7165TIP3   OH242985   4.995   1.986   6.287 -0.1932 -0.0794  0.4443
 7165TIP3    H142986   5.027   2.038   6.213 -0.3150 -1.9542 -0.9763
 7165TIP3    H242987   4.904   1.966   6.263 -0.5539  0.1708  1.6007
 7166TIP3   OH242988   2.774   6.171   0.250 -0.2455 -1.3614  0.1559
 7166TIP3    H142989   2.824   6.243   0.289 -2.7879 -0.4054  1.7538
 7166TIP3    H242990   2.758   6.199   0.160  1.5674 -1.4415 -0.2270
 7167TIP3   OH242991   1.344   1.869  17.101 -0.1558  0.2177  0.1770
 7167TIP3    H142992   1.266   1.825  17.136  0.6051 -1.5662 -0.3105
 7167TIP3    H242993   1.366   1.935  17.167 -0.4076 -1.1978  1.7076
 7168TIP3   OH242994   0.926   3.847  15.776  0.1408 -0.2272  0.2633
 7168TIP3    H142995   0.919   3.896  15.858 -1.6329  0.4018 -0.2398
 7168TIP3    H242996   0.994   3.893  15.727 -2.8854  3.1278 -1.0729
 7169TIP3   OH242997   6.590   0.056  14.424 -0.1271  0.3659 -0.6809
 7169TIP3    H142998   6.667   0.000  14.428 -1.3641 -1.2409  1.7611
 7169TIP3    H242999   6.621   0.143  14.450  1.0211 -0.0796 -0.5411
 7170TIP3   OH243000   5.367   1.940   4.077 -0.2968 -0.3660  0.3438
 7170TIP3    H143001   5.400   1.948   4.167 -0.2485 -0.7012  0.3586
 7170TIP3    H243002   5.370   1.846   4.059 -0.0183 -0.2726 -0.1170
 7171TIP3   OH243003   5.020   2.620  11.844  0.0891  0.0397  0.0140
 7171TIP3    H143004   5.000   2.712  11.823  1.4412  0.2081 -0.5526
 7171TIP3    H243005   5.084   2.625  11.914  1.1357 -0.4430 -0.8862
 7172TIP3   OH243006   5.861   3.630  11.897  0.7002  0.3760 -0.5529
 7172TIP3    H143007   5.811   3.558  11.935  0.4745  0.6228 -0.3819
 7172TIP3    H243008   5.948   3.593  11.881 -0.3261 -0.9240 -3.5288
 7173TIP3   OH243009   6.619   0.956   1.631 -0.0733 -0.2593 -0.1546
 7173TIP3    H143010   6.692   0.905   1.666  0.3843 -0.6779 -1.6758
 7173TIP3    H243011   6.650   1.047   1.635 -0.2293 -0.2446  0.9715
 7174TIP3   OH243012   2.300   6.410  15.052 -0.4540  0.2394  0.1895
 7174TIP3    H143013   2.358   6.443  15.120 -0.4165  0.4564  0.0554
 7174TIP3    H243014   2.217   6.392  15.097 -0.1945 -0.3557  0.4379
 7175TIP3   OH243015   5.292   5.567  12.346 -0.4658 -0.8875 -0.2624
 7175TIP3    H143016   5.206   5.599  12.320  0.3242  2.6930  1.3464
 7175TIP3    H243017   5.344   5.573  12.266 -1.1811 -1.3452 -0.7770
 7176TIP3   OH243018   2.620   6.662  13.938  0.1591 -0.3021  0.2906
 7176TIP3    H143019   2.614   6.567  13.952  1.2072 -0.4354 -0.0779
 7176TIP3    H243020   2.672   6.671  13.858 -0.4181  0.5730  0.0087
 7177TIP3   OH243021   1.881   0.181  14.131 -0.2659 -0.0756 -0.0453
 7177TIP3    H143022   1.823   0.134  14.191 -0.2445 -0.4957 -0.3535
 7177TIP3    H243023   1.939   0.114  14.096  2.4108  0.8123  2.5410
 7178TIP3   OH243024   4.615   1.092   2.507 -0.4228  0.3945  0.4180
 7178TIP3    H143025   4.666   1.064   2.583 -0.0983 -0.5306 -0.1458
 7178TIP3    H243026   4.532   1.045   2.514 -0.0439 -0.4013 -0.2879
 7179TIP3   OH243027   4.001   5.383  15.442  0.4498 -0.0678 -0.2545
 7179TIP3    H143028   4.004   5.420  15.530  2.1676  0.7138 -0.6079
 7179TIP3    H243029   3.950   5.445  15.391 -1.1540 -0.8781  0.3274
 7180TIP3   OH243030   5.908   4.650  12.795 -0.3371 -0.3666  0.2017
 7180TIP3    H143031   5.824   4.625  12.832  0.1235 -1.0669  0.7946
 7180TIP3    H243032   5.972   4.631  12.865 -0.0079  2.8925  0.8454
 7181TIP3   OH243033   6.529   0.734   3.719  0.3587 -0.1877 -0.3062
 7181TIP3    H143034   6.587   0.791   3.769  1.1621  0.6235 -2.1117
 7181TIP3    H243035   6.580   0.654   3.706  0.5191 -0.0272 -0.6610
 7182TIP3   OH243036   3.683   0.023  14.440  0.3727 -0.1257  0.2983
 7182TIP3    H143037   3.749   0.092  14.444 -1.4832  1.8137 -1.3596
 7182TIP3    H243038   3.721  -0.044  14.383  0.7239  1.1838 -1.0336
 7183TIP3   OH243039   4.669   4.818   0.088  0.0882  0.0335  0.1336
 7183TIP3    H143040   4.707   4.857   0.167  0.7577  1.8355 -1.0401
 7183TIP3    H243041   4.706   4.730   0.083  0.6456  0.1873  1.3924
 7184TIP3   OH243042   3.385   2.762   5.668 -0.4641  0.1561  0.0091
 7184TIP3    H143043   3.351   2.851   5.673  1.1696  0.7877  0.2660
 7184TIP3    H243044   3.419   2.744   5.755 -0.5951 -0.6471 -0.0998
 7185TIP3   OH243045   6.331   3.755   2.774 -0.8357  0.3918 -0.2250
 7185TIP3    H143046   6.289   3.680   2.730 -1.2442 -0.2333  1.1993
 7185TIP3    H243047   6.282   3.765   2.856 -0.3552  1.8116 -0.1011
 7186TIP3   OH243048   2.487   1.008  16.843  0.4244 -0.8073 -0.2403
 7186TIP3    H143049   2.471   1.022  16.937  0.2011 -0.5671 -0.3110
 7186TIP3    H243050   2.531   1.088  16.814 -1.7004  0.1899 -0.8460
 7187TIP3   OH243051   0.053   1.138  16.002 -0.6410 -0.1722 -0.0568
 7187TIP3    H143052  -0.017   1.172  16.058 -0.4455  4.2089 -2.2379
 7187TIP3    H243053   0.128   1.194  16.019  0.0494 -0.0536 -3.0765
 7188TIP3   OH243054   4.183   4.399   6.237 -0.4272 -0.6819 -0.1585
 7188TIP3    H143055   4.111   4.459   6.220 -1.0729 -0.8513  1.8175
 7188TIP3    H243056   4.142   4.320   6.271  0.7325 -0.2047  2.5245
 7189TIP3   OH243057   5.397   6.015   3.620  0.5024 -0.3249 -0.4487
 7189TIP3    H143058   5.372   5.938   3.568  0.3266  0.1084 -1.0089
 7189TIP3    H243059   5.337   6.084   3.591 -0.6572 -0.4764  1.4492
 7190TIP3   OH243060   0.760   5.679  15.065 -0.5051  0.0586  0.2165
 7190TIP3    H143061   0.722   5.737  14.998  1.9823  0.6251 -0.7550
 7190TIP3    H243062   0.799   5.738  15.129 -0.8629 -0.5263  0.9825
 7191TIP3   OH243063   1.951   2.794  14.761 -0.5782 -0.1005  0.2037
 7191TIP3    H143064   1.979   2.885  14.753 -1.7422  0.4355  1.9786
 7191TIP3    H243065   1.922   2.770  14.673 -0.7233  1.4105 -0.1675
 7192TIP3   OH243066   0.491   4.153   1.978  0.4696 -0.2744 -0.1615
 7192TIP3    H143067   0.512   4.060   1.978  0.1753 -0.3716 -2.4075
 7192TIP3    H243068   0.570   4.196   1.945  0.2882  0.1989  0.0000
 7193TIP3   OH243069   5.791   6.807  13.715  0.0154  0.3707 -0.2807
 7193TIP3    H143070   5.814   6.715  13.700  1.8674  0.8847 -0.6473
 7193TIP3    H243071   5.793   6.846  13.627 -0.3095  0.8757 -0.0631
 7194TIP3   OH243072   2.740   2.689   3.350  0.3312 -0.0972  0.1438
 7194TIP3    H143073   2.719   2.603   3.314 -1.9687  0.7897 -0.7296
 7194TIP3    H243074   2.660   2.717   3.395  0.9919  1.6524  0.2832
 7195TIP3   OH243075   3.979   4.611  11.630 -0.3317  0.0728  0.3924
 7195TIP3    H143076   3.994   4.525  11.590  0.4346 -1.0876  3.0472
 7195TIP3    H243077   3.988   4.673  11.557 -0.8103 -2.0632 -1.5665
 7196TIP3   OH243078   5.372   6.442   0.715 -0.0996 -0.3354 -0.6787
 7196TIP3    H143079   5.393   6.383   0.642 -0.0203 -0.8155 -0.2785
 7196TIP3    H243080   5.387   6.530   0.680 -1.5468 -0.4720 -1.7140
 7197TIP3   OH243081   4.656   3.676  14.855  0.4369  0.9365 -0.3231
 7197TIP3    H143082   4.591   3.700  14.921  1.3857  0.5871  0.7398
 7197TIP3    H243083   4.736   3.719  14.884  0.9550  0.4471 -1.0384
 7198TIP3   OH243084   6.785   6.227   5.157  0.1825  0.4467  0.4728
 7198TIP3    H143085   6.712   6.234   5.095  0.4421 -0.5546  0.0381
 7198TIP3    H243086   6.753   6.167   5.225 -0.4421  2.2743  1.8151
 7199TIP3   OH243087   0.882   0.436   4.653  0.6381  0.3354  0.1322
 7199TIP3    H143088   0.935   0.515   4.664  2.9694 -0.9812 -1.1285
 7199TIP3    H243089   0.911   0.399   4.570  0.9150 -2.7731  1.5227
 7200TIP3   OH243090   6.619   0.277   6.295  0.2789 -0.4049 -0.3672
 7200TIP3    H143091   6.581   0.246   6.212  1.7633  0.4565 -1.3855
 7200TIP3    H243092   6.703   0.232   6.301  1.9722  2.4788 -1.3262
 7201TIP3   OH243093   4.439   0.956   5.362 -0.3596 -0.0397 -0.1768
 7201TIP3    H143094   4.504   0.945   5.431  0.3803 -1.5483 -1.0844
 7201TIP3    H243095   4.355   0.941   5.405 -0.0072  0.3871  0.6710
 7202TIP3   OH243096   5.532   3.206  15.963 -0.4372  0.3318  0.5360
 7202TIP3    H143097   5.516   3.151  15.886  4.3660  0.0740 -0.4685
 7202TIP3    H243098   5.484   3.287  15.945 -0.1337 -0.0634 -2.3820
 7203TIP3   OH243099   1.033   3.336   5.431 -0.1789  0.5417 -0.3102
 7203TIP3    H143100   0.977   3.383   5.493  0.7712 -0.7763  1.6024
 7203TIP3    H243101   1.081   3.405   5.384 -0.9220  1.5622  0.4129
 7204TIP3   OH243102   5.998   1.319   0.830 -0.0197 -0.4149  0.2348
 7204TIP3    H143103   5.992   1.362   0.915 -0.5432 -0.5355  0.2568
 7204TIP3    H243104   6.047   1.239   0.848  0.9939  0.1731  0.1875
 7205TIP3   OH243105   2.893   1.007   2.040  0.1260 -0.1447  0.2120
 7205TIP3    H143106   2.949   0.930   2.046  1.3624  0.6897 -0.4834
 7205TIP3    H243107   2.831   0.985   1.970  0.9571 -0.2150 -0.5198
 7206TIP3   OH243108   1.805   6.316   2.040  0.5255 -0.1986  0.5127
 7206TIP3    H143109   1.789   6.301   1.946 -0.2042 -1.3986  0.8165
 7206TIP3    H243110   1.826   6.229   2.074 -0.5022  0.0162  1.7062
 7207TIP3   OH243111   6.687   5.269   0.975 -0.4123 -0.7701 -0.0143
 7207TIP3    H143112   6.612   5.245   0.921  0.1479 -0.2385 -1.0305
 7207TIP3    H243113   6.721   5.186   1.008 -0.3189 -1.1505 -1.0632
 7208TIP3   OH243114   4.137   4.540  13.909 -0.1912  0.2103  0.2679
 7208TIP3    H143115   4.094   4.618  13.873 -2.9629 -0.9452  0.9293
 7208TIP3    H243116   4.097   4.467  13.861 -1.5921 -1.1377  3.3713
 7209TIP3   OH243117   2.433   4.241  16.258  0.3432 -0.3528  0.7242
 7209TIP3    H143118   2.482   4.223  16.338  1.1278  0.4774  0.4381
 7209TIP3    H243119   2.443   4.161  16.205  1.0668 -0.3310  0.8265
 7210TIP3   OH243120   2.490   0.304  14.060 -0.4900  0.2355  0.2212
 7210TIP3    H143121   2.475   0.397  14.079  0.4703  0.2446  0.9598
 7210TIP3    H243122   2.553   0.304  13.988 -0.4418  0.1608  0.2632
 7211TIP3   OH243123   3.352   2.478   3.846 -0.6997 -0.4062  0.0249
 7211TIP3    H143124   3.365   2.438   3.760 -1.9725  0.0968 -0.4147
 7211TIP3    H243125   3.431   2.530   3.861  0.7194 -2.6233  0.3551
 7212TIP3   OH243126   0.967   4.835  15.049  0.3200 -0.3207  0.1277
 7212TIP3    H143127   0.993   4.888  15.124 -0.5700 -0.9929  0.9281
 7212TIP3    H243128   0.871   4.829  15.057 -0.0752  1.6921 -2.4463
 7213TIP3   OH243129   5.877   3.007   4.813  0.9496 -0.1771 -0.0053
 7213TIP3    H143130   5.922   2.991   4.730  3.8884  0.2510  1.4443
 7213TIP3    H243131   5.936   3.065   4.861 -1.6537  1.1941  1.5920
 7214TIP3   OH243132   2.415   4.560  15.660  0.8906 -0.4416 -0.1607
 7214TIP3    H143133   2.412   4.518  15.574  0.2576  1.1311 -0.9290
 7214TIP3    H243134   2.438   4.651  15.642 -0.4042  0.1859  1.2334
 7215TIP3   OH243135   4.239   6.191   0.656 -0.1408  0.0167  0.1675
 7215TIP3    H143136   4.312   6.234   0.611 -0.3025 -0.2618 -0.3652
 7215TIP3    H243137   4.194   6.262   0.702 -1.6834  0.7823 -2.4320
 7216TIP3   OH243138   2.576   3.659  16.460 -0.2064  0.0317 -0.0830
 7216TIP3    H143139   2.665   3.627  16.476 -0.4033  0.2656  1.5125
 7216TIP3    H243140   2.556   3.628  16.372  0.7719 -1.5993  0.2399
 7217TIP3   OH243141   6.593   5.594  14.813  0.1221  0.0437 -0.1511
 7217TIP3    H143142   6.584   5.500  14.828  2.2947 -0.4938 -1.8720
 7217TIP3    H243143   6.516   5.617  14.761 -0.2652 -0.8546  0.0151
 7218TIP3   OH243144   0.920   1.370  15.620  0.2126  0.0672  0.0207
 7218TIP3    H143145   0.845   1.417  15.658 -0.4565 -0.9360 -0.0307
 7218TIP3    H243146   0.926   1.290  15.671 -0.1814 -0.9234 -1.4440
 7219TIP3   OH243147   1.015   2.154  11.856  0.2623 -0.2443  0.7010
 7219TIP3    H143148   1.061   2.231  11.890  2.6463 -1.4818  0.4296
 7219TIP3    H243149   0.980   2.183  11.772  1.6097  0.4281  0.3476
 7220TIP3   OH243150   0.196   5.063  12.062  0.4235 -0.2805  0.4846
 7220TIP3    H143151   0.273   5.067  12.117  1.1997 -0.3553 -0.5817
 7220TIP3    H243152   0.207   4.983  12.010 -0.0334  0.0538 -0.1411
 7221TIP3   OH243153   2.100   3.601  13.612 -0.3322  0.0811 -0.2874
 7221TIP3    H143154   2.099   3.691  13.645  2.0287 -0.0932  0.3943
 7221TIP3    H243155   2.122   3.610  13.519  4.1440  0.1001  0.6413
 7222TIP3   OH243156   1.253   3.106  13.818  0.2408  0.0603  0.0057
 7222TIP3    H143157   1.314   3.085  13.888  0.7115  2.5434  0.3814
 7222TIP3    H243158   1.243   3.201  13.822 -0.8930  0.0814 -2.3273
 7223TIP3   OH243159   1.338   3.685   6.451  0.1199  0.1356 -0.0527
 7223TIP3    H143160   1.300   3.755   6.399  1.4496  1.9200  1.3067
 7223TIP3    H243161   1.433   3.699   6.444  0.3418  0.3869  2.7005
 7224TIP3   OH243162   0.914   5.850  17.213 -0.5998  0.7627 -0.1807
 7224TIP3    H143163   0.830   5.855  17.260 -0.1254  2.0759  0.5531
 7224TIP3    H243164   0.979   5.839  17.282 -0.1775 -0.5456 -0.7698
 7225TIP3   OH243165   6.710   0.619   2.813  0.3919  0.1527  0.4812
 7225TIP3    H143166   6.763   0.698   2.822  0.4064 -0.0124  1.9179
 7225TIP3    H243167   6.715   0.576   2.898  0.2468 -1.3246 -0.2306
 7226TIP3   OH243168   1.581   0.925  12.439 -0.2074 -0.0036 -0.0147
 7226TIP3    H143169   1.602   0.835  12.413  1.3141  0.5827 -0.9211
 7226TIP3    H243170   1.515   0.954  12.375 -2.5588 -1.2708  1.7714
 7227TIP3   OH243171   0.147   1.630   1.770 -0.2286  0.1986 -0.3773
 7227TIP3    H143172   0.160   1.614   1.677  0.4989 -0.5382 -0.1522
 7227TIP3    H243173   0.209   1.572   1.814 -1.2920 -0.2292  0.5949
 7228TIP3   OH243174   6.534   3.225  15.171 -0.1361 -0.5651 -0.1512
 7228TIP3    H143175   6.584   3.188  15.244 -1.8537 -2.6361  0.0198
 7228TIP3    H243176   6.464   3.274  15.214  1.5418  2.1273 -0.3922
 7229TIP3   OH243177   1.812   5.859  13.826 -0.2098  0.0368  0.5409
 7229TIP3    H143178   1.828   5.765  13.837  0.3227  0.0420 -0.1275
 7229TIP3    H243179   1.881   5.887  13.766 -2.6598  0.0786 -2.3373
 7230TIP3   OH243180   5.949   2.106   0.962 -0.0222 -0.6782  0.4312
 7230TIP3    H143181   5.865   2.087   0.921 -0.6996 -1.2464  2.0609
 7230TIP3    H243182   6.009   2.041   0.924 -0.1144  0.1963 -1.2923
 7231TIP3   OH243183   0.563   3.385  13.594  0.1422 -0.1376  0.5308
 7231TIP3    H143184   0.542   3.474  13.621 -0.4107  0.2516 -1.1262
 7231TIP3    H243185   0.498   3.331  13.639  0.4115  0.2889  1.4546
 7232TIP3   OH243186   2.295   3.681   0.839  0.4869 -0.1240  0.2731
 7232TIP3    H143187   2.289   3.626   0.761 -0.7416  0.2364  0.1123
 7232TIP3    H243188   2.207   3.715   0.852  1.2986  2.1430  0.1249
 7233TIP3   OH243189   5.797   1.067  12.032  0.1753 -0.3473  0.9754
 7233TIP3    H143190   5.876   1.097  11.986 -0.0783 -0.7204  0.2825
 7233TIP3    H243191   5.807   0.972  12.037 -0.9278 -0.5678 -0.4807
 7234TIP3   OH243192   1.682   6.242   1.529  0.3639 -0.2398  0.9161
 7234TIP3    H143193   1.632   6.163   1.552 -1.0597  0.8974  1.7997
 7234TIP3    H243194   1.662   6.258   1.437 -0.5752 -0.0115  1.1648
 7235TIP3   OH243195   2.540   0.297   4.603 -0.3300  0.7244 -0.8587
 7235TIP3    H143196   2.559   0.279   4.511 -0.0133  1.9445 -1.0443
 7235TIP3    H243197   2.503   0.215   4.636  3.6090 -1.1734 -0.9077
 7236TIP3   OH243198   1.900   5.688  12.435 -0.6956  0.3704 -0.1560
 7236TIP3    H143199   1.879   5.724  12.521 -1.7058 -0.4417 -0.0638
 7236TIP3    H243200   1.943   5.761  12.389 -0.1155  0.8009  1.0306
 7237TIP3   OH243201   2.306   6.054  15.317  1.0139 -0.0437 -0.0156
 7237TIP3    H143202   2.223   6.080  15.357  1.7697  1.4535  0.6117
 7237TIP3    H243203   2.293   6.066  15.223  0.5472  0.2284  0.0813
 7238TIP3   OH243204   6.171   4.711   3.387 -0.0134  0.2111 -0.2389
 7238TIP3    H143205   6.262   4.742   3.380  0.0364  0.3494  0.9564
 7238TIP3    H243206   6.179   4.617   3.404 -0.1500 -0.3234 -2.9560
 7239TIP3   OH243207   0.279   3.077   0.933 -0.0781  0.1696 -0.3223
 7239TIP3    H143208   0.303   3.015   0.864 -0.9430 -0.1043 -0.3845
 7239TIP3    H243209   0.188   3.099   0.915  0.3191  1.7329 -0.4976
 7240TIP3   OH243210   5.389   4.044   0.098  0.3962  0.0986  0.6845
 7240TIP3    H143211   5.381   4.100   0.175 -0.4808 -0.4159  0.9806
 7240TIP3    H243212   5.468   4.075   0.054  0.5097  0.8680  1.4058
 7241TIP3   OH243213   3.809   3.009  17.203  0.4125 -0.5206  0.3937
 7241TIP3    H143214   3.744   2.939  17.208  0.9102 -1.1151 -1.1986
 7241TIP3    H243215   3.813   3.031  17.110  1.9220  0.0650  0.5906
 7242TIP3   OH243216   2.507   5.651   1.659 -0.0215  0.2124  0.3371
 7242TIP3    H143217   2.498   5.677   1.568  1.4055  0.4981  0.2629
 7242TIP3    H243218   2.558   5.570   1.656 -0.2499  0.0412  0.8639
 7243TIP3   OH243219   3.297   2.879   0.002 -0.0344 -0.1123  0.3189
 7243TIP3    H143220   3.275   2.969  -0.022  0.7400  0.4438  1.6665
 7243TIP3    H243221   3.276   2.828  -0.077 -2.2702  0.9538  0.1744
 7244TIP3   OH243222   6.288   6.524   2.460 -0.2256  0.1854  0.0142
 7244TIP3    H143223   6.302   6.607   2.506  0.4128  1.0004 -1.5668
 7244TIP3    H243224   6.269   6.550   2.370 -0.8418 -1.3671 -0.3193
 7245TIP3   OH243225   0.565   6.174  16.432 -0.4850  0.3378 -0.4511
 7245TIP3    H143226   0.575   6.114  16.358 -1.4262  1.5078 -1.5567
 7245TIP3    H243227   0.479   6.154  16.468 -0.3350  0.2688 -0.1334
 7246TIP3   OH243228   4.039   0.080   2.468  0.1452 -0.1964  0.2778
 7246TIP3    H143229   4.103   0.083   2.396 -1.1166 -1.3850 -0.9293
 7246TIP3    H243230   4.064   0.003   2.519  1.4065  0.9898  1.4937
 7247TIP3   OH243231   2.031   4.441  13.534  0.0200 -0.0133  0.1936
 7247TIP3    H143232   1.974   4.518  13.545  1.0417  0.8760 -0.6746
 7247TIP3    H243233   2.056   4.418  13.624  1.8650  2.3294  0.3305
 7248TIP3   OH243234   2.575   6.113  16.399 -0.6478  0.1333  0.3287
 7248TIP3    H143235   2.533   6.196  16.374  1.3818  0.8160 -0.9829
 7248TIP3    H243236   2.535   6.090  16.483 -0.9597  2.6422  0.9021
 7249TIP3   OH243237   6.612   4.000  10.655  0.3923 -0.3849  0.2789
 7249TIP3    H143238   6.680   4.000  10.588 -1.2606  2.5742 -1.4875
 7249TIP3    H243239   6.532   3.978  10.608 -0.7821  1.6624  1.2717
 7250TIP3   OH243240   3.562   2.605   1.855 -0.0499 -0.4092  0.0382
 7250TIP3    H143241   3.494   2.646   1.801 -1.4544 -0.4923  1.7037
 7250TIP3    H243242   3.539   2.512   1.854 -0.2599 -0.3713  0.9986
 7251TIP3   OH243243   1.517   0.120  14.494  0.3157  0.1909  0.6145
 7251TIP3    H143244   1.531   0.199  14.546  1.3525 -0.5842  1.5290
 7251TIP3    H243245   1.560   0.050  14.544 -1.5740 -1.1557  0.3876
 7252TIP3   OH243246   5.690   0.502   0.038 -0.4225 -0.0092  0.1702
 7252TIP3    H143247   5.759   0.437   0.048 -0.9534 -0.6440 -0.2765
 7252TIP3    H243248   5.678   0.511  -0.057 -0.6628  0.4117  0.2369
 7253TIP3   OH243249   2.080   4.386  10.616  0.3472 -0.1414  0.6118
 7253TIP3    H143250   2.023   4.327  10.666  0.2657 -0.9910 -0.4828
 7253TIP3    H243251   2.093   4.342  10.532 -1.1397  2.2204 -0.8986
 7254TIP3   OH243252   0.378   5.686  15.708 -0.5845 -0.0854 -0.1002
 7254TIP3    H143253   0.431   5.716  15.782 -0.4419  1.1867 -0.7041
 7254TIP3    H243254   0.288   5.709  15.733 -0.6085 -0.2316 -0.0506
 7255TIP3   OH243255   3.232   4.799  16.719  0.0325  0.4250  0.3186
 7255TIP3    H143256   3.231   4.888  16.754  0.1699  1.2387 -1.6713
 7255TIP3    H243257   3.323   4.784  16.692 -0.0800 -0.1571  0.2513
 7256TIP3   OH243258   0.402   1.440  13.065 -0.1483 -0.3766  0.2924
 7256TIP3    H143259   0.458   1.416  13.140  1.3768  1.2491 -0.2784
 7256TIP3    H243260   0.398   1.536  13.069 -1.2565 -0.3754 -0.8652
 7257TIP3   OH243261   0.839   6.341   1.706  0.8906  0.9587  0.3280
 7257TIP3    H143262   0.779   6.317   1.777 -1.0442 -0.7034 -1.8113
 7257TIP3    H243263   0.805   6.425   1.674  0.9737  1.0538  0.4870
 7258TIP3   OH243264   4.295   2.796  13.757 -0.0816 -0.5747 -0.0623
 7258TIP3    H143265   4.302   2.701  13.753 -0.2961 -0.5891 -0.1122
 7258TIP3    H243266   4.385   2.827  13.749 -0.0696 -0.7563 -0.6326
 7259TIP3   OH243267   6.275   3.163  13.232 -0.1765  0.1853 -0.0510
 7259TIP3    H143268   6.325   3.225  13.284 -1.0768  0.6051  0.3217
 7259TIP3    H243269   6.194   3.150  13.282  1.8509 -4.8029  2.2941
 7260TIP3   OH243270   5.927   1.134  12.270 -0.6130  0.2573 -0.1727
 7260TIP3    H143271   5.858   1.150  12.205  0.2360 -1.4377 -1.5367
 7260TIP3    H243272   5.880   1.126  12.353 -1.8886  0.8451 -0.8214
 7261TIP3   OH243273   4.295   1.865   2.401 -0.2209  0.3879  0.3263
 7261TIP3    H143274   4.277   1.946   2.354 -0.3547 -0.6704 -1.4841
 7261TIP3    H243275   4.389   1.853   2.394 -0.0481  0.9271  1.5327
 7262TIP3   OH243276   4.015   3.105  10.892 -0.2273  0.1887 -0.6087
 7262TIP3    H143277   3.946   3.077  10.831  0.1200  0.7518 -1.2808
 7262TIP3    H243278   4.078   3.151  10.836  0.5286 -0.0332  0.0514
 7263TIP3   OH243279   6.102   2.728   1.295 -0.1643  0.1194 -0.2064
 7263TIP3    H143280   6.124   2.756   1.206  0.6946  1.2000  0.3384
 7263TIP3    H243281   6.023   2.777   1.317 -0.3066 -0.0569 -0.3196
 7264TIP3   OH243282   3.580   5.291   3.188  0.2190 -0.9229  0.2045
 7264TIP3    H143283   3.580   5.195   3.184 -1.7251 -0.9594  0.7057
 7264TIP3    H243284   3.609   5.318   3.101  0.0069 -1.9581 -0.1951
 7265TIP3   OH243285   1.713   0.783   4.264 -0.0238 -0.2255  0.7163
 7265TIP3    H143286   1.704   0.776   4.359 -1.1937  1.2571  0.7447
 7265TIP3    H243287   1.806   0.769   4.247  0.0258 -1.4516  1.9789
 7266TIP3   OH243288   5.985   3.370  11.255 -1.0126 -0.0107 -0.1084
 7266TIP3    H143289   5.931   3.357  11.177 -0.1229  1.4099 -0.9796
 7266TIP3    H243290   5.938   3.436  11.306 -0.9038  0.0631 -0.1023
 7267TIP3   OH243291   5.010   6.407  14.109  0.0281 -0.5138 -0.5069
 7267TIP3    H143292   5.007   6.335  14.172 -0.6506 -0.0488 -0.0051
 7267TIP3    H243293   5.042   6.367  14.029 -0.0551 -1.3180 -0.1431
 7268TIP3   OH243294   6.676   6.742   3.574 -0.0560 -0.1821  0.5112
 7268TIP3    H143295   6.731   6.805   3.528 -0.9657 -0.2129 -0.6334
 7268TIP3    H243296   6.735   6.672   3.601  0.4757 -0.1809 -0.6413
 7269TIP3   OH243297   1.621   6.326   0.855 -0.1349  0.3694  0.2878
 7269TIP3    H143298   1.588   6.313   0.766  0.1657  0.1264  0.2127
 7269TIP3    H243299   1.716   6.321   0.847 -0.1393 -0.6195  0.7803
 7270TIP3   OH243300   1.511   0.040  17.167  0.2146  0.5083 -0.0177
 7270TIP3    H143301   1.435  -0.013  17.144  0.0375  0.6343  0.2743
 7270TIP3    H243302   1.475   0.123  17.195  0.3671  0.0705  1.5253
 7271TIP3   OH243303   5.426   1.432  13.227  0.1688 -0.3066  0.2830
 7271TIP3    H143304   5.346   1.398  13.189  0.2020 -0.0190 -0.0458
 7271TIP3    H243305   5.421   1.407  13.320  0.8735 -2.4722 -0.2229
 7272TIP3   OH243306   4.029   2.641   0.480 -0.0085 -0.1534  0.2511
 7272TIP3    H143307   4.067   2.610   0.562 -1.1420  0.5036  1.0311
 7272TIP3    H243308   4.102   2.686   0.436  0.4681 -0.0474  1.1378
 7273TIP3   OH243309   0.531   2.077   3.441  0.8004 -0.5540  0.1090
 7273TIP3    H143310   0.614   2.097   3.484 -0.0583  0.0958  1.5275
 7273TIP3    H243311   0.506   1.991   3.477  0.8969 -0.7841 -0.3727
 7274TIP3   OH243312   4.967   6.572  11.812 -0.4850  0.3354  0.2896
 7274TIP3    H143313   5.019   6.505  11.857 -0.2488 -0.8597 -1.7151
 7274TIP3    H243314   4.989   6.561  11.719 -3.6163  0.4370 -0.4937
 7275TIP3   OH243315   2.771   6.102  13.147  0.1702 -0.3943 -0.1266
 7275TIP3    H143316   2.764   6.067  13.236 -0.1964 -0.7524 -0.2924
 7275TIP3    H243317   2.697   6.163  13.140 -0.9573 -1.8125 -0.8289
 7276TIP3   OH243318   4.971   6.713  11.313  0.2133 -0.3417 -0.1189
 7276TIP3    H143319   4.960   6.712  11.218 -1.1355  0.3647  0.0177
 7276TIP3    H243320   4.978   6.620  11.337  2.5790 -0.4691 -1.1054
 7277TIP3   OH243321   0.104   3.878   3.868 -0.2812  0.4035  0.2446
 7277TIP3    H143322   0.126   3.786   3.881 -0.9836  0.1307 -0.4177
 7277TIP3    H243323   0.189   3.921   3.855 -0.0771 -0.5498 -1.7983
 7278TIP3   OH243324   2.907   4.247   1.326  0.2372  0.4184  0.5458
 7278TIP3    H143325   2.937   4.306   1.395 -0.0913 -0.4712  1.4625
 7278TIP3    H243326   2.913   4.299   1.246 -0.0934  1.7120  1.3413
 7279TIP3   OH243327   3.812   2.773   0.574  0.1657  0.7979  0.1203
 7279TIP3    H143328   3.895   2.736   0.545 -0.0206  1.3448 -1.1395
 7279TIP3    H243329   3.771   2.806   0.494 -2.4736 -1.8162  0.3058
 7280TIP3   OH243330   3.245   2.706  16.340 -0.5228  0.2177 -0.5435
 7280TIP3    H143331   3.275   2.793  16.364  2.1897 -0.5925 -0.8684
 7280TIP3    H243332   3.276   2.693  16.251 -0.8487 -1.1050 -0.4782
 7281TIP3   OH243333   0.712   2.456  13.879 -0.1159 -0.2512 -0.2292
 7281TIP3    H143334   0.619   2.436  13.867 -0.3466  0.6119  0.0665
 7281TIP3    H243335   0.753   2.435  13.795 -0.2099 -2.6688  0.2982
 7282TIP3   OH243336   4.179   4.073  12.625 -0.2129  0.5704 -0.4237
 7282TIP3    H143337   4.228   4.153  12.605 -1.8329  0.9661 -2.9585
 7282TIP3    H243338   4.234   4.027  12.689  2.7391  1.7261 -2.0271
 7283TIP3   OH243339   0.101   5.349   3.130  0.0959 -0.6324 -0.1438
 7283TIP3    H143340   0.015   5.389   3.144  0.7759  0.5569  0.6122
 7283TIP3    H243341   0.146   5.358   3.213  1.2667 -0.5151 -0.7815
 7284TIP3   OH243342   0.528   1.440   1.472 -0.2967 -0.1844  0.0825
 7284TIP3    H143343   0.519   1.428   1.377 -0.8886  2.5542 -0.2531
 7284TIP3    H243344   0.595   1.508   1.481 -0.1045 -0.5724  1.6339
 7285TIP3   OH243345   1.570   0.348   2.415 -0.2664  0.1652  0.3423
 7285TIP3    H143346   1.589   0.405   2.341  1.2108 -0.4794  0.2057
 7285TIP3    H243347   1.537   0.267   2.376  1.1791 -0.4341  0.3384
 7286TIP3   OH243348   2.955   1.149   3.640  0.5398 -0.6030  0.0504
 7286TIP3    H143349   2.980   1.088   3.710 -0.7292  0.9096  1.8330
 7286TIP3    H243350   3.012   1.225   3.653  1.3292 -0.9079 -1.4886
 7287TIP3   OH243351   2.432   4.385  12.701 -0.1798  0.4237  0.6850
 7287TIP3    H143352   2.464   4.381  12.611  1.0929  2.2460  1.0412
 7287TIP3    H243353   2.470   4.308  12.744 -1.2868 -0.7908 -0.4727
 7288TIP3   OH243354   5.473   5.607  16.110 -1.0734 -0.0146 -0.1116
 7288TIP3    H143355   5.482   5.679  16.172  0.2967 -0.9720  0.8409
 7288TIP3    H243356   5.494   5.645  16.026 -1.1249  0.8749  0.2720
 7289TIP3   OH243357   4.609   1.869   1.045 -0.1492  0.1143  0.4990
 7289TIP3    H143358   4.589   1.793   1.099  0.1598 -2.2255 -2.4953
 7289TIP3    H243359   4.524   1.900   1.013 -0.0327 -1.4520 -1.4115
 7290TIP3   OH243360   1.123   0.512  12.016  0.0285  0.4150 -0.4677
 7290TIP3    H143361   1.131   0.528  11.922 -0.2370  1.6526 -0.2983
 7290TIP3    H243362   1.030   0.493  12.029  0.1908 -0.4162 -0.5546
 7291TIP3   OH243363   5.513   3.114   5.874 -0.2607 -0.0855  0.1138
 7291TIP3    H143364   5.457   3.141   5.947  0.2367 -1.3792  0.9921
 7291TIP3    H243365   5.469   3.147   5.796 -1.4512  0.2391  0.9176
 7292TIP3   OH243366   0.829   5.492  15.825  0.4182  0.2678 -0.2409
 7292TIP3    H143367   0.777   5.454  15.754  0.6811  0.2372 -0.4186
 7292TIP3    H243368   0.850   5.580  15.794 -0.6586  0.7666  0.4074
 7293TIP3   OH243369   5.633   6.340   4.086  0.7831  0.8497 -0.5154
 7293TIP3    H143370   5.671   6.345   3.999  0.7458 -1.9461 -0.7462
 7293TIP3    H243371   5.597   6.251   4.092 -2.3987  2.1747  1.0655
 7294TIP3   OH243372   4.718   0.225  12.070  0.5304  0.1526 -0.1466
 7294TIP3    H143373   4.627   0.233  12.100  0.0136  1.5287 -1.9776
 7294TIP3    H243374   4.716   0.154  12.005  0.8886 -0.2447  0.2745
 7295TIP3   OH243375   4.133   5.351   2.840 -0.5035  0.3527  0.0580
 7295TIP3    H143376   4.215   5.347   2.791 -0.4818  1.0216  0.0348
 7295TIP3    H243377   4.069   5.384   2.776 -0.8487 -0.4201  0.0007
 7296TIP3   OH243378   6.491   4.270   6.041 -0.5062  0.0128 -0.0806
 7296TIP3    H143379   6.571   4.258   5.990 -0.4978 -2.2411  0.3875
 7296TIP3    H243380   6.477   4.364   6.042  2.3669  0.5028  0.1505
 7297TIP3   OH243381   1.897   2.888   4.563  0.2546 -0.8677  0.0723
 7297TIP3    H143382   1.914   2.842   4.481  0.1985  0.4776 -0.7030
 7297TIP3    H243383   1.983   2.922   4.589  0.1436 -0.6739  0.1860
 7298TIP3   OH243384   1.346   1.540  11.626  0.6640  0.1966 -0.2013
 7298TIP3    H143385   1.379   1.454  11.648  0.4962 -0.0747 -1.0044
 7298TIP3    H243386   1.332   1.583  11.711  0.3929 -0.6948  0.2101
 7299TIP3   OH243387   2.906   4.143   3.783  0.6009  0.4189  0.6377
 7299TIP3    H143388   2.958   4.212   3.825  0.4772  1.1898 -0.4691
 7299TIP3    H243389   2.970   4.088   3.738  0.7365 -0.4272  1.8157
 7300TIP3   OH243390   6.700   5.567   5.446 -0.8370 -0.0097 -0.2052
 7300TIP3    H143391   6.790   5.550   5.419 -0.4942 -0.0029  0.9292
 7300TIP3    H243392   6.706   5.643   5.504 -1.7691  0.9759 -1.3676
 7301TIP3   OH243393   5.816   4.050   5.222  0.0435 -0.1426  0.8232
 7301TIP3    H143394   5.858   4.101   5.291 -1.3214  0.4154  1.2680
 7301TIP3    H243395   5.757   3.991   5.270 -0.3527 -0.2773  0.1677
 7302TIP3   OH243396   4.273   2.341  16.646 -0.4930 -0.2552 -0.6955
 7302TIP3    H143397   4.185   2.355  16.681 -1.0228 -1.6577 -1.4493
 7302TIP3    H243398   4.274   2.392  16.565 -0.4212  0.2036 -0.4108
 7303TIP3   OH243399   5.433   1.112  12.721  0.4804 -0.2929 -0.6594
 7303TIP3    H143400   5.366   1.085  12.784  0.1460 -0.1568 -0.9606
 7303TIP3    H243401   5.499   1.157  12.774 -0.0071  0.1926 -0.4719
 7304TIP3   OH243402   6.725   5.031  12.137  1.0052  0.7463 -0.1106
 7304TIP3    H143403   6.686   5.006  12.221 -1.8189  1.2135 -1.2107
 7304TIP3    H243404   6.818   5.040  12.156  0.8492 -1.8580  2.3376
 7305TIP3   OH243405   0.053   2.612   5.841 -0.0678 -0.2106  0.1293
 7305TIP3    H143406  -0.001   2.546   5.884 -2.0259  0.1672 -1.6610
 7305TIP3    H243407   0.009   2.629   5.758  1.5952  1.7615 -0.4022
 7306TIP3   OH243408   6.595   0.184   3.410 -0.2002  0.2108 -0.0041
 7306TIP3    H143409   6.551   0.264   3.438 -1.5141  0.4080 -2.4222
 7306TIP3    H243410   6.524   0.125   3.387  0.7309  0.0189 -2.6034
 7307TIP3   OH243411   0.662   2.514   2.797 -0.6133  0.0423 -0.1813
 7307TIP3    H143412   0.754   2.536   2.787 -0.7642  1.1871  0.7552
 7307TIP3    H243413   0.646   2.522   2.892 -1.4497 -1.0302 -0.2242
 7308TIP3   OH243414   1.055   5.285   0.853  0.0830 -0.3669  0.0935
 7308TIP3    H143415   1.049   5.366   0.904  1.5625 -0.6433  0.7286
 7308TIP3    H243416   1.148   5.273   0.838 -0.2016 -1.4070 -0.9090
 7309TIP3   OH243417   3.888   4.649   2.436  0.9094  0.3829 -0.4385
 7309TIP3    H143418   3.965   4.595   2.418  0.8457 -0.5080  1.8477
 7309TIP3    H243419   3.925   4.732   2.466  0.9813  0.2344 -0.1149
 7310TIP3   OH243420   1.304   6.313  11.753  0.3437 -0.0462 -0.1371
 7310TIP3    H143421   1.211   6.296  11.767  0.4808  0.0944  0.9970
 7310TIP3    H243422   1.310   6.408  11.741  0.5223  0.1329  1.3265
 7311TIP3   OH243423   2.238   5.731   3.403  0.0786  0.4567 -0.5831
 7311TIP3    H143424   2.174   5.714   3.472  0.3136  1.5175 -0.1000
 7311TIP3    H243425   2.257   5.824   3.410  1.2696  0.2606 -1.0852
 7312TIP3   OH243426   4.041   1.649  12.224  0.0603 -0.4072 -0.5173
 7312TIP3    H143427   4.065   1.572  12.172  1.4993 -0.0116 -0.4760
 7312TIP3    H243428   4.107   1.652  12.294 -1.0273 -0.1315  0.5014
 7313TIP3   OH243429   3.714   2.170  14.535 -1.0186 -0.1604  0.3518
 7313TIP3    H143430   3.788   2.217  14.574 -1.9987  0.8879  0.9772
 7313TIP3    H243431   3.746   2.080  14.525 -0.0195  0.0299  1.6151
 7314TIP3   OH243432   3.740   2.405   2.292 -0.6319 -0.0953  0.3388
 7314TIP3    H143433   3.709   2.376   2.206  1.4118 -0.1045 -0.4196
 7314TIP3    H243434   3.781   2.328   2.330 -0.2567  0.2787  0.7046
 7315TIP3   OH243435   0.888   2.552   5.135 -0.0906  0.1589 -0.0051
 7315TIP3    H143436   0.858   2.543   5.045 -2.5715  2.2030  0.5710
 7315TIP3    H243437   0.871   2.466   5.174  1.7088 -0.9819 -1.6417
 7316TIP3   OH243438   3.075   3.071   6.642 -0.5639 -0.1326 -0.0665
 7316TIP3    H143439   3.122   3.143   6.683 -1.4617  0.8452 -0.7494
 7316TIP3    H243440   3.138   2.999   6.639  0.9819  1.2802 -1.3244
 7317TIP3   OH243441   3.263   4.363  12.796  0.3471  0.0529  0.2819
 7317TIP3    H143442   3.283   4.440  12.849  0.5832  0.1287  0.0783
 7317TIP3    H243443   3.235   4.297  12.860  1.3776 -0.1053  0.5759
 7318TIP3   OH243444   2.712   1.264   4.202 -0.5190 -0.8430  0.0137
 7318TIP3    H143445   2.742   1.180   4.238  0.3020 -0.3421  0.5213
 7318TIP3    H243446   2.792   1.317   4.197 -0.9551 -0.2631 -0.7694
 7319TIP3   OH243447   6.031   2.712   6.110 -0.5904 -0.1843  0.5341
 7319TIP3    H143448   6.026   2.796   6.155  2.3245  0.3853 -0.0792
 7319TIP3    H243449   6.121   2.682   6.126 -1.5393 -3.1414  0.6449
 7320TIP3   OH243450   2.499   0.848   4.764  0.1466  0.1600  0.0559
 7320TIP3    H143451   2.451   0.880   4.840 -0.1557 -0.8495  0.2982
 7320TIP3    H243452   2.570   0.795   4.800  0.1503 -0.1221 -0.3499
 7321TIP3   OH243453   6.648   4.783  13.869  0.0093 -0.6088  0.6532
 7321TIP3    H143454   6.637   4.697  13.828 -1.2567  0.2767 -0.8957
 7321TIP3    H243455   6.566   4.828  13.853  0.9260  1.1625  0.8341
 7322TIP3   OH243456   2.491   3.777  11.379 -0.2261  0.0780  0.6995
 7322TIP3    H143457   2.562   3.727  11.338  0.4195  0.8093  0.9225
 7322TIP3    H243458   2.502   3.762  11.473 -1.1146 -0.8041  0.6688
 7323TIP3   OH243459   2.060   2.192  16.934  0.5765 -0.8862  0.1506
 7323TIP3    H143460   1.989   2.213  16.994  1.1818 -1.6178  1.1308
 7323TIP3    H243461   2.016   2.159  16.856 -0.1394 -2.0486  1.0423
 7324TIP3   OH243462   3.950   5.451   1.748  0.3158 -0.7971  0.7103
 7324TIP3    H143463   3.956   5.453   1.653 -2.2423 -0.7494  0.5216
 7324TIP3    H243464   3.994   5.370   1.773  0.1506 -1.2873 -0.5670
 7325TIP3   OH243465   2.409   0.934   5.003  0.4262  0.4744 -0.5076
 7325TIP3    H143466   2.399   0.895   5.090  1.2783  0.4172 -0.4320
 7325TIP3    H243467   2.476   1.001   5.014 -0.1256  1.1081 -0.9187
 7326TIP3   OH243468   1.793   0.636  14.136  0.1497 -0.6952  0.3095
 7326TIP3    H143469   1.763   0.580  14.064  2.7954  0.3656 -1.6892
 7326TIP3    H243470   1.851   0.581  14.188 -0.1836 -0.8796  0.4865
 7327TIP3   OH243471   1.750   6.615   1.676 -0.5513 -0.5794 -0.1770
 7327TIP3    H143472   1.705   6.687   1.721 -2.1676 -1.8006  0.2264
 7327TIP3    H243473   1.842   6.640   1.675 -1.0215  1.2113  0.4816
 7328TIP3   OH243474   6.675   4.373   0.707 -0.2314 -0.1447 -0.0341
 7328TIP3    H143475   6.703   4.348   0.795 -0.4634 -0.2244  0.0164
 7328TIP3    H243476   6.585   4.341   0.700  0.1764 -1.1690 -0.7104
 7329TIP3   OH243477   1.059   1.843   2.925 -0.7614  0.4082 -0.0694
 7329TIP3    H143478   0.985   1.859   2.867 -1.4331 -0.1347  0.6223
 7329TIP3    H243479   1.065   1.747   2.930 -1.0485  0.4524  1.1791
 7330TIP3   OH243480   2.475   0.439   0.880 -0.1709 -0.1625 -0.5387
 7330TIP3    H143481   2.420   0.364   0.903 -0.0094 -1.2061 -3.3087
 7330TIP3    H243482   2.533   0.450   0.955 -0.9372 -2.1029  0.3922
 7331TIP3   OH243483   2.915   2.511  11.187  0.6040  0.1816 -0.3071
 7331TIP3    H143484   2.824   2.538  11.178  0.2987 -0.1111  1.6927
 7331TIP3    H243485   2.966   2.589  11.164 -0.1768  0.8245  0.1268
 7332TIP3   OH243486   3.064   0.076  14.518 -0.6517 -0.0107  0.6456
 7332TIP3    H143487   3.102   0.059  14.604  0.5588 -0.7101 -0.0193
 7332TIP3    H243488   2.971   0.092  14.536 -0.0453  1.8958  2.3001
 7333TIP3   OH243489   2.833   4.130  15.496 -0.0423  0.3843  0.0363
 7333TIP3    H143490   2.804   4.211  15.456 -0.8563  0.6943  1.2335
 7333TIP3    H243491   2.789   4.127  15.581  1.8914 -0.0926  1.0682
 7334TIP3   OH243492   2.612   5.387   4.652 -0.4969 -0.1550  0.4495
 7334TIP3    H143493   2.542   5.332   4.616  0.2729  0.2937 -1.8412
 7334TIP3    H243494   2.605   5.469   4.602  2.2673 -0.4703 -0.5432
 7335TIP3   OH243495   3.008   1.260  16.925 -0.0913  0.9685 -0.0647
 7335TIP3    H143496   3.058   1.253  17.006  1.1230  0.7184 -0.8084
 7335TIP3    H243497   2.956   1.180  16.922  0.9613  0.2700 -0.2285
 7336TIP3   OH243498   5.686   4.917   3.403  0.0608  0.1729  0.4802
 7336TIP3    H143499   5.752   4.850   3.386 -1.6416 -1.5050  0.3473
 7336TIP3    H243500   5.617   4.872   3.451 -0.9694  1.9059  0.6910
 7337TIP3   OH243501   4.737   0.046   5.467 -0.9213  0.2506 -0.6370
 7337TIP3    H143502   4.772   0.026   5.380 -0.5783 -0.2719 -0.3833
 7337TIP3    H243503   4.715  -0.039   5.504  1.5213  0.2250  0.8663
 7338TIP3   OH243504   0.851   2.245   6.143 -0.8040  0.6646 -0.5594
 7338TIP3    H143505   0.852   2.339   6.128  0.4539  0.3188 -2.8895
 7338TIP3    H243506   0.852   2.207   6.055 -1.7913 -1.5201  0.3445
 7339TIP3   OH243507   0.714   0.834   5.480 -0.2131  0.3545  0.2699
 7339TIP3    H143508   0.792   0.846   5.426 -1.3415 -0.7457 -1.6530
 7339TIP3    H243509   0.748   0.808   5.566  1.5055 -1.3008 -0.8762
 7340TIP3   OH243510   1.856   5.624  15.787 -0.3700  0.8193  0.5145
 7340TIP3    H143511   1.814   5.601  15.870  1.9619 -0.3913  1.3885
 7340TIP3    H243512   1.922   5.689  15.810 -0.7232  1.6136 -0.6447
 7341TIP3   OH243513   3.429   5.223  10.657 -0.1296  0.0243 -0.3814
 7341TIP3    H143514   3.471   5.146  10.619  0.6718  0.7947 -1.0799
 7341TIP3    H243515   3.401   5.194  10.744  0.6905 -0.8758 -0.4043
 7342TIP3   OH243516   5.617   1.484   0.876 -0.1021 -0.1936 -0.0516
 7342TIP3    H143517   5.587   1.476   0.966  2.7086 -0.9439  0.8667
 7342TIP3    H243518   5.630   1.578   0.863  0.6663 -0.1741  0.7714
 7343TIP3   OH243519   3.851   0.193  17.141 -0.0661 -0.3678  0.0241
 7343TIP3    H143520   3.924   0.137  17.168 -0.9637 -1.9909 -0.8861
 7343TIP3    H243521   3.887   0.245  17.068  0.8457  0.4609  1.0463
 7344TIP3   OH243522   5.355   4.864  17.172  0.1010  0.0535  0.3152
 7344TIP3    H143523   5.286   4.888  17.109  0.9687  0.6988 -0.4001
 7344TIP3    H243524   5.308   4.851  17.254 -0.9017  0.3369 -0.1947
 7345TIP3   OH243525   0.962   1.268  13.783  0.0348  0.5408 -0.1137
 7345TIP3    H143526   0.921   1.216  13.713 -1.4824  0.0519  1.1273
 7345TIP3    H243527   1.052   1.235  13.786  0.3645  1.1299 -2.3778
 7346TIP3   OH243528   0.423   6.328   5.118  0.1299 -0.4181 -0.2882
 7346TIP3    H143529   0.365   6.285   5.181  0.8917 -0.2313  0.5457
 7346TIP3    H243530   0.507   6.333   5.163  0.3248  0.9573 -0.7950
 7347TIP3   OH243531   0.558   6.193   1.103  0.0233  0.0903 -0.2349
 7347TIP3    H143532   0.632   6.196   1.164 -2.0300  0.2479  2.3210
 7347TIP3    H243533   0.520   6.106   1.116 -0.8792  0.4105 -0.7417
 7348TIP3   OH243534   0.376   1.542  10.527  0.3354 -0.5462  0.3955
 7348TIP3    H143535   0.389   1.567  10.618 -0.4248  0.3509  0.2701
 7348TIP3    H243536   0.447   1.480  10.508  0.7099 -0.4535  1.4817
 7349TIP3   OH243537   1.386   1.927   5.704  0.2382 -0.2625 -0.6555
 7349TIP3    H143538   1.375   1.839   5.667 -2.3348 -0.3990  0.2829
 7349TIP3    H243539   1.398   1.984   5.628  0.0691 -1.2040 -1.3948
 7350TIP3   OH243540   2.082   4.063  10.829  0.5307  0.0193 -1.0743
 7350TIP3    H143541   2.023   4.112  10.772  1.8720  1.5579 -1.1803
 7350TIP3    H243542   2.032   4.051  10.910 -0.0526  1.0328 -1.2768
 7351TIP3   OH243543   4.326   3.438   6.021 -0.1138  0.5386  0.3409
 7351TIP3    H143544   4.295   3.420   6.110 -0.2392 -0.5015  0.0957
 7351TIP3    H243545   4.304   3.530   6.006 -2.7457 -0.0550  0.3294
 7352TIP3   OH243546   4.132   2.994  13.379  0.4432 -0.1832 -0.0978
 7352TIP3    H143547   4.213   2.977  13.330 -0.1603 -2.2930 -0.3863
 7352TIP3    H243548   4.072   3.029  13.313  0.1911 -1.3816 -0.5177
 7353TIP3   OH243549   5.412   6.175   5.442  0.1709  0.1104 -0.2374
 7353TIP3    H143550   5.391   6.163   5.534  0.1593  0.1534 -0.2343
 7353TIP3    H243551   5.499   6.136   5.432 -0.4083 -1.1378 -0.4981
 7354TIP3   OH243552   4.405   6.293   4.575  0.4529  0.3924  0.3869
 7354TIP3    H143553   4.417   6.370   4.631  0.1770  0.7820 -0.0902
 7354TIP3    H243554   4.439   6.220   4.627  4.0688  1.3059 -0.5671
 7355TIP3   OH243555   3.678   3.174   6.361 -0.3774 -0.1043 -0.3683
 7355TIP3    H143556   3.682   3.158   6.267  1.5762 -0.4152 -0.2570
 7355TIP3    H243557   3.634   3.259   6.369  0.6140  0.5510 -1.6360
 7356TIP3   OH243558   2.675   1.393  14.717 -0.3971  0.2623 -0.1702
 7356TIP3    H143559   2.745   1.347  14.672 -1.0176 -0.5024 -0.3592
 7356TIP3    H243560   2.674   1.480  14.678 -0.4765 -0.1766 -1.1466
 7357TIP3   OH243561   6.450   2.976  13.081 -0.4798 -0.8028 -0.3659
 7357TIP3    H143562   6.396   3.054  13.092  1.2773  0.2669  1.0283
 7357TIP3    H243563   6.403   2.907  13.126 -1.1465 -0.1081  0.0062
 7358TIP3   OH243564   4.229   3.984  13.404 -0.3515  0.0490  0.0809
 7358TIP3    H143565   4.135   3.999  13.398 -0.4007 -0.0971  0.4689
 7358TIP3    H243566   4.264   4.066  13.439 -0.4058 -0.1015  0.4922
 7359TIP3   OH243567   5.460   0.135   1.653 -0.2759 -0.0386  0.3430
 7359TIP3    H143568   5.512   0.072   1.602 -0.5387 -1.0334  1.2844
 7359TIP3    H243569   5.372   0.098   1.655 -0.5921  0.6980  0.3494
 7360TIP3   OH243570   4.589   4.689  10.605 -0.5528 -0.3461  0.3642
 7360TIP3    H143571   4.547   4.775  10.604  0.7994  0.3279 -0.4446
 7360TIP3    H243572   4.677   4.706  10.572  0.3732 -1.7168  2.0951
 7361TIP3   OH243573   4.721   0.895   1.702 -0.0426  0.4858 -0.1732
 7361TIP3    H143574   4.788   0.926   1.763  0.1250  1.4119 -0.8143
 7361TIP3    H243575   4.731   0.800   1.702  0.4573  0.5288  0.6601
 7362TIP3   OH243576   0.507   1.409  15.000 -0.3788 -0.1050 -0.0356
 7362TIP3    H143577   0.560   1.334  14.972 -1.3524 -0.7482 -0.1606
 7362TIP3    H243578   0.526   1.478  14.936 -1.4755 -1.0922 -1.4484
 7363TIP3   OH243579   5.640   0.999  16.155  0.1478  0.3760  0.0676
 7363TIP3    H143580   5.585   1.058  16.205  0.4442 -0.7957  1.8258
 7363TIP3    H243581   5.596   0.914  16.162  2.4944 -0.7383  2.0929
 7364TIP3   OH243582   1.057   6.486  17.213  0.1544 -0.5377  0.0617
 7364TIP3    H143583   1.029   6.395  17.225  0.0897 -0.6842 -1.0990
 7364TIP3    H243584   1.012   6.514  17.133  1.8702 -0.1805 -0.7987
 7365TIP3   OH243585   4.877   5.652   5.009 -0.4850  0.0761  0.2489
 7365TIP3    H143586   4.843   5.735   4.974  1.6430  0.3762 -1.2217
 7365TIP3    H243587   4.918   5.677   5.092  2.3675  1.0252 -1.3579
 7366TIP3   OH243588   4.616   0.312   6.244  0.5933 -0.4246  0.5817
 7366TIP3    H143589   4.649   0.312   6.154  1.7797 -0.1155  1.0080
 7366TIP3    H243590   4.584   0.401   6.258 -2.1621 -1.1864 -0.4283
 7367TIP3   OH243591   4.724   6.641   0.161  0.3190  0.2308  0.2579
 7367TIP3    H143592   4.768   6.572   0.112  0.2688  0.5629 -0.2585
 7367TIP3    H243593   4.722   6.609   0.252  0.3176 -0.4303  0.0257
 7368TIP3   OH243594   3.730   1.803  16.801 -0.5031  0.4038  0.3302
 7368TIP3    H143595   3.822   1.819  16.779 -0.3009 -0.8725  0.2553
 7368TIP3    H243596   3.723   1.829  16.893 -0.1373  0.7928  0.2503
 7369TIP3   OH243597   3.985   3.066   2.219  0.0537 -0.1361 -0.5094
 7369TIP3    H143598   3.993   2.993   2.158 -1.3539  0.7735 -1.7909
 7369TIP3    H243599   4.063   3.119   2.203  2.0487 -2.2394  1.6960
 7370TIP3   OH243600   6.364   1.368   2.688  0.2661 -0.5551 -0.2189
 7370TIP3    H143601   6.322   1.290   2.723 -1.4081 -0.6445 -2.3200
 7370TIP3    H243602   6.334   1.439   2.745 -0.5407 -1.0242 -0.0494
 7371TIP3   OH243603   3.408   6.127   1.356 -0.1289 -0.4489 -0.1834
 7371TIP3    H143604   3.403   6.197   1.420  0.2022 -0.2346 -0.3897
 7371TIP3    H243605   3.496   6.091   1.367 -0.3594 -0.9464  0.0415
 7372TIP3   OH243606   3.924   0.843  11.491  0.2670  0.1603 -0.2132
 7372TIP3    H143607   3.914   0.822  11.584 -0.5289  0.1632 -0.2977
 7372TIP3    H243608   3.962   0.764  11.453 -0.8679 -0.4147 -0.1645
 7373TIP3   OH243609   1.297   3.101  10.863  0.3980 -0.2696 -0.1072
 7373TIP3    H143610   1.212   3.069  10.893  0.5567  0.0777  0.7352
 7373TIP3    H243611   1.285   3.118  10.770 -0.2026 -1.0529 -0.1754
 7374TIP3   OH243612   0.309   4.862  11.765 -0.7213  0.2952 -0.0665
 7374TIP3    H143613   0.231   4.810  11.785 -0.6726  0.0712 -0.4573
 7374TIP3    H243614   0.360   4.860  11.846 -0.2805 -1.0315 -0.3706
 7375TIP3   OH243615   3.171   5.660   0.938 -0.2057 -0.0800 -0.2546
 7375TIP3    H143616   3.119   5.629   0.864 -0.0557 -0.7573 -0.0774
 7375TIP3    H243617   3.254   5.687   0.899 -1.4962  3.2021 -0.8725
 7376TIP3   OH243618   0.628   6.241  16.092  0.3709  0.2695 -0.0859
 7376TIP3    H143619   0.556   6.190  16.129  0.9667  0.6940  1.7215
 7376TIP3    H243620   0.691   6.175  16.062  1.0399 -0.1024  2.0408
 7377TIP3   OH243621   5.608   2.108   4.967 -0.1014  0.1607  0.5626
 7377TIP3    H143622   5.614   2.066   4.881  1.0960 -0.6082  1.0063
 7377TIP3    H243623   5.545   2.055   5.016 -0.5954  0.4509  0.2413
 7378TIP3   OH243624   5.444   6.055  12.716  0.0910  0.0284  0.0432
 7378TIP3    H143625   5.449   6.151  12.715 -0.1532  0.0400 -1.1016
 7378TIP3    H243626   5.536   6.027  12.716  0.1638  0.2597 -0.0664
 7379TIP3   OH243627   1.139   4.650   0.628 -0.0213  0.2846  0.0906
 7379TIP3    H143628   1.193   4.723   0.597 -0.9113  0.4485 -1.1267
 7379TIP3    H243629   1.197   4.574   0.625  0.4441  0.6466 -0.1790
 7380TIP3   OH243630   0.727   1.522  15.766  0.5364  0.1800 -0.5126
 7380TIP3    H143631   0.646   1.544  15.812 -0.7871 -1.8150 -1.7807
 7380TIP3    H243632   0.756   1.605  15.727 -0.2325  1.1594  0.9653
 7381TIP3   OH243633   1.561   0.532   0.251  0.0519 -0.1677 -0.0731
 7381TIP3    H143634   1.475   0.547   0.211  0.6680  0.3291 -1.2431
 7381TIP3    H243635   1.549   0.555   0.343 -0.4498  2.4006 -0.7283
 7382TIP3   OH243636   5.633   3.474  14.525  0.0163 -0.5003 -0.1449
 7382TIP3    H143637   5.703   3.417  14.557  0.5471  0.6281  0.7547
 7382TIP3    H243638   5.641   3.554  14.578 -0.9793  0.2408 -1.0859
 7383TIP3   OH243639   2.419   3.542   3.582  0.4941 -0.8699 -0.2573
 7383TIP3    H143640   2.424   3.621   3.637  1.3559 -0.9217 -0.2524
 7383TIP3    H243641   2.410   3.576   3.493 -2.0395 -0.7936  0.0050
 7384TIP3   OH243642   3.617   1.835   4.749 -0.1608  0.2158  0.2791
 7384TIP3    H143643   3.627   1.816   4.842 -0.5080  1.5807  0.6023
 7384TIP3    H243644   3.524   1.819   4.731 -0.3219  0.9842  0.4122
 7385TIP3   OH243645   6.775   6.083  13.629 -0.1574  0.9727 -0.2057
 7385TIP3    H143646   6.733   5.999  13.614 -1.8771  1.5935  0.9416
 7385TIP3    H243647   6.715   6.147  13.591  0.3686  1.7821  0.3006
 7386TIP3   OH243648   5.954   5.672   2.439  0.2010 -0.1432 -0.3662
 7386TIP3    H143649   5.859   5.668   2.435  0.1173  1.6143 -0.6428
 7386TIP3    H243650   5.982   5.667   2.348  0.3644 -0.4829 -0.2978
 7387TIP3   OH243651   3.389   1.040  14.625 -0.2833 -0.5330 -0.1533
 7387TIP3    H143652   3.416   0.982  14.696  0.5481  0.1619  0.1127
 7387TIP3    H243653   3.465   1.044  14.566  0.0325  1.0275  0.3299
 7388TIP3   OH243654   1.881   6.373  14.381 -0.6106 -0.0311  0.1443
 7388TIP3    H143655   1.870   6.447  14.321  0.0998 -0.6081 -0.6967
 7388TIP3    H243656   1.794   6.363  14.421 -1.2142  0.0946 -1.0920
 7389TIP3   OH243657   5.947   5.070  13.738 -0.0989  0.0085 -0.0849
 7389TIP3    H143658   5.924   5.107  13.823  0.3383 -1.1124  0.5296
 7389TIP3    H243659   5.955   5.146  13.680 -1.0302  0.7314  0.7152
 7390TIP3   OH243660   2.857   3.780   1.194  0.1834 -0.5265  0.2696
 7390TIP3    H143661   2.854   3.813   1.284 -0.4075 -3.4059  1.3574
 7390TIP3    H243662   2.946   3.748   1.183 -0.3425 -2.1074  0.5605
 7391TIP3   OH243663   3.975   2.850  12.466 -0.0815  0.0043 -0.0644
 7391TIP3    H143664   4.053   2.906  12.465  1.1054 -1.6088  0.3722
 7391TIP3    H243665   3.968   2.820  12.557 -0.9215 -0.2722 -0.2130
 7392TIP3   OH243666   3.797   0.546   2.007 -0.4221 -0.2595  0.2684
 7392TIP3    H143667   3.745   0.530   2.085 -0.3842  1.0423  0.5727
 7392TIP3    H243668   3.885   0.516   2.029 -0.9919 -2.3682 -0.2105
 7393TIP3   OH243669   3.606   2.765  14.523  0.1257 -0.4255 -1.1141
 7393TIP3    H143670   3.537   2.829  14.505 -0.6209 -0.7544  0.4426
 7393TIP3    H243671   3.619   2.720  14.440  1.8726  2.8448 -2.7094
 7394TIP3   OH243672   4.763   5.368   3.936 -0.2278  0.0761  0.0497
 7394TIP3    H143673   4.695   5.419   3.979  0.3531  0.9506 -0.0550
 7394TIP3    H243674   4.838   5.373   3.995 -0.5175 -1.6066  0.5802
 7395TIP3   OH243675   0.185   1.516  14.221 -0.4993 -0.4678 -0.0728
 7395TIP3    H143676   0.090   1.505  14.210 -0.1864 -1.7948 -1.5995
 7395TIP3    H243677   0.223   1.480  14.141  1.2942  0.2721  0.4224
 7396TIP3   OH243678   1.736   4.704  17.038 -0.8928  0.0293  0.2592
 7396TIP3    H143679   1.765   4.672  16.952  0.2136  0.0575  0.6063
 7396TIP3    H243680   1.765   4.637  17.099 -2.2973 -0.3232  0.5362
 7397TIP3   OH243681   5.521   6.601   1.590 -0.0140 -0.0917 -0.6957
 7397TIP3    H143682   5.552   6.513   1.567 -0.9919  0.0673 -2.7525
 7397TIP3    H243683   5.427   6.599   1.571 -0.8707  0.1839  3.1162
 7398TIP3   OH243684   1.064   3.705  11.981  0.2255  0.0236  0.1011
 7398TIP3    H143685   1.002   3.654  12.033  1.6661 -1.5859  0.2928
 7398TIP3    H243686   1.009   3.757  11.922 -1.3257 -0.4303  1.1187
 7399TIP3   OH243687   4.468   4.203   0.090  0.0195 -0.3673 -0.1802
 7399TIP3    H143688   4.527   4.278   0.098  1.7122 -1.7181  0.3770
 7399TIP3    H243689   4.523   4.127   0.112 -1.4704 -1.8321 -1.3741
 7400TIP3   OH243690   0.231   6.673   5.757 -0.2029  0.2680  0.4707
 7400TIP3    H143691   0.282   6.753   5.745 -0.4578  0.1425 -1.4838
 7400TIP3    H243692   0.180   6.690   5.837 -0.8836  2.4097 -0.3729
 7401TIP3   OH243693   0.871   6.744  16.234  0.5835  0.0864 -0.0140
 7401TIP3    H143694   0.778   6.744  16.253  0.1335 -0.0954 -2.1207
 7401TIP3    H243695   0.911   6.791  16.308 -1.1112 -0.1967  1.0904
 7402TIP3   OH243696   6.310   6.396   3.563 -0.6208 -0.1691 -0.8546
 7402TIP3    H143697   6.389   6.451   3.559 -0.3164 -0.6170 -1.0588
 7402TIP3    H243698   6.256   6.427   3.489 -1.0467  0.7461 -0.1737
 7403TIP3   OH243699   3.431   3.218   4.506  0.1378  0.6130  0.3274
 7403TIP3    H143700   3.416   3.305   4.469 -2.0578  0.1215  0.0443
 7403TIP3    H243701   3.503   3.232   4.568 -1.2606  2.9861  1.5166
 7404TIP3   OH243702   6.718   2.878   1.226 -0.5482 -0.2662  0.2638
 7404TIP3    H143703   6.668   2.940   1.172  0.9130  1.0042  0.3408
 7404TIP3    H243704   6.782   2.932   1.271 -0.1342 -1.6723  1.3921
 7405TIP3   OH243705   3.563   3.778   6.720 -0.2397 -0.2517 -0.7439
 7405TIP3    H143706   3.518   3.709   6.671 -2.3203  0.9053 -0.5253
 7405TIP3    H243707   3.576   3.741   6.807 -0.3197 -0.7837 -0.9553
 7406TIP3   OH243708   5.372   4.951   2.055  0.0165  0.3689 -0.1307
 7406TIP3    H143709   5.335   4.948   1.967 -2.3998  0.1053  0.8507
 7406TIP3    H243710   5.443   4.886   2.054 -0.5805 -0.2608 -1.6190
 7407TIP3   OH243711   2.489   5.021  14.313  0.0944 -0.1057  0.4451
 7407TIP3    H143712   2.454   4.936  14.343  1.1101 -0.3682  0.9014
 7407TIP3    H243713   2.505   5.069  14.394  0.7770  0.0196  0.2331
 7408TIP3   OH243714   3.577   2.950  12.153  0.4847 -0.1422  0.1846
 7408TIP3    H143715   3.664   2.933  12.189  0.0877 -1.3103  0.6031
 7408TIP3    H243716   3.522   2.880  12.188 -0.5079  0.2810 -0.5054
 7409TIP3   OH243717   4.757   2.498   1.855  0.4379  0.3771 -0.1885
 7409TIP3    H143718   4.822   2.434   1.827  1.7512  0.4809  2.4650
 7409TIP3    H243719   4.780   2.518   1.945 -3.1140  0.6686  0.7305
 7410TIP3   OH243720   3.590   3.747  13.003  0.7872 -0.1384 -0.0732
 7410TIP3    H143721   3.569   3.658  12.975 -0.2652  0.5387 -1.5611
 7410TIP3    H243722   3.543   3.757  13.086  0.4408 -0.7882 -0.1810
 7411TIP3   OH243723   4.290   6.767   6.429  0.4513 -0.0597 -0.4336
 7411TIP3    H143724   4.356   6.813   6.378  0.7952  0.7288  0.6870
 7411TIP3    H243725   4.341   6.709   6.487  0.0774 -0.8374 -0.8751
 7412TIP3   OH243726   6.648   3.626  13.439 -0.3541  0.1207 -0.1264
 7412TIP3    H143727   6.612   3.624  13.528 -1.0714  1.7888 -0.3579
 7412TIP3    H243728   6.680   3.716  13.428  0.4520 -0.2981 -1.2772
 7413TIP3   OH243729   0.171   0.267  17.145  0.3401 -0.3496  0.2173
 7413TIP3    H143730   0.116   0.194  17.172 -1.1496  0.7178  0.0835
 7413TIP3    H243731   0.249   0.260  17.201 -1.1368 -0.2464  2.3076
 7414TIP3   OH243732   5.251   2.723  14.790  0.3802  0.7178  0.5369
 7414TIP3    H143733   5.181   2.657  14.788 -1.6602  2.8452 -0.2881
 7414TIP3    H243734   5.255   2.756  14.701 -0.5775  3.6526  1.5204
 7415TIP3   OH243735   5.493   0.473  13.696  0.8819  0.1103  0.3920
 7415TIP3    H143736   5.531   0.434  13.775  0.6739 -1.2910 -0.1754
 7415TIP3    H243737   5.537   0.429  13.624  0.5743  0.8859 -0.2778
 7416TIP3   OH243738   5.470   5.042  10.488 -0.7010 -0.1833 -0.0545
 7416TIP3    H143739   5.384   5.083  10.483 -0.7823 -0.1054  1.5570
 7416TIP3    H243740   5.524   5.092  10.427 -0.5488  2.9785  2.5119
 7417TIP3   OH243741   4.539   5.491  16.898 -0.0918  0.4638 -0.2087
 7417TIP3    H143742   4.573   5.551  16.832  0.3223 -0.4287 -0.8081
 7417TIP3    H243743   4.617   5.452  16.937 -0.3453  0.6929  0.5443
 7418TIP3   OH243744   2.505   6.713   5.476  0.1557 -0.0297  0.0819
 7418TIP3    H143745   2.450   6.639   5.504 -0.7868  0.4295 -0.5094
 7418TIP3    H243746   2.446   6.788   5.476  1.4735  1.0359  2.1436
 7419TIP3   OH243747   0.576   2.661   0.810  0.1458 -0.3250  0.2038
 7419TIP3    H143748   0.583   2.594   0.877 -1.9416 -1.1451 -0.3616
 7419TIP3    H243749   0.498   2.711   0.834 -0.4695 -0.4653 -1.4411
 7420TIP3   OH243750   2.701   4.764  16.030 -0.0282 -0.0857 -0.0235
 7420TIP3    H143751   2.639   4.835  16.014 -0.2808  0.0362  1.4100
 7420TIP3    H243752   2.652   4.700  16.081  0.9500 -0.0826  0.9590
 7421TIP3   OH243753   1.491   3.889  13.895 -0.0511 -0.0471  0.8296
 7421TIP3    H143754   1.416   3.908  13.951  1.2253  0.8147  2.2813
 7421TIP3    H243755   1.505   3.970  13.846 -0.7442 -0.5792 -0.2865
 7422TIP3   OH243756   5.434   1.901   3.302 -0.2098 -0.0209  0.9308
 7422TIP3    H143757   5.413   1.889   3.209 -0.0289 -1.1507  1.0349
 7422TIP3    H243758   5.349   1.915   3.344 -0.3594 -0.2809  0.7122
 7423TIP3   OH243759   5.460   4.065  14.947 -0.0906 -0.3610 -0.2242
 7423TIP3    H143760   5.503   3.989  14.906  2.8998  0.2910  1.5723
 7423TIP3    H243761   5.497   4.141  14.902  0.6249  0.2203  1.3189
 7424TIP3   OH243762   0.145   2.468  11.701  0.2089 -0.3568  0.0613
 7424TIP3    H143763   0.171   2.399  11.641  0.1014 -0.2184 -0.1440
 7424TIP3    H243764   0.218   2.530  11.700 -0.0323 -0.0821 -0.3423
 7425TIP3   OH243765   2.218   2.959  14.344 -0.5474 -0.2258  0.1371
 7425TIP3    H143766   2.167   2.892  14.297 -0.9028 -0.1339  0.3913
 7425TIP3    H243767   2.269   2.910  14.408 -1.0190 -0.2292  0.5134
 7426TIP3   OH243768   2.557   3.691  11.027 -0.3228 -0.1362 -0.6957
 7426TIP3    H143769   2.555   3.751  10.952 -0.2577  0.1761 -0.4484
 7426TIP3    H243770   2.650   3.682  11.047 -0.1564 -2.1171 -2.1585
 7427TIP3   OH243771   4.863   3.631  15.384  0.0995 -1.1407 -0.2963
 7427TIP3    H143772   4.890   3.540  15.376 -0.7513 -1.4024 -0.2185
 7427TIP3    H243773   4.804   3.646  15.310  0.2657 -0.6419 -0.3326
 7428TIP3   OH243774   3.598   6.776  11.324  0.2739  0.3993 -0.0371
 7428TIP3    H143775   3.689   6.803  11.328  0.2908  0.5362 -1.2669
 7428TIP3    H243776   3.554   6.847  11.278 -0.3391  0.0381 -0.0178
 7429TIP3   OH243777   4.399   6.097   1.960  0.0145 -0.5445  0.6481
 7429TIP3    H143778   4.430   6.138   1.879  0.0373 -0.1778  0.8371
 7429TIP3    H243779   4.333   6.034   1.932 -1.5522  1.0953  0.4912
 7430TIP3   OH243780   2.693   0.036  16.337  0.0748 -0.2645  0.4421
 7430TIP3    H143781   2.753   0.106  16.310  0.6015 -0.6210  0.6841
 7430TIP3    H243782   2.747  -0.043  16.337 -0.2395 -0.4813  1.2755
 7431TIP3   OH243783   4.522   2.764   5.998 -0.1140  0.1627 -0.2375
 7431TIP3    H143784   4.460   2.741   6.067 -0.7826  0.8732 -0.6009
 7431TIP3    H243785   4.477   2.742   5.917  0.0759  0.7758 -0.5084
 7432TIP3   OH243786   2.119   4.967  13.189 -0.4316  0.3424  0.4194
 7432TIP3    H143787   2.177   4.981  13.114 -0.5216  1.6611  0.5881
 7432TIP3    H243788   2.173   4.919  13.252 -0.1239 -0.1150 -0.1885
 7433TIP3   OH243789   2.655   1.382  13.684 -0.1978  0.4616 -0.4154
 7433TIP3    H143790   2.705   1.335  13.616 -2.5741 -1.1378 -1.1265
 7433TIP3    H243791   2.673   1.333  13.764  0.0366  0.3759 -0.5184
 7434TIP3   OH243792   6.080   3.405   1.677  0.2353 -0.8128 -0.0035
 7434TIP3    H143793   6.132   3.346   1.731 -0.0323 -0.2814  0.8384
 7434TIP3    H243794   6.063   3.481   1.733 -0.2341 -0.3528 -0.7550
 7435TIP3   OH243795   2.252   5.318   2.668  0.0659 -0.9519  0.3280
 7435TIP3    H143796   2.273   5.360   2.585 -0.9549 -1.3618 -0.1427
 7435TIP3    H243797   2.299   5.370   2.733  0.8928 -0.6424 -0.4993
 7436TIP3   OH243798   1.509   2.284   3.163  0.1298  0.2255  0.6726
 7436TIP3    H143799   1.557   2.202   3.174 -0.3481  0.1812  2.6669
 7436TIP3    H243800   1.449   2.268   3.091  0.4024 -1.0058  0.7043
 7437TIP3   OH243801   5.163   3.915   1.024 -0.1149  0.6509 -0.0476
 7437TIP3    H143802   5.157   3.934   1.117  2.0566 -1.7546  0.6404
 7437TIP3    H243803   5.256   3.900   1.008 -0.4984  0.6364 -2.5163
 7438TIP3   OH243804   0.741   2.062  14.978  0.7495  0.0861  0.5611
 7438TIP3    H143805   0.756   1.989  14.918 -1.0338 -1.7175  2.2386
 7438TIP3    H243806   0.806   2.049  15.047  0.5049  0.1299  0.8012
 7439TIP3   OH243807   0.031   4.917  15.585 -0.0798  0.2049  0.3587
 7439TIP3    H143808   0.004   4.945  15.498  1.6959  0.2197 -0.2160
 7439TIP3    H243809   0.036   4.822  15.580  0.2523  0.2207  0.3766
 7440TIP3   OH243810   5.562   5.741  12.533  0.2608  0.1046  0.2784
 7440TIP3    H143811   5.478   5.729  12.576 -0.1756  0.3062 -0.4968
 7440TIP3    H243812   5.619   5.780  12.600 -0.2869  0.0352  0.7788
 7441TIP3   OH243813   5.065   3.153   4.950 -0.1243  0.5880 -0.1262
 7441TIP3    H143814   5.041   3.172   5.041  0.2519  1.3821 -0.1900
 7441TIP3    H243815   5.037   3.230   4.902  1.0250  0.7965 -0.4656
 7442TIP3   OH243816   3.954   2.497   3.891  0.1715  0.3479  0.0722
 7442TIP3    H143817   3.862   2.471   3.891  0.3131 -0.2410 -2.4534
 7442TIP3    H243818   4.003   2.415   3.892  0.6336  0.5941 -0.9359
 7443TIP3   OH243819   4.877   4.087  17.255 -0.3033  0.2962 -0.0916
 7443TIP3    H143820   4.807   4.140  17.216 -0.6266  0.7031  1.0311
 7443TIP3    H243821   4.958   4.132  17.230 -0.5801  1.3759  0.9264
 7444TIP3   OH243822   4.619   3.600   3.070 -0.3348  0.7331  0.2682
 7444TIP3    H143823   4.637   3.599   3.164 -2.3855 -1.3134  0.6687
 7444TIP3    H243824   4.702   3.577   3.029  0.4460  1.1709  1.5916
 7445TIP3   OH243825   6.167   5.843   2.914  0.2223 -0.7873  0.2802
 7445TIP3    H143826   6.081   5.841   2.955  0.5716 -0.3720  1.0457
 7445TIP3    H243827   6.221   5.897   2.972  0.2634  1.3096 -1.6009
 7446TIP3   OH243828   1.670   5.686  13.446  0.0293 -0.5124 -0.2810
 7446TIP3    H143829   1.659   5.781  13.441 -0.7102 -0.6779 -2.2465
 7446TIP3    H243830   1.591   5.651  13.405 -0.0098 -1.9861  1.0600
 7447TIP3   OH243831   6.333   5.356  14.147  0.8207 -0.1349 -0.6729
 7447TIP3    H143832   6.258   5.399  14.189  0.9918  0.5664 -1.0742
 7447TIP3    H243833   6.371   5.301  14.216  1.4075  1.3997  0.2576
 7448TIP3   OH243834   3.349   0.179   6.068  0.1612  0.3354 -0.2216
 7448TIP3    H143835   3.418   0.123   6.033  0.8712  0.8424  0.3748
 7448TIP3    H243836   3.319   0.134   6.147  3.5877  2.8055  2.6359
 7449TIP3   OH243837   3.503   0.859   6.108  0.2700 -1.1813  0.5988
 7449TIP3    H143838   3.480   0.920   6.178 -0.3317 -1.3472  0.5454
 7449TIP3    H243839   3.420   0.821   6.081  0.5480 -1.4114  0.0621
 7450TIP3   OH243840   5.651   6.464  13.874 -0.1148 -0.3739 -0.1982
 7450TIP3    H143841   5.637   6.442  13.966  0.3524 -3.6232 -0.8714
 7450TIP3    H243842   5.565   6.492  13.843 -0.5158 -0.3118  0.9378
 7451TIP3   OH243843   1.381   4.686  15.661 -0.1150  0.1392  0.3145
 7451TIP3    H143844   1.452   4.636  15.621  0.0060 -0.5789  1.4008
 7451TIP3    H243845   1.425   4.761  15.702 -0.0829  0.1626  0.2372
 7452TIP3   OH243846   2.305   1.955  12.970 -0.4671  0.6123 -0.3463
 7452TIP3    H143847   2.321   1.871  12.927 -1.9514  0.0117  0.2162
 7452TIP3    H243848   2.380   2.009  12.947  0.5610 -0.9013 -0.6553
 7453TIP3   OH243849   4.724   2.252   6.222 -0.6537  1.0622 -0.6282
 7453TIP3    H143850   4.708   2.303   6.142 -0.5147  0.4712 -1.0318
 7453TIP3    H243851   4.640   2.254   6.269 -0.3715  2.4945 -0.1676
 7454TIP3   OH243852   3.094   1.219  12.513  0.2568 -0.3621  0.7938
 7454TIP3    H143853   3.022   1.255  12.564 -0.6551 -0.5870 -0.3064
 7454TIP3    H243854   3.052   1.157  12.453  1.1620  0.5825 -0.8492
 7455TIP3   OH243855   3.942   1.213  13.235 -0.9316 -0.2336 -0.5245
 7455TIP3    H143856   4.001   1.174  13.170  2.2069  1.4776  1.1744
 7455TIP3    H243857   3.954   1.159  13.313  0.2705  1.5130  0.5525
 7456TIP3   OH243858   2.550   2.346   5.329 -0.0285 -0.2923 -0.4544
 7456TIP3    H143859   2.629   2.340   5.275  0.7212  1.3523  0.4351
 7456TIP3    H243860   2.583   2.350   5.419 -1.1818 -0.5855 -0.0059
 7457TIP3   OH243861   0.656   4.314  14.160 -0.5245  0.4636 -0.3648
 7457TIP3    H143862   0.732   4.370  14.178 -0.7164  0.3032  1.0138
 7457TIP3    H243863   0.690   4.225  14.167 -0.4500  0.4034 -1.5133
 7458TIP3   OH243864   1.665   0.802  10.927 -0.1492  0.4055 -0.1710
 7458TIP3    H143865   1.745   0.764  10.963  0.1345  2.1501  1.1227
 7458TIP3    H243866   1.597   0.737  10.946  0.7531 -0.5517 -0.2038
 7459TIP3   OH243867   2.082   6.441   0.779 -0.1727  0.1215 -0.1228
 7459TIP3    H143868   2.170   6.471   0.754 -0.5501  0.9947 -0.3930
 7459TIP3    H243869   2.047   6.510   0.834 -0.2797 -0.7274  0.9036
 7460TIP3   OH243870   2.171   4.851   3.607  0.0102  0.1647  0.5526
 7460TIP3    H143871   2.078   4.850   3.630  0.5092  0.1101  2.5939
 7460TIP3    H243872   2.194   4.759   3.594  0.0248  0.1011  1.0387
 7461TIP3   OH243873   1.548   3.392  15.176  0.3246  0.2483  0.2551
 7461TIP3    H143874   1.523   3.481  15.151  1.6094  0.1619 -1.4053
 7461TIP3    H243875   1.466   3.352  15.207 -0.5851  1.4921 -0.4939
 7462TIP3   OH243876   4.959   2.542  12.731  0.2113 -0.1419  0.1555
 7462TIP3    H143877   4.878   2.571  12.772  0.4159  0.6311  0.0112
 7462TIP3    H243878   4.936   2.460  12.687 -0.1341 -0.7082  1.3653
 7463TIP3   OH243879   5.576   2.098  14.613  0.4205  0.0931 -1.1427
 7463TIP3    H143880   5.668   2.076  14.597 -0.5200 -3.0707 -2.7392
 7463TIP3    H243881   5.549   2.148  14.536  0.6144  0.3421 -1.0457
 7464TIP3   OH243882   4.412   4.438  15.589 -0.5110  0.2353  0.3101
 7464TIP3    H143883   4.442   4.490  15.514  1.1500 -0.5285  0.4325
 7464TIP3    H243884   4.394   4.503  15.657 -0.9973  0.8513 -0.3977
 7465TIP3   OH243885   2.291   5.533  14.047 -0.6041 -0.2948 -0.1699
 7465TIP3    H143886   2.236   5.604  14.081  0.2633 -0.0460  0.7357
 7465TIP3    H243887   2.229   5.465  14.021 -1.3960  0.4284 -0.2166
 7466TIP3   OH243888   3.131   4.278  15.866 -0.4529  0.3982  0.6422
 7466TIP3    H143889   3.081   4.359  15.864 -1.0116  0.0375 -0.1045
 7466TIP3    H243890   3.102   4.234  15.946 -0.6817  0.5974  0.6684
 7467TIP3   OH243891   2.327   4.314   4.796 -1.0032  0.0146  0.2737
 7467TIP3    H143892   2.240   4.274   4.790 -0.7317 -0.4242 -0.8642
 7467TIP3    H243893   2.311   4.402   4.831 -1.7932 -0.4297  1.0622
 7468TIP3   OH243894   5.269   2.867   6.889 -0.2387 -0.4042  0.3555
 7468TIP3    H143895   5.285   2.783   6.932 -0.6118 -0.7640 -0.2032
 7468TIP3    H243896   5.176   2.885   6.903  0.0884  0.4979  1.4910
 7469TIP3   OH243897   6.698   4.061   3.362 -0.1156 -0.2130 -0.3237
 7469TIP3    H143898   6.758   4.069   3.289 -0.1179  0.7169 -0.2371
 7469TIP3    H243899   6.754   4.054   3.439 -0.0909  1.2182 -0.1849
 7470TIP3   OH243900   1.932   3.134  11.768  0.2192 -0.4681 -0.0532
 7470TIP3    H143901   1.981   3.212  11.793  0.1324 -0.2274 -0.6281
 7470TIP3    H243902   1.991   3.061  11.788  0.1256 -0.2882  0.9150
 7471TIP3   OH243903   5.189   6.477  12.333 -0.0139  0.9510 -0.0392
 7471TIP3    H143904   5.273   6.449  12.297  0.3862  1.1047  0.7665
 7471TIP3    H243905   5.125   6.453  12.266  0.4960 -0.4966 -0.0396
 7472TIP3   OH243906   3.162   2.838   6.312  0.0283  0.0706 -0.0490
 7472TIP3    H143907   3.128   2.766   6.365 -1.2460  0.8279  0.2066
 7472TIP3    H243908   3.225   2.798   6.253 -1.7831 -1.5168 -0.9593
 7473TIP3   OH243909   4.250   0.137   0.261 -0.1533  0.2027  0.2393
 7473TIP3    H143910   4.158   0.142   0.289 -0.8186 -0.6492 -1.7536
 7473TIP3    H243911   4.270   0.226   0.232 -0.5592  0.2322  0.0402
 7474TIP3   OH243912   1.794   6.397  13.053  0.2943 -0.2986 -0.0936
 7474TIP3    H143913   1.747   6.329  13.100 -1.1022  2.0683  2.0901
 7474TIP3    H243914   1.887   6.378  13.071 -0.0996 -1.2523  1.0234
 7475TIP3   OH243915   0.439   2.762   2.110  0.2376  0.0570 -0.1660
 7475TIP3    H143916   0.385   2.832   2.147 -2.7576 -0.9050 -2.4776
 7475TIP3    H243917   0.501   2.807   2.054  0.1080  1.0477  0.4735
 7476TIP3   OH243918   6.224   3.329  14.140 -0.1803  0.0670 -0.1414
 7476TIP3    H143919   6.266   3.256  14.186 -0.6437  0.7223  1.3613
 7476TIP3    H243920   6.281   3.404  14.160  0.1086  0.1822 -1.3959
 7477TIP3   OH243921   0.966   6.440   0.327  0.4730  0.9827 -0.2837
 7477TIP3    H143922   0.872   6.443   0.310  0.7278  0.5301 -1.8472
 7477TIP3    H243923   0.976   6.373   0.394 -0.5737  2.8738  1.8313
 7478TIP3   OH243924   5.845   3.971  14.886  0.4448  0.1138  0.1217
 7478TIP3    H143925   5.868   3.997  14.796 -0.4224 -1.0540 -0.4505
 7478TIP3    H243926   5.923   3.923  14.917  0.3150 -0.4607 -0.4219
 7479TIP3   OH243927   5.569   0.061  13.225  0.3659  0.7923  0.1576
 7479TIP3    H143928   5.510  -0.014  13.212  2.1888 -0.3622 -1.8571
 7479TIP3    H243929   5.519   0.136  13.192 -0.2560 -0.0640 -0.9085
 7480TIP3   OH243930   4.238   1.661  13.932  0.0337 -0.1292 -0.3697
 7480TIP3    H143931   4.305   1.717  13.971 -1.2703  1.1451  0.0785
 7480TIP3    H243932   4.156   1.694  13.967 -0.8194 -1.9032 -0.6322
 7481TIP3   OH243933   6.260   4.659  13.235 -0.0676  0.8158 -0.1038
 7481TIP3    H143934   6.250   4.632  13.144  1.2835 -3.4178  0.8952
 7481TIP3    H243935   6.187   4.617  13.281 -0.0678  1.9678  0.9781
 7482TIP3   OH243936   1.302   1.635  13.746 -0.2226  0.1225  0.1413
 7482TIP3    H143937   1.213   1.602  13.759 -0.2753  0.1616 -0.1131
 7482TIP3    H243938   1.294   1.695  13.672 -0.2087  1.0304  0.8615
 7483TIP3   OH243939   0.041   5.147  15.957 -0.1600  0.8597 -0.4034
 7483TIP3    H143940   0.104   5.203  16.002 -0.2258 -0.0417  0.8254
 7483TIP3    H243941   0.047   5.063  16.002  1.1188 -0.6456 -3.2457
 7484TIP3   OH243942   2.908   3.879   4.015 -0.2500 -0.2356 -0.4185
 7484TIP3    H143943   2.961   3.807   4.050  0.7016  0.4182 -0.5200
 7484TIP3    H243944   2.969   3.934   3.968 -1.2786 -0.2973 -1.8718
 7485TIP3   OH243945   0.629   2.376  14.186  0.1791 -0.1519 -0.1161
 7485TIP3    H143946   0.668   2.385  14.099  1.1587  2.1427  0.5048
 7485TIP3    H243947   0.537   2.397  14.173  0.0496 -1.1127 -0.8099
 7486TIP3   OH243948   2.315   3.482   4.402  0.3815 -0.2004 -0.5478
 7486TIP3    H143949   2.271   3.558   4.365  0.1620 -0.2443 -0.3803
 7486TIP3    H243950   2.408   3.498   4.387  0.2569 -0.5706 -1.7793
 7487TIP3   OH243951   1.742   5.066   0.228  0.3454 -0.0734  0.3995
 7487TIP3    H143952   1.708   5.155   0.222  1.2545  0.2909  0.5497
 7487TIP3    H243953   1.803   5.058   0.155  0.1649 -0.6188  0.3069
 7488TIP3   OH243954   5.070   1.379   0.972 -0.2963 -0.2788  0.4486
 7488TIP3    H143955   5.008   1.437   1.015 -0.9984 -0.9703  0.3702
 7488TIP3    H243956   5.127   1.437   0.921  1.5515  0.7195  3.5147
 7489TIP3   OH243957   4.465   0.232   0.752  0.0472  0.1514 -0.2660
 7489TIP3    H143958   4.525   0.159   0.735  0.6587  1.2394 -2.9023
 7489TIP3    H243959   4.491   0.262   0.840  2.8851  0.1166 -1.0210
 7490TIP3   OH243960   6.111   6.586  13.726  0.1319  0.4301  0.1526
 7490TIP3    H143961   6.022   6.562  13.702 -0.0664  2.0058 -0.7627
 7490TIP3    H243962   6.114   6.681  13.717  1.7292  0.4632  0.7672
 7491TIP3   OH243963   6.219   1.882   2.144  0.7848  0.0679  0.4169
 7491TIP3    H143964   6.196   1.799   2.185  0.7179  0.0247  0.2949
 7491TIP3    H243965   6.302   1.865   2.099  0.0966 -0.3203 -0.7390
 7492TIP3   OH243966   0.692   5.469   2.543 -0.3307  0.5618 -0.0989
 7492TIP3    H143967   0.634   5.393   2.547 -0.2126  0.4439 -0.5949
 7492TIP3    H243968   0.649   5.535   2.598 -0.3553  0.0838  0.4610
 7493TIP3   OH243969   6.045   0.963   2.977 -0.0511  0.0823  0.2514
 7493TIP3    H143970   6.138   0.949   2.994  0.0837  0.3079 -0.3015
 7493TIP3    H243971   6.041   0.995   2.887 -0.5704  1.1216  0.6348
 7494TIP3   OH243972   4.923   2.726  17.091 -0.4108 -0.1129  0.1229
 7494TIP3    H143973   4.858   2.661  17.065 -0.8801 -0.4236  2.0248
 7494TIP3    H243974   4.871   2.801  17.120  0.0652 -0.4178  1.7870
 7495TIP3   OH243975   3.653   4.511   4.315 -0.2793  0.2131  0.1975
 7495TIP3    H143976   3.692   4.580   4.369 -0.0273  0.5937 -0.4624
 7495TIP3    H243977   3.633   4.440   4.376 -2.0274  1.4971  1.1608
 7496TIP3   OH243978   1.455   0.697   6.570 -0.3955  0.5903 -0.5375
 7496TIP3    H143979   1.516   0.638   6.615  0.7879  4.0953  2.7637
 7496TIP3    H243980   1.377   0.643   6.555  1.4071 -2.4090  0.3446
 7497TIP3   OH243981   0.924   4.061  11.312  1.2557  0.3188  0.0459
 7497TIP3    H143982   0.839   4.048  11.269  1.1906  0.7009  0.0578
 7497TIP3    H243983   0.959   4.141  11.271  1.6266  0.1397  0.0133
 7498TIP3   OH243984   3.977   0.404  16.216  0.5852  0.2685  0.2866
 7498TIP3    H143985   3.912   0.355  16.165  1.5231 -2.6693  1.8430
 7498TIP3    H243986   3.950   0.392  16.307  0.5676  3.1092  0.7086
 7499TIP3   OH243987   5.212   3.518   4.681 -0.0321 -0.6539  0.5782
 7499TIP3    H143988   5.152   3.493   4.751  1.0714 -2.6425  0.8664
 7499TIP3    H243989   5.182   3.470   4.604  0.7278 -1.1028  0.5467
 7500TIP3   OH243990   4.267   3.871   2.469  0.5440  0.3711  0.1901
 7500TIP3    H143991   4.312   3.943   2.426  1.4995 -0.2830  0.0905
 7500TIP3    H243992   4.212   3.914   2.535  1.5697  1.1590  0.5504
 7501TIP3   OH243993   1.005   1.957   0.180 -0.2234  0.0849 -0.5215
 7501TIP3    H143994   1.023   1.963   0.086 -0.2383  0.0746 -0.5249
 7501TIP3    H243995   0.925   2.009   0.193  0.7474  1.5376 -0.2449
 7502TIP3   OH243996   1.119   2.236  12.803 -0.4615 -0.1109 -0.0104
 7502TIP3    H143997   1.139   2.268  12.891 -1.7342 -2.8857  1.3420
 7502TIP3    H243998   1.078   2.311  12.760 -1.0327  0.9119  2.2063
 7503TIP3   OH243999   3.135   3.071   3.313  0.1016 -0.2200  0.2920
 7503TIP3    H144000   3.205   3.122   3.271  0.6206  0.3227  1.7868
 7503TIP3    H244001   3.180   3.022   3.382 -0.9022 -0.2492  0.9353
 7504TIP3   OH244002   5.523   5.400   3.915  0.2935  0.5170  0.1473
 7504TIP3    H144003   5.484   5.314   3.931  1.6071  0.4492  3.3898
 7504TIP3    H244004   5.589   5.385   3.847  0.7614 -1.1458  0.9543
 7505TIP3   OH244005   2.839   2.472  14.315  0.3642  0.4418 -0.5683
 7505TIP3    H144006   2.933   2.470  14.333  0.8897 -2.2787 -3.2088
 7505TIP3    H244007   2.827   2.548  14.258  0.7813  1.3728  0.5678
 7506TIP3   OH244008   3.369   0.028   2.879 -0.1446 -0.0289 -0.2351
 7506TIP3    H144009   3.351  -0.035   2.949  2.6745 -2.1848 -1.3546
 7506TIP3    H244010   3.435   0.086   2.916  1.9062 -1.6269 -1.2787
 7507TIP3   OH244011   1.854   6.281   3.776  0.5285  0.0346 -0.2108
 7507TIP3    H144012   1.895   6.302   3.692 -0.2069  0.3940 -0.4882
 7507TIP3    H244013   1.926   6.277   3.838  1.3704 -2.3967 -1.2531
 7508TIP3   OH244014   4.029   2.792   2.720 -0.0435 -0.8823  0.2285
 7508TIP3    H144015   4.040   2.880   2.684  2.6696 -0.4378  1.9815
 7508TIP3    H244016   3.966   2.803   2.791  1.3722 -0.0242  1.3903
 7509TIP3   OH244017   3.275   1.821   1.478 -0.2242 -0.2673  0.2650
 7509TIP3    H144018   3.367   1.803   1.456 -0.3443 -1.2691  0.5699
 7509TIP3    H244019   3.256   1.763   1.551 -0.7776  0.7521  0.9430
 7510TIP3   OH244020   2.134   0.657  14.227 -0.1107  0.1233  0.0654
 7510TIP3    H144021   2.105   0.569  14.200 -0.9719 -0.5653  3.0647
 7510TIP3    H244022   2.207   0.641  14.286 -0.5123  1.4299  0.9142
 7511TIP3   OH244023   2.152   1.012  16.228 -0.6992 -0.3083 -0.3872
 7511TIP3    H144024   2.061   1.028  16.251  0.2583 -1.3026  4.7302
 7511TIP3    H244025   2.189   1.100  16.215 -1.3460  0.4251  2.3414
 7512TIP3   OH244026   1.601   2.175   1.315  0.6128 -0.2264 -0.3923
 7512TIP3    H144027   1.631   2.146   1.402  0.3372 -0.6371 -0.4330
 7512TIP3    H244028   1.596   2.095   1.263  0.5845 -0.0067 -0.7306
 7513TIP3   OH244029   2.450   5.699   2.396 -0.1125  0.5361 -0.2877
 7513TIP3    H144030   2.416   5.621   2.439 -0.4458  1.2270  0.7282
 7513TIP3    H244031   2.383   5.722   2.332 -0.5558  0.6340  0.2020
 7514TIP3   OH244032   3.140   5.404   4.369 -0.1048 -0.5539 -0.3981
 7514TIP3    H144033   3.198   5.476   4.342  0.1610 -0.5539  0.1725
 7514TIP3    H244034   3.156   5.394   4.463 -0.8375 -0.7318 -0.2910
 7515TIP3   OH244035   5.123   3.189  15.630 -0.1629 -0.1644 -0.1105
 7515TIP3    H144036   5.187   3.259  15.617  1.4656 -1.0107  2.8038
 7515TIP3    H244037   5.064   3.224  15.697 -3.5641  1.0619 -3.5796
 7516TIP3   OH244038   5.779   4.252  10.313 -0.0192 -0.7389 -0.7683
 7516TIP3    H144039   5.711   4.319  10.322  0.5485  0.1502 -2.6916
 7516TIP3    H244040   5.743   4.175  10.356 -2.2664 -0.2888 -1.7642
 7517TIP3   OH244041   2.352   0.334   3.815 -0.4312  0.2508  0.1890
 7517TIP3    H144042   2.257   0.342   3.819 -0.3847  0.1001  1.9143
 7517TIP3    H244043   2.378   0.315   3.905  1.0757 -1.3721 -0.5513
 7518TIP3   OH244044   1.212   1.581  13.432  0.3909 -0.2682  0.7438
 7518TIP3    H144045   1.189   1.572  13.340  1.6334 -0.1314  0.4029
 7518TIP3    H244046   1.167   1.661  13.461  1.3980  0.6546 -0.2163
 7519TIP3   OH244047   0.207   2.476  10.826  0.5590 -0.2107  0.7262
 7519TIP3    H144048   0.234   2.551  10.879 -0.3353 -0.2284  1.2246
 7519TIP3    H244049   0.276   2.412  10.838  0.0649 -0.4593  2.3947
 7520TIP3   OH244050   4.299   5.239  17.289  0.1252 -0.6150  1.0871
 7520TIP3    H144051   4.314   5.149  17.318 -0.5037 -0.4436  1.9520
 7520TIP3    H244052   4.217   5.264  17.330  0.7368  0.6638  1.5619
 7521TIP3   OH244053   6.412   0.085  15.005  0.6924  0.0185  0.2153
 7521TIP3    H144054   6.352   0.160  15.006  0.7332  0.0589 -0.3028
 7521TIP3    H244055   6.489   0.116  14.957  0.4182 -0.5755 -0.6253
 7522TIP3   OH244056   3.282   5.614  13.805 -0.5399 -0.2868 -0.3678
 7522TIP3    H144057   3.341   5.642  13.734  0.6312 -3.9105 -0.8922
 7522TIP3    H244058   3.287   5.685  13.869  2.2916  0.7325 -1.6461
 7523TIP3   OH244059   3.468   2.581   5.273  0.0948  0.4160 -0.1716
 7523TIP3    H144060   3.466   2.535   5.356  0.8958 -0.1490 -0.4603
 7523TIP3    H244061   3.482   2.512   5.208  1.6141  1.0859 -0.5776
 7524TIP3   OH244062   4.889   6.697   2.677  0.0760 -0.3661 -0.6701
 7524TIP3    H144063   4.831   6.624   2.697 -1.3449  0.5229 -1.4492
 7524TIP3    H244064   4.905   6.739   2.761 -1.9119  0.4723 -0.6824
 7525TIP3   OH244065   4.535   0.360   0.983 -0.0037  0.0058 -0.2483
 7525TIP3    H144066   4.627   0.381   0.998 -0.0204  0.7915 -1.2233
 7525TIP3    H244067   4.493   0.374   1.068  0.6228  0.4869 -0.0149
 7526TIP3   OH244068   5.354   1.346   1.645 -0.1029 -0.1886  0.9382
 7526TIP3    H144069   5.415   1.326   1.716  0.2944  1.0092  0.9479
 7526TIP3    H244070   5.336   1.262   1.604 -0.0282 -0.8380  2.2100
 7527TIP3   OH244071   2.412   5.233   4.556  0.6738 -0.2432 -0.1714
 7527TIP3    H144072   2.358   5.284   4.496  1.0541 -0.3389 -0.5982
 7527TIP3    H244073   2.375   5.251   4.643 -0.1556 -0.4540 -0.4749
 7528TIP3   OH244074   6.143   2.292  11.982 -0.2631  0.0628 -0.0590
 7528TIP3    H144075   6.140   2.386  11.993 -1.5838  0.1414 -0.8852
 7528TIP3    H244076   6.176   2.279  11.893 -1.3795 -0.2012 -0.4487
 7529TIP3   OH244077   5.824   2.854  15.289 -0.2128 -0.1399  0.2688
 7529TIP3    H144078   5.802   2.797  15.363 -2.6130 -0.2484 -0.4804
 7529TIP3    H244079   5.853   2.936  15.330  0.6135 -0.9545  1.3305
 7530TIP3   OH244080   5.688   6.427   2.443 -0.2126  0.0841 -0.5395
 7530TIP3    H144081   5.612   6.392   2.490 -0.4062 -0.9956 -1.6297
 7530TIP3    H244082   5.725   6.493   2.502 -0.1931 -1.5637  1.3239
 7531TIP3   OH244083   5.927   5.093   1.485  0.5261 -0.0133  0.4623
 7531TIP3    H144084   5.990   5.029   1.451  0.0855 -0.8501  1.2167
 7531TIP3    H244085   5.946   5.173   1.436  1.8372 -0.4006  0.3176
 7532TIP3   OH244086   6.304   1.724  11.974  0.1632 -0.0399  0.1290
 7532TIP3    H144087   6.229   1.679  11.934 -0.0917  1.3310 -0.9637
 7532TIP3    H244088   6.309   1.807  11.928  0.7515  0.9821  2.0145
 7533TIP3   OH244089   5.952   3.232  16.349 -0.0768 -0.2608 -0.4892
 7533TIP3    H144090   5.984   3.142  16.344  0.3671 -0.1655  0.5107
 7533TIP3    H244091   6.027   3.283  16.380 -0.4410  0.3810 -0.6518
 7534TIP3   OH244092   6.074   2.687   5.614  0.4284 -0.4596  0.6992
 7534TIP3    H144093   6.044   2.623   5.549 -0.7247  0.5940  0.1661
 7534TIP3    H244094   6.168   2.694   5.599 -0.0155  0.8282 -1.8637
 7535TIP3   OH244095   4.529   0.558  14.086  0.9404  0.7011  0.6137
 7535TIP3    H144096   4.539   0.565  13.991 -1.2016 -1.3006  0.2004
 7535TIP3    H244097   4.605   0.507  14.115  0.6747 -0.1859 -0.2500
 7536TIP3   OH244098   6.587   3.260  13.036 -0.6455 -0.5891 -0.0051
 7536TIP3    H144099   6.596   3.164  13.038  2.5136 -0.5240 -3.9767
 7536TIP3    H244100   6.496   3.275  13.011 -1.1472 -2.5830  0.5573
 7537TIP3   OH244101   0.188   2.755  16.530  0.5757  0.2332 -0.4706
 7537TIP3    H144102   0.184   2.718  16.442  0.9449  1.5583 -1.0580
 7537TIP3    H244103   0.137   2.835  16.525 -1.0611 -0.6832  1.0489
 7538TIP3   OH244104   2.460   5.139  12.675 -0.4651 -0.5384 -0.2371
 7538TIP3    H144105   2.457   5.077  12.602 -1.3904  1.4807 -1.9749
 7538TIP3    H244106   2.537   5.113  12.725  0.1700 -2.0077 -1.9055
 7539TIP3   OH244107   6.005   5.963   4.487  0.3651  0.1512  0.0323
 7539TIP3    H144108   6.093   5.925   4.486 -0.0733 -0.8983 -0.1884
 7539TIP3    H244109   6.018   6.056   4.469  1.2464 -0.4001 -2.3289
 7540TIP3   OH244110   0.184   6.703  16.575  0.8410  0.1598  0.1189
 7540TIP3    H144111   0.167   6.790  16.540  0.0684 -0.2730 -0.5915
 7540TIP3    H244112   0.114   6.688  16.638  1.2691  0.2588  0.6228
 7541TIP3   OH244113   3.895   0.600  16.885 -0.4068  0.3366 -0.5683
 7541TIP3    H144114   3.960   0.663  16.853  2.2364 -1.6103  0.7834
 7541TIP3    H244115   3.902   0.606  16.980 -0.0283 -2.0540 -0.4336
 7542TIP3   OH244116   6.725   6.247   2.043  0.5875  0.3537  0.5512
 7542TIP3    H144117   6.732   6.158   2.077  1.1284  0.6306  1.1962
 7542TIP3    H244118   6.632   6.268   2.048  0.4045 -0.3201  0.0030
 7543TIP3   OH244119   5.381   1.059  10.553 -0.1885 -0.0597 -0.1274
 7543TIP3    H144120   5.384   1.127  10.486  1.1829  0.3634  0.3351
 7543TIP3    H244121   5.316   1.089  10.616  0.9655  1.2139  0.4753
 7544TIP3   OH244122   3.311   1.319   0.177 -0.2311 -0.3843  0.0590
 7544TIP3    H144123   3.327   1.261   0.252 -1.3306  1.8426  2.0835
 7544TIP3    H244124   3.383   1.381   0.179 -1.3264  0.8893  0.4851
 7545TIP3   OH244125   1.717   3.714  10.665 -0.2739 -0.1319  0.6553
 7545TIP3    H144126   1.806   3.737  10.691 -0.0414 -0.9353  0.5803
 7545TIP3    H244127   1.725   3.685  10.574 -0.2809 -2.0642  1.2410
 7546TIP3   OH244128   6.799   5.422   3.690 -0.3642 -0.3565  0.0161
 7546TIP3    H144129   6.818   5.329   3.696  0.4046 -0.3012 -1.4130
 7546TIP3    H244130   6.879   5.461   3.655 -0.0909  1.0793  2.1447
 7547TIP3   OH244131   1.662   0.359   4.693 -0.2552  0.0970 -0.3755
 7547TIP3    H144132   1.576   0.325   4.668  0.7223 -0.9673 -2.4861
 7547TIP3    H244133   1.644   0.421   4.763 -2.5698 -1.4544  0.4732
 7548TIP3   OH244134   2.583   5.550   3.086  0.2591  0.1661 -0.6040
 7548TIP3    H144135   2.542   5.553   3.173  0.1927 -1.5408 -0.5429
 7548TIP3    H244136   2.653   5.615   3.090 -1.2639  1.8037 -0.0923
 7549TIP3   OH244137   0.038   3.944   5.650 -0.1793  1.0905 -0.1155
 7549TIP3    H144138  -0.004   3.981   5.572 -0.1014  2.6852  0.5862
 7549TIP3    H244139   0.060   4.020   5.704  2.3479  0.1990  0.1740
 7550TIP3   OH244140   5.207   0.215   3.965  0.1243  0.5585  0.1484
 7550TIP3    H144141   5.236   0.226   4.056  0.7972 -2.4708  0.3647
 7550TIP3    H244142   5.144   0.144   3.968  0.8137 -0.1857 -1.8566
 7551TIP3   OH244143   0.711   5.400   6.015  0.1353 -0.2148  0.0754
 7551TIP3    H144144   0.638   5.437   6.065 -0.1132 -3.5008  2.3315
 7551TIP3    H244145   0.790   5.435   6.057 -0.1069  0.1696  0.2092
 7552TIP3   OH244146   2.582   0.278   1.704  0.0392 -0.6612  0.5324
 7552TIP3    H144147   2.503   0.229   1.726  0.9479 -1.5148  1.9829
 7552TIP3    H244148   2.644   0.256   1.773  2.2478 -1.5712 -1.6835
 7553TIP3   OH244149   4.359   0.948   0.992 -0.1669  0.1055  0.2373
 7553TIP3    H144150   4.350   0.856   0.967 -0.5648  0.0249  0.6704
 7553TIP3    H244151   4.357   0.947   1.088  3.3721  0.1879  0.3879
 7554TIP3   OH244152   6.777   0.444  15.064  0.1380  0.9066 -0.5239
 7554TIP3    H144153   6.859   0.396  15.056 -0.0055  0.5746 -0.0300
 7554TIP3    H244154   6.802   0.526  15.107  0.7083  2.1583 -3.1709
 7555TIP3   OH244155   1.865   1.560   4.227 -0.2981 -0.3879 -0.0607
 7555TIP3    H144156   1.914   1.499   4.172  0.2478 -0.0844  0.0940
 7555TIP3    H244157   1.806   1.605   4.166 -0.4404 -0.8016 -0.2326
 7556TIP3   OH244158   0.371   5.968  14.661  0.0746  0.3944  0.6988
 7556TIP3    H144159   0.351   6.037  14.724  1.5689  0.0836  1.5244
 7556TIP3    H244160   0.308   5.983  14.589 -0.1722  2.0883  1.2358
 7557TIP3   OH244161   0.038   1.216   2.507 -0.0793  0.1550  0.2583
 7557TIP3    H144162  -0.058   1.224   2.503 -0.2481 -1.7917 -0.0647
 7557TIP3    H244163   0.062   1.182   2.420  0.9621  1.0718  0.1778
 7558TIP3   OH244164   6.322   1.499  13.169 -0.6426  0.0950 -0.3734
 7558TIP3    H144165   6.375   1.444  13.111  0.4409  0.2826  0.4452
 7558TIP3    H244166   6.327   1.456  13.254 -1.0717  0.6078 -0.0874
 7559TIP3   OH244167   5.015   0.095  16.017  0.5511  0.1339  0.8571
 7559TIP3    H144168   5.045   0.036  16.086  1.2716 -1.0124 -0.4122
 7559TIP3    H244169   4.927   0.120  16.044  0.3353 -1.3158  1.5777
 7560TIP3   OH244170   0.413   0.867  14.504 -0.1738  0.0541 -0.8736
 7560TIP3    H144171   0.380   0.922  14.575  0.6021 -2.6262  1.6643
 7560TIP3    H244172   0.342   0.806  14.485  0.5212 -0.8465 -0.6485
 7561TIP3   OH244173   2.517   0.676   6.167 -0.1091  0.0005  0.0323
 7561TIP3    H144174   2.489   0.628   6.244 -0.8627 -0.9568 -0.8245
 7561TIP3    H244175   2.600   0.635   6.142  0.0115  0.1511  0.1794
 7562TIP3   OH244176   3.683   6.048  14.232 -0.6159 -0.4672 -1.1463
 7562TIP3    H144177   3.631   6.100  14.171  2.7676  1.1648 -2.7433
 7562TIP3    H244178   3.720   6.112  14.293  0.9402 -1.3717 -1.1122
 7563TIP3   OH244179   6.088   2.881  11.460 -0.0934  0.5223 -0.1647
 7563TIP3    H144180   6.047   2.926  11.386 -0.0514  2.1696  0.7905
 7563TIP3    H244181   6.015   2.846  11.510 -0.2159  1.1468  0.0973
 7564TIP3   OH244182   3.317   2.342   5.387 -1.0082 -0.4202  0.8437
 7564TIP3    H144183   3.383   2.366   5.452 -0.3149  2.7076 -0.9065
 7564TIP3    H244184   3.359   2.272   5.336  0.4575  0.5645  0.6406
 7565TIP3   OH244185   2.385   2.578  11.217  0.5140 -0.3029  0.0570
 7565TIP3    H144186   2.346   2.514  11.156 -0.9727  0.1449  0.5142
 7565TIP3    H244187   2.472   2.543  11.235 -0.1061 -1.9823 -0.0546
 7566TIP3   OH244188   6.491   2.126  11.075 -0.7642  0.0205  0.5545
 7566TIP3    H144189   6.506   2.213  11.038 -1.0225 -0.6511 -1.1979
 7566TIP3    H244190   6.551   2.121  11.150  1.1747  0.7300 -0.8999
 7567TIP3   OH244191   1.853   5.690   5.456  0.0728  0.2468 -0.3280
 7567TIP3    H144192   1.842   5.781   5.483  0.0621 -0.0094  0.5464
 7567TIP3    H244193   1.795   5.680   5.381 -1.0519  0.5610  0.4876
 7568TIP3   OH244194   5.039   3.533  13.620 -0.2511 -0.2762 -0.1088
 7568TIP3    H144195   5.052   3.610  13.675 -0.6093  0.4114 -0.9744
 7568TIP3    H244196   5.022   3.568  13.533 -0.8754 -1.3224 -0.4192
 7569TIP3   OH244197   3.823   6.469  17.251  0.2814  0.5529  0.4553
 7569TIP3    H144198   3.749   6.484  17.310 -0.8189 -0.5270 -0.6022
 7569TIP3    H244199   3.782   6.440  17.169  1.8938 -0.3273 -0.0546
 7570TIP3   OH244200   6.380   0.853  15.155 -0.3170  0.5175  0.0804
 7570TIP3    H144201   6.390   0.834  15.249 -0.5111  0.5281  0.1030
 7570TIP3    H244202   6.470   0.852  15.122 -0.2344  0.6597  0.2967
 7571TIP3   OH244203   6.514   5.362  13.183  0.7231 -0.0108 -0.2537
 7571TIP3    H144204   6.544   5.330  13.097  1.1255 -0.5670  0.0898
 7571TIP3    H244205   6.419   5.366  13.175  0.7627  0.0329 -0.7578
 7572TIP3   OH244206   1.621   3.479   4.567 -0.2396  0.1426 -0.5520
 7572TIP3    H144207   1.701   3.434   4.541  0.7980  2.0706 -0.7878
 7572TIP3    H244208   1.565   3.410   4.601  2.1432 -1.0207  1.1488
 7573TIP3   OH244209   1.299   3.378   4.705  0.1916  0.3778 -0.4631
 7573TIP3    H144210   1.356   3.303   4.691  0.0561  0.1097  0.3985
 7573TIP3    H244211   1.246   3.354   4.780 -1.4176  0.4290 -1.5596
 7574TIP3   OH244212   4.855   6.376   3.270  0.1234 -0.2752  0.2453
 7574TIP3    H144213   4.850   6.414   3.182  1.6339  1.1101  0.7437
 7574TIP3    H244214   4.780   6.413   3.316  0.4681  0.5776  0.1319
 7575TIP3   OH244215   6.700   0.281  12.294 -0.4137 -0.3521 -0.2181
 7575TIP3    H144216   6.617   0.324  12.270 -0.7832 -0.8215  0.2079
 7575TIP3    H244217   6.768   0.343  12.269 -0.9575  0.5946  0.6560
 7576TIP3   OH244218   6.200   3.501   0.168  0.0708 -0.2981 -0.6787
 7576TIP3    H144219   6.234   3.541   0.088 -0.4345  0.5352 -0.4865
 7576TIP3    H244220   6.272   3.505   0.230 -0.7931  2.8708  0.2218
 7577TIP3   OH244221   6.177   1.758  13.448 -0.3240 -0.5269  0.1186
 7577TIP3    H144222   6.141   1.837  13.490 -2.3570 -1.0955 -0.4952
 7577TIP3    H244223   6.248   1.731  13.506 -0.7480  0.7702  1.2798
 7578TIP3   OH244224   1.351   0.274   4.695  0.2016  0.3884 -0.5532
 7578TIP3    H144225   1.276   0.308   4.647 -0.3987 -0.2404 -0.0600
 7578TIP3    H244226   1.313   0.223   4.766  1.0932 -0.1229 -0.4375
 7579TIP3   OH244227   5.558   1.546  17.183 -0.3337  0.3547 -0.0271
 7579TIP3    H144228   5.616   1.503  17.120 -0.7489  1.0341 -0.8903
 7579TIP3    H244229   5.489   1.585  17.128  1.3729  4.2415  0.5022
 7580TIP3   OH244230   3.409   3.300  13.127 -0.0367 -0.0262  0.2821
 7580TIP3    H144231   3.342   3.351  13.081  0.4970  0.7473  0.3400
 7580TIP3    H244232   3.404   3.330  13.218 -0.1991 -0.5920  0.4616
 7581TIP3   OH244233   2.017   3.929   2.592  0.5613  0.7790  0.2967
 7581TIP3    H144234   1.985   3.911   2.504  1.0320  2.0548 -0.1414
 7581TIP3    H244235   1.996   4.021   2.608  0.6062  0.6021  1.4634
 7582TIP3   OH244236   2.566   5.089  14.040  0.3843  0.1004  0.5592
 7582TIP3    H144237   2.644   5.142  14.049  0.3358  0.0626  1.2272
 7582TIP3    H244238   2.541   5.068  14.129 -0.2809 -0.0447  0.3420
 7583TIP3   OH244239   0.355   1.736  13.206 -0.2006  0.1564 -0.6024
 7583TIP3    H144240   0.277   1.789  13.223  2.1901  3.5084  0.3931
 7583TIP3    H244241   0.343   1.658  13.261 -2.5978  0.8115 -0.1342
 7584TIP3   OH244242   4.378   3.639   0.843 -0.7320 -0.4609  0.0948
 7584TIP3    H144243   4.423   3.683   0.771 -0.1852  1.5535  1.6142
 7584TIP3    H244244   4.285   3.649   0.824 -0.6482  2.6500  1.1204
 7585TIP3   OH244245   5.421   4.727   0.668  0.6175 -0.2121  0.5087
 7585TIP3    H144246   5.473   4.714   0.747 -2.6006 -0.6655  2.6748
 7585TIP3    H244247   5.424   4.822   0.653  0.8700 -0.0572  1.4925
 7586TIP3   OH244248   6.135   5.455  10.807 -0.0678 -0.1419  0.1630
 7586TIP3    H144249   6.155   5.415  10.722  0.1400 -1.1244  0.6702
 7586TIP3    H244250   6.046   5.490  10.797 -1.0087 -2.4372  0.3277
 7587TIP3   OH244251   5.298   1.150   3.645  0.2299 -0.3562 -0.1318
 7587TIP3    H144252   5.253   1.131   3.727  1.1833  1.2901  0.8029
 7587TIP3    H244253   5.253   1.227   3.610  0.9708  0.0257 -0.2519
 7588TIP3   OH244254   4.719   3.849  13.557 -0.1543 -0.5400  0.5255
 7588TIP3    H144255   4.700   3.934  13.598 -2.2118 -0.0119 -1.4019
 7588TIP3    H244256   4.636   3.802  13.561  0.0342 -1.0821 -1.5634
 7589TIP3   OH244257   1.674   4.183  16.607 -0.2563 -0.0634  0.3228
 7589TIP3    H144258   1.708   4.203  16.520 -1.7764  3.0828  0.3976
 7589TIP3    H244259   1.730   4.233  16.667  0.4852 -1.8320  1.1453
 7590TIP3   OH244260   5.184   1.524   3.984 -0.1426  0.4792  0.2472
 7590TIP3    H144261   5.264   1.572   4.007 -0.2803  0.2600  1.2204
 7590TIP3    H244262   5.143   1.576   3.915  1.3715  0.0440 -1.0170
 7591TIP3   OH244263   2.668   2.704   6.449  0.6764  0.9249  0.1418
 7591TIP3    H144264   2.653   2.610   6.444  3.5836  0.4305 -0.1433
 7591TIP3    H244265   2.648   2.727   6.540  1.0788 -0.2042  0.5240
 7592TIP3   OH244266   6.464   5.591   4.522 -0.2855  0.0118  0.0255
 7592TIP3    H144267   6.472   5.576   4.616  2.5500  0.8725 -0.0090
 7592TIP3    H244268   6.534   5.538   4.483 -2.2558 -1.3698 -1.7421
 7593TIP3   OH244269   6.210   2.170  16.870  0.1308 -0.0146 -0.1101
 7593TIP3    H144270   6.241   2.255  16.840  0.0941 -0.0499 -0.2436
 7593TIP3    H244271   6.116   2.181  16.881  0.5495  1.0169  3.2286
 7594TIP3   OH244272   6.589   0.956  11.671 -1.1528  0.3958 -0.1092
 7594TIP3    H144273   6.623   0.869  11.692 -1.9997 -0.1835 -1.0926
 7594TIP3    H244274   6.494   0.943  11.663 -1.3836  1.5923  0.6405
 7595TIP3   OH244275   6.074   6.057   1.152  0.8132  0.5476 -0.2028
 7595TIP3    H144276   5.983   6.027   1.144  0.9628  0.4824 -1.9205
 7595TIP3    H244277   6.070   6.151   1.134  1.1940  0.3881 -1.1543
 7596TIP3   OH244278   6.249   2.793   5.311  0.3563 -0.4043  0.0331
 7596TIP3    H144279   6.260   2.756   5.398  1.1489 -1.7872 -0.6500
 7596TIP3    H244280   6.334   2.831   5.290 -0.2574  1.2750  0.4576
 7597TIP3   OH244281   4.117   5.347   4.424  0.6973 -0.2190  0.3357
 7597TIP3    H144282   4.054   5.296   4.474 -0.1731  1.1139  0.6218
 7597TIP3    H244283   4.127   5.428   4.474  0.4525  0.7788 -1.2111
 7598TIP3   OH244284   6.634   1.390   2.281  0.4172  0.9433 -0.0906
 7598TIP3    H144285   6.575   1.462   2.258  0.1107  1.3078  1.7263
 7598TIP3    H244286   6.722   1.426   2.270  0.2733  1.2097 -0.3610
 7599TIP3   OH244287   0.335   3.420  15.351 -0.7043 -0.2686  0.4318
 7599TIP3    H144288   0.345   3.502  15.303 -0.5267  1.5191  3.4017
 7599TIP3    H244289   0.360   3.352  15.288  1.8953  2.1350 -1.2486
 7600TIP3   OH244290   2.584   3.760   3.203 -0.2354 -1.0669 -0.1419
 7600TIP3    H144291   2.619   3.826   3.262 -1.2137 -0.5905 -0.0755
 7600TIP3    H244292   2.579   3.804   3.118 -1.6684 -0.7727  0.0802
 7601TIP3   OH244293   0.264   1.579   3.954 -0.4332  0.2084 -0.3484
 7601TIP3    H144294   0.178   1.565   3.993 -0.5574  1.1609 -0.2773
 7601TIP3    H244295   0.286   1.669   3.976  0.3935  0.1091 -0.7441
 7602TIP3   OH244296   4.161   0.166  13.203  0.0192 -0.3080  0.5745
 7602TIP3    H144297   4.230   0.099  13.206  0.5349  0.0371 -2.0296
 7602TIP3    H244298   4.208   0.248  13.192 -0.7313  0.0996  0.4229
 7603TIP3   OH244299   5.738   0.441   2.616 -0.0918 -0.5734 -0.6165
 7603TIP3    H144300   5.719   0.381   2.688 -0.9635  0.0714 -0.2955
 7603TIP3    H244301   5.727   0.389   2.537  1.2144 -1.3805 -0.2872
 7604TIP3   OH244302   3.766   3.700   6.433  0.6340 -0.3397 -0.4901
 7604TIP3    H144303   3.672   3.678   6.436  1.0173 -2.3930 -2.0818
 7604TIP3    H244304   3.803   3.658   6.511  0.3759 -0.2980 -0.3444
 7605TIP3   OH244305   1.924   1.000  10.813 -0.2364  0.0363 -0.3387
 7605TIP3    H144306   2.015   1.027  10.805 -0.3922  0.7371  0.2460
 7605TIP3    H244307   1.925   0.907  10.790  0.7562 -0.1545  0.4546
 7606TIP3   OH244308   2.403   2.217  15.323 -0.3053 -0.0115 -0.1473
 7606TIP3    H144309   2.469   2.161  15.366 -0.3527  0.2358  0.2505
 7606TIP3    H244310   2.453   2.267  15.258  0.1210  1.0734  0.9987
 7607TIP3   OH244311   5.606   2.965   4.874  0.5489 -0.3049  0.0180
 7607TIP3    H144312   5.701   2.975   4.879  0.6059 -1.0490  0.3688
 7607TIP3    H244313   5.593   2.876   4.841 -0.0375 -0.4077  0.5243
 7608TIP3   OH244314   6.087   0.617  15.270  0.4510  0.1347 -0.3341
 7608TIP3    H144315   6.096   0.631  15.176 -0.3543  0.3943 -0.3718
 7608TIP3    H244316   6.017   0.677  15.297 -1.0436 -1.7336  0.0030
 7609TIP3   OH244317   3.042   0.148   1.769  0.4921  0.0276 -0.1418
 7609TIP3    H144318   3.046   0.228   1.822  0.3317 -0.6464  0.8851
 7609TIP3    H244319   2.949   0.136   1.752  0.4881 -0.1775  0.0394
 7610TIP3   OH244320   5.782   2.324  12.024 -0.1400  0.2766 -0.3322
 7610TIP3    H144321   5.818   2.405  11.987 -0.1947  0.8532  0.8596
 7610TIP3    H244322   5.715   2.297  11.961 -0.9598  1.8050 -0.1371
 7611TIP3   OH244323   1.946   1.019  12.411  0.5324  0.8883  0.3346
 7611TIP3    H144324   1.876   1.021  12.346  1.8536  0.8932 -1.1067
 7611TIP3    H244325   2.018   0.974  12.367  1.8688  1.9873  1.3788
 7612TIP3   OH244326   5.163   5.743   0.303 -0.1669 -0.2648 -0.4727
 7612TIP3    H144327   5.197   5.662   0.266  0.2225 -0.3434  0.0492
 7612TIP3    H244328   5.240   5.789   0.337 -0.4686 -0.0175 -0.1110
 7613TIP3   OH244329   1.039   6.246   2.181  0.2643  0.4842 -0.3393
 7613TIP3    H144330   1.027   6.258   2.275  1.4206  4.3779 -0.6128
 7613TIP3    H244331   0.965   6.191   2.154  0.0799 -0.9167  2.8673
 7614TIP3   OH244332   3.581   4.118   4.205  0.1446 -0.3754  0.2895
 7614TIP3    H144333   3.572   4.026   4.180 -0.0133 -0.2858  0.0235
 7614TIP3    H244334   3.562   4.119   4.299  0.2337 -0.6276  0.3103
 7615TIP3   OH244335   6.625   2.360  11.313 -0.5800  0.1348 -0.1124
 7615TIP3    H144336   6.652   2.271  11.293  0.7460  0.4216  0.3440
 7615TIP3    H244337   6.532   2.353  11.334 -0.8151 -0.9056 -1.5011
 7616TIP3   OH244338   3.890   2.742  14.348 -0.1094 -0.2485 -0.3930
 7616TIP3    H144339   3.941   2.761  14.269 -0.1430 -3.8542 -1.3586
 7616TIP3    H244340   3.804   2.781  14.332  0.5023  0.7664 -1.2673
 7617TIP3   OH244341   5.573   2.932   6.557 -0.0563 -0.1399 -0.4301
 7617TIP3    H144342   5.585   2.862   6.492 -0.7771  0.1228 -0.8494
 7617TIP3    H244343   5.654   2.983   6.552 -0.0060 -0.2659 -0.9510
 7618TIP3   OH244344   5.758   1.522   3.561  0.0788  0.0687 -0.0513
 7618TIP3    H144345   5.807   1.602   3.581 -1.7191  0.4347  3.0996
 7618TIP3    H244346   5.789   1.458   3.625  0.3134 -1.3247 -1.5095
 7619TIP3   OH244347   3.737   1.896  14.595  0.1065 -0.0930 -0.3725
 7619TIP3    H144348   3.704   1.824  14.647 -0.8239  2.5184  2.8470
 7619TIP3    H244349   3.830   1.877  14.583  0.0221 -1.4733  1.0664
 7620TIP3   OH244350   6.491   0.708   1.251 -0.5627  0.4451  0.3285
 7620TIP3    H144351   6.474   0.715   1.345 -0.4235  1.2520  0.2969
 7620TIP3    H244352   6.510   0.797   1.224  0.3925  0.0682 -0.2791
 7621TIP3   OH244353   1.085   4.126  12.111  0.1754  0.6325 -0.0231
 7621TIP3    H144354   1.114   4.041  12.145  2.7138  0.7536 -1.7283
 7621TIP3    H244355   1.073   4.111  12.017 -1.1097  1.7389 -0.0565
 7622TIP3   OH244356   1.930   6.058  15.167  0.1527 -0.6412  0.2817
 7622TIP3    H144357   1.992   6.091  15.232  0.1674 -2.5462  1.2710
 7622TIP3    H244358   1.847   6.099  15.190  1.1268  2.6495 -1.5942
 7623TIP3   OH244359   0.378   6.559  15.727 -0.3531 -0.4387 -0.8495
 7623TIP3    H144360   0.441   6.499  15.767  1.1996  1.4104 -0.4256
 7623TIP3    H244361   0.359   6.624  15.795 -1.1992  0.1589 -1.6308
 7624TIP3   OH244362   3.228   3.688   4.315 -0.2681 -0.1393 -0.2605
 7624TIP3    H144363   3.194   3.687   4.226 -0.1572  0.2936 -0.3071
 7624TIP3    H244364   3.209   3.776   4.348  1.4409  0.3696 -0.5426
 7625TIP3   OH244365   0.878   3.202  16.056  0.0434  0.2540  0.2334
 7625TIP3    H144366   0.855   3.294  16.069  1.0290  0.5046  0.2976
 7625TIP3    H244367   0.973   3.199  16.072 -0.5133 -1.4165  3.9752
 7626TIP3   OH244368   0.928   2.335  13.686 -0.0275 -0.0027 -0.2280
 7626TIP3    H144369   0.944   2.311  13.777  2.3023  0.3101 -0.5315
 7626TIP3    H244370   0.982   2.275  13.635 -1.9533 -0.7285 -1.4652
 7627TIP3   OH244371   0.666   2.887   5.196 -0.2390 -0.2086 -0.2485
 7627TIP3    H144372   0.605   2.930   5.257 -1.6109  0.2700 -1.9084
 7627TIP3    H244373   0.704   2.815   5.247 -1.1783  0.3189  1.2426
 7628TIP3   OH244374   2.828   1.834  11.708 -0.4400 -0.2225  0.3338
 7628TIP3    H144375   2.735   1.811  11.711 -0.5809  0.0884 -1.3320
 7628TIP3    H244376   2.836   1.891  11.632  1.0115  0.2431  0.8333
 7629TIP3   OH244377   0.916   4.716  16.796 -0.1258 -0.2316  0.3897
 7629TIP3    H144378   0.836   4.732  16.845 -2.0069 -2.3577 -1.8541
 7629TIP3    H244379   0.976   4.677  16.860 -2.3095 -2.3712  1.1963
 7630TIP3   OH244380   0.221   2.100   3.013 -0.0163  0.2644 -0.1918
 7630TIP3    H144381   0.276   2.100   3.091 -0.0218  1.6953 -0.1864
 7630TIP3    H244382   0.283   2.103   2.940  0.0612 -2.7936 -0.3270
 7631TIP3   OH244383   0.815   5.419  11.905 -0.1021 -0.9880 -0.2160
 7631TIP3    H144384   0.774   5.506  11.899  1.8972 -0.0152 -0.2950
 7631TIP3    H244385   0.790   5.375  11.824 -1.8027 -0.8043  0.1813
 7632TIP3   OH244386   0.594   3.071   0.003 -0.6822 -0.0899 -0.0652
 7632TIP3    H144387   0.626   3.075  -0.087 -0.6155 -0.5150 -0.0603
 7632TIP3    H244388   0.505   3.106  -0.001 -0.6761 -0.1024 -0.2925
 7633TIP3   OH244389   5.827   1.280   1.944 -0.2687  0.3794 -0.1570
 7633TIP3    H144390   5.837   1.265   2.038 -0.2681  1.4602  0.0184
 7633TIP3    H244391   5.899   1.230   1.905 -0.1874  0.0322  0.4202
 7634TIP3   OH244392   2.238   4.949   0.211 -0.2669 -0.1616  0.2061
 7634TIP3    H144393   2.217   4.875   0.269  0.1710 -0.6771 -0.2856
 7634TIP3    H244394   2.251   4.909   0.125 -1.0545  0.6180 -0.2862
 7635TIP3   OH244395   0.520   3.601  13.193 -0.5723  0.7208  0.4503
 7635TIP3    H144396   0.498   3.589  13.101 -1.1920 -0.2397  0.7148
 7635TIP3    H244397   0.451   3.658  13.228 -0.2885  1.1582  0.3103
 7636TIP3   OH244398   0.347   6.762  17.076 -0.1431  0.2335 -0.3212
 7636TIP3    H144399   0.316   6.789  16.990 -3.0563  1.3069  0.9845
 7636TIP3    H244400   0.271   6.772  17.133  1.7772 -0.1974  2.4471
 7637TIP3   OH244401   2.924   0.776  15.483  0.2506 -0.3166 -0.0379
 7637TIP3    H144402   2.980   0.698  15.478  0.1130 -0.3587 -1.2391
 7637TIP3    H244403   2.874   0.774  15.401 -0.1058  0.7677  0.1481
 7638TIP3   OH244404   6.067   6.375   0.325  0.0024  0.3605 -0.3376
 7638TIP3    H144405   6.060   6.434   0.400  0.3660  0.4714 -0.3911
 7638TIP3    H244406   6.152   6.395   0.286 -0.8657  1.4669 -1.7461
 7639TIP3   OH244407   4.605   0.222   6.521 -0.0207  0.4455 -0.2701
 7639TIP3    H144408   4.618   0.234   6.427 -1.7928 -1.4895 -0.7851
 7639TIP3    H244409   4.609   0.310   6.557 -1.6923  1.4720 -2.4753
 7640TIP3   OH244410   0.258   3.698  13.264 -0.1040  0.3124 -0.0494
 7640TIP3    H144411   0.269   3.790  13.243 -2.4747  0.9732  1.3625
 7640TIP3    H244412   0.195   3.665  13.200 -2.1515  0.6629  1.6993
 7641TIP3   OH244413   0.135   5.321   6.157  0.0482  0.0108 -0.2147
 7641TIP3    H144414   0.067   5.253   6.158 -0.7486  0.7892 -0.9330
 7641TIP3    H244415   0.152   5.340   6.249  0.2091 -1.0855 -0.0059
 7642TIP3   OH244416   3.142   2.490   6.030  0.3250  0.3224  0.3652
 7642TIP3    H144417   3.077   2.532   5.973  0.6705 -2.6111 -2.2918
 7642TIP3    H244418   3.100   2.489   6.116 -2.5733 -0.1209 -0.9786
 7643TIP3   OH244419   6.799   1.146  12.583 -0.1343 -0.2421  0.8198
 7643TIP3    H144420   6.815   1.054  12.563 -0.4950  0.0208 -0.7038
 7643TIP3    H244421   6.884   1.180  12.609  0.4502 -0.4510 -0.8229
 7644TIP3   OH244422   3.184   5.843  13.975 -0.2566 -0.2078 -0.1300
 7644TIP3    H144423   3.111   5.904  13.990 -0.6083 -0.6538 -0.0300
 7644TIP3    H244424   3.168   5.772  14.037 -1.1192 -1.5243 -1.8347
 7645TIP3   OH244425   0.124   1.119  16.581 -0.7693 -0.0888  0.5808
 7645TIP3    H144426   0.137   1.139  16.488  0.2410 -0.0808  0.7188
 7645TIP3    H244427   0.154   1.029  16.590  0.5248  0.3792  1.1722
 7646TIP3   OH244428   2.069   2.397  12.837  0.1268  0.2161  0.1006
 7646TIP3    H144429   2.135   2.388  12.906 -0.2664  0.0074  0.4583
 7646TIP3    H244430   2.071   2.313  12.791 -0.5049 -0.1189  0.6737
 7647TIP3   OH244431   6.344   5.334   1.443 -0.5227  0.5814 -0.7492
 7647TIP3    H144432   6.316   5.250   1.407 -0.0476 -0.1046  0.4366
 7647TIP3    H244433   6.298   5.399   1.391 -0.4217 -0.3934 -2.0924
 7648TIP3   OH244434   3.231   0.305   5.738  0.1029 -0.0590 -0.0045
 7648TIP3    H144435   3.219   0.373   5.804  0.1276 -0.0891  0.0308
 7648TIP3    H244436   3.240   0.353   5.656 -1.4322 -0.0959 -0.1940
 7649TIP3   OH244437   3.905   5.652  17.140  0.3190 -0.0268  0.1676
 7649TIP3    H144438   3.969   5.583  17.124  0.6215 -0.1955  2.0323
 7649TIP3    H244439   3.938   5.700  17.216 -1.3211  0.3980  0.6517
 7650TIP3   OH244440   3.655   0.042  14.040 -0.0249  0.1717 -0.8011
 7650TIP3    H144441   3.625   0.054  13.950 -0.4790  0.1481 -0.6555
 7650TIP3    H244442   3.576   0.050  14.093  0.2747  0.4169 -0.3834
 7651TIP3   OH244443   4.632   4.796  11.848 -0.0155  0.3146  0.0163
 7651TIP3    H144444   4.544   4.835  11.847  0.5455  1.5901 -1.4734
 7651TIP3    H244445   4.687   4.862  11.890  0.7845  0.7790 -1.7421
 7652TIP3   OH244446   2.452   4.809  15.526  0.1564 -0.0680  1.1501
 7652TIP3    H144447   2.429   4.902  15.519  0.2405 -0.1595 -0.5197
 7652TIP3    H244448   2.498   4.790  15.445  0.2077 -1.5596  1.5252
 7653TIP3   OH244449   0.816   4.265  10.237 -0.1729 -0.4972  0.1517
 7653TIP3    H144450   0.763   4.265  10.317 -0.5645 -1.7619 -0.0970
 7653TIP3    H244451   0.761   4.223  10.171  0.3154  0.1418 -0.6883
 7654TIP3   OH244452   1.458   2.563  16.617 -0.4469 -0.1482 -0.3894
 7654TIP3    H144453   1.392   2.527  16.558  0.8206 -0.6952 -1.5275
 7654TIP3    H244454   1.472   2.652  16.585  1.2201 -0.8840 -1.8351
 7655TIP3   OH244455   5.297   2.511  12.282 -0.3906 -0.0301  0.1816
 7655TIP3    H144456   5.290   2.425  12.325  1.9895 -0.4993 -0.3147
 7655TIP3    H244457   5.373   2.552  12.323 -2.0416  2.2556  1.0670
 7656TIP3   OH244458   5.512   3.363   3.547  0.5316 -0.2758  0.0434
 7656TIP3    H144459   5.417   3.346   3.543  0.5648 -0.6191  0.6054
 7656TIP3    H244460   5.525   3.401   3.634  0.7500  0.8328 -0.4642
 7657TIP3   OH244461   3.062   0.062   5.114 -0.0740 -0.0673 -0.2922
 7657TIP3    H144462   3.028   0.117   5.044  2.1259  2.2937  0.4362
 7657TIP3    H244463   3.019   0.095   5.193 -0.1977 -0.6827 -0.0990
 7658TIP3   OH244464   1.111   6.529  16.091  0.3629 -0.1121 -0.0954
 7658TIP3    H144465   1.024   6.500  16.065  0.7439 -0.7344 -0.6830
 7658TIP3    H244466   1.096   6.580  16.171 -0.5562 -0.0478 -0.2991
 7659TIP3   OH244467   6.637   0.075  13.366 -0.0843 -0.0729  0.1857
 7659TIP3    H144468   6.710   0.115  13.319 -1.2868  1.4361 -0.4625
 7659TIP3    H244469   6.626  -0.011  13.326  1.4167 -0.3438  0.3682
 7660TIP3   OH244470   6.329   1.820  13.152 -0.0165  0.4223 -0.3971
 7660TIP3    H144471   6.261   1.755  13.169  0.0152  0.6264  0.5480
 7660TIP3    H244472   6.394   1.806  13.221  0.6367  0.5795 -0.9763
 7661TIP3   OH244473   6.199   0.268   4.370  0.1854 -0.0199 -0.3071
 7661TIP3    H144474   6.240   0.267   4.284  0.6989 -1.1835 -0.0573
 7661TIP3    H244475   6.273   0.273   4.431 -0.2079  2.8000  0.0538
 7662TIP3   OH244476   6.251   0.034   1.323  0.2472  0.4091  0.0426
 7662TIP3    H144477   6.277  -0.034   1.261 -1.5285 -0.6995  0.4937
 7662TIP3    H244478   6.165   0.063   1.292  0.0571  0.9793  1.0764
 7663TIP3   OH244479   2.889   5.041   1.912  0.0254 -0.1036 -0.2159
 7663TIP3    H144480   2.845   5.106   1.857  1.0690  0.6134 -0.2047
 7663TIP3    H244481   2.933   4.983   1.849 -0.4612 -0.4851 -0.2065
 7664TIP3   OH244482   5.590   4.198   1.797  0.2813 -0.6942 -0.1686
 7664TIP3    H144483   5.627   4.110   1.795 -0.3503 -0.9513 -1.2432
 7664TIP3    H244484   5.662   4.254   1.826  0.5197 -1.6351  1.0711
 7665TIP3   OH244485   0.401   0.645  12.344  0.2148 -0.1405  0.0618
 7665TIP3    H144486   0.395   0.559  12.386 -1.7653  0.3634  0.8595
 7665TIP3    H244487   0.332   0.697  12.386 -0.1746  1.1256 -2.0918
 7666TIP3   OH244488   2.694   4.422  13.456 -0.8123  0.3303  0.1462
 7666TIP3    H144489   2.749   4.369  13.513  0.3855  0.1396 -1.1780
 7666TIP3    H244490   2.755   4.465  13.396 -1.8320  2.5599  0.6435
 7667TIP3   OH244491   6.618   6.050   0.032  0.5673  0.3409  0.2719
 7667TIP3    H144492   6.591   5.967  -0.006 -1.0042  0.1982  1.6392
 7667TIP3    H244493   6.627   6.032   0.126  3.6113  0.8758  0.1590
 7668TIP3   OH244494   6.529   5.490   2.685  0.4644  0.9806  0.5295
 7668TIP3    H144495   6.449   5.534   2.656  0.0184  0.0773  0.3858
 7668TIP3    H244496   6.500   5.432   2.755  1.0543  0.9054  0.7110
 7669TIP3   OH244497   3.090   2.017  14.920 -0.3209 -0.1069 -0.1527
 7669TIP3    H144498   3.177   2.026  14.880 -0.2369 -0.8579 -0.1578
 7669TIP3    H244499   3.102   2.044  15.011  0.5823 -2.8263  0.6039
 7670TIP3   OH244500   3.624   3.364  14.034 -0.1675  0.9597 -0.6054
 7670TIP3    H144501   3.570   3.428  14.079  1.6530  2.1738 -0.1305
 7670TIP3    H244502   3.701   3.412  14.005  1.1241 -0.9402 -0.4631
 7671TIP3   OH244503   2.240   2.349  13.054 -0.5161 -0.0771 -0.1187
 7671TIP3    H144504   2.287   2.398  13.121  1.5101 -0.6164 -1.0776
 7671TIP3    H244505   2.262   2.257  13.072 -1.6407 -0.3906 -0.2867
 7672TIP3   OH244506   2.747   2.044   0.350  0.3323 -0.2192 -1.0920
 7672TIP3    H144507   2.753   1.954   0.381 -0.3747 -0.1163 -0.6423
 7672TIP3    H244508   2.661   2.074   0.380  0.6866  0.6975 -0.9824
 7673TIP3   OH244509   5.314   4.024  15.213 -0.1995  0.7993  0.5146
 7673TIP3    H144510   5.328   4.052  15.122  1.1227  1.3878  0.8708
 7673TIP3    H244511   5.292   4.105  15.259  2.8673  1.2119  1.4058
 7674TIP3   OH244512   5.153   3.175  11.171  0.7899 -0.3230 -0.0779
 7674TIP3    H144513   5.125   3.262  11.143  0.9346 -1.0179 -2.5390
 7674TIP3    H244514   5.086   3.146  11.233 -0.4110  0.6783 -0.9037
 7675TIP3   OH244515   6.585   4.161   1.381  0.0574 -0.9546 -0.3201
 7675TIP3    H144516   6.502   4.137   1.339 -0.6984 -0.0163  0.6126
 7675TIP3    H244517   6.619   4.078   1.414  0.3225 -1.5987 -2.1597
 7676TIP3   OH244518   2.761   2.631   2.594  0.2894 -0.1525  0.2764
 7676TIP3    H144519   2.820   2.701   2.568  0.7227 -0.5511  0.1853
 7676TIP3    H244520   2.678   2.651   2.550  0.7779 -0.3773 -0.7364
 7677TIP3   OH244521   6.038   1.632  12.202 -0.3959  0.0907 -0.2505
 7677TIP3    H144522   6.013   1.540  12.213 -1.7307  0.3144 -1.2532
 7677TIP3    H244523   6.103   1.631  12.131 -1.2705  0.0250 -1.0697
 7678TIP3   OH244524   5.766   0.780  16.008  0.6958 -0.3316 -0.3799
 7678TIP3    H144525   5.718   0.827  16.076 -0.6180 -1.1869 -0.6946
 7678TIP3    H244526   5.811   0.848  15.959 -2.0261  0.7494 -1.4891
 7679TIP3   OH244527   2.021   1.889   5.966  0.0376  0.2283 -0.4222
 7679TIP3    H144528   2.101   1.889   6.019 -0.1772  3.1639  0.0147
 7679TIP3    H244529   1.957   1.843   6.020  0.7424  0.1802  0.3948
 7680TIP3   OH244530   1.561   5.369   5.782 -0.8669 -0.1070  0.1811
 7680TIP3    H144531   1.580   5.276   5.785 -1.2503 -0.1888  0.0877
 7680TIP3    H244532   1.488   5.378   5.721  0.4058  0.4753 -1.2898
 7681TIP3   OH244533   0.259   3.732   3.281 -0.1959 -0.0170 -0.4633
 7681TIP3    H144534   0.328   3.765   3.339  1.2077  0.3832 -2.3148
 7681TIP3    H244535   0.181   3.727   3.337  0.8344  1.4622  1.1533
 7682TIP3   OH244536   1.507   4.094  13.229  0.1663  0.1137  0.0372
 7682TIP3    H144537   1.511   4.187  13.206 -0.1781  0.3231  0.8203
 7682TIP3    H244538   1.511   4.093  13.325 -1.4783 -0.5963  0.1031
 7683TIP3   OH244539   4.025   5.972   5.815  0.3598 -0.0192 -0.4992
 7683TIP3    H144540   3.944   5.977   5.764 -0.4133  0.4445  0.7247
 7683TIP3    H244541   3.996   5.987   5.906  1.4906 -2.2359  0.2524
 7684TIP3   OH244542   4.533   3.004  14.198 -0.3524 -0.4011  0.1363
 7684TIP3    H144543   4.492   3.066  14.258 -0.0562  1.2355 -1.3424
 7684TIP3    H244544   4.470   2.993  14.127  0.2113 -0.6764 -0.3302
 7685TIP3   OH244545   2.567   5.430   5.927  1.2587  0.0124 -0.2483
 7685TIP3    H144546   2.536   5.366   5.863  0.5473  0.6751 -0.5914
 7685TIP3    H244547   2.487   5.456   5.974  1.4902  0.8190 -0.2887
 7686TIP3   OH244548   0.584   5.796   2.234  0.3168 -0.3286 -0.5325
 7686TIP3    H144549   0.651   5.734   2.206  0.4073  0.0297 -1.1267
 7686TIP3    H244550   0.517   5.742   2.276  0.8071 -0.7269 -0.2681
 7687TIP3   OH244551   1.552   6.142   0.078  0.3212 -0.1743 -0.1043
 7687TIP3    H144552   1.555   6.051   0.047  3.3589  1.1219 -4.0076
 7687TIP3    H244553   1.641   6.161   0.107 -0.5848  1.2282  1.8949
 7688TIP3   OH244554   3.434   0.453  16.177  0.0842  0.1246  0.3233
 7688TIP3    H144555   3.527   0.453  16.198  0.1592  0.3845 -0.0056
 7688TIP3    H244556   3.393   0.494  16.253  0.3961  1.4340 -0.2000
 7689TIP3   OH244557   1.358   4.033   1.261 -0.6839  1.3318  0.1548
 7689TIP3    H144558   1.263   4.042   1.261 -0.7294  0.9674  1.4604
 7689TIP3    H244559   1.376   3.966   1.327  0.3766  0.2384 -1.2043
 7690TIP3   OH244560   1.015   0.250   3.174 -0.2664 -0.6346 -0.0728
 7690TIP3    H144561   0.954   0.219   3.242 -0.4785 -1.5640 -0.6769
 7690TIP3    H244562   1.090   0.192   3.182  1.2794  1.5487  1.7728
 7691TIP3   OH244563   1.227   6.288   5.618  0.0939  0.4830  0.5813
 7691TIP3    H144564   1.170   6.243   5.682 -0.5301 -0.1857 -0.4303
 7691TIP3    H244565   1.244   6.222   5.551  3.1923  0.2629  1.5357
 7692TIP3   OH244566   2.718   5.091  10.969  0.3950 -0.1022  0.4946
 7692TIP3    H144567   2.654   5.078  11.039  0.0555  0.2978  0.2631
 7692TIP3    H244568   2.674   5.062  10.889  0.9090 -0.8951  0.4898
 7693TIP3   OH244569   4.023   3.714  13.390 -0.6279  0.1401  0.1259
 7693TIP3    H144570   4.044   3.808  13.392 -1.5380  0.3537 -0.0731
 7693TIP3    H244571   3.970   3.703  13.312  0.7125 -0.8280 -0.6749
 7694TIP3   OH244572   2.994   3.196   0.076 -0.8649  0.2897 -0.1424
 7694TIP3    H144573   2.957   3.263   0.134 -0.0683  0.2201  0.4567
 7694TIP3    H244574   3.034   3.246   0.005  0.7173  0.5293  0.8825
 7695TIP3   OH244575   4.679   3.792   4.606  0.0983 -0.1750 -0.1974
 7695TIP3    H144576   4.629   3.826   4.680  1.0812  1.0882 -0.0885
 7695TIP3    H244577   4.714   3.869   4.562  1.3508 -0.9870 -0.6857
 7696TIP3   OH244578   6.204   2.181   4.435 -0.7472  0.6538  0.2152
 7696TIP3    H144579   6.249   2.203   4.354 -0.0343  0.0211  0.4381
 7696TIP3    H244580   6.116   2.153   4.408 -0.1025 -0.7743 -0.4329
 7697TIP3   OH244581   2.121   0.432  17.228 -0.1358 -0.8429  0.0390
 7697TIP3    H144582   2.101   0.490  17.302 -0.1226  1.0670 -1.4224
 7697TIP3    H244583   2.041   0.382  17.214 -0.9053  0.4302 -0.1249
 7698TIP3   OH244584   3.117   2.451  10.524  0.2200  0.6882  0.3669
 7698TIP3    H144585   3.184   2.508  10.486  0.1065 -0.2496 -1.3196
 7698TIP3    H244586   3.041   2.508  10.537  0.9869  1.5124  1.2760
 7699TIP3   OH244587   4.340   1.018  17.105 -0.1435 -0.1970  0.3959
 7699TIP3    H144588   4.391   0.996  17.183 -0.1027 -0.1826  0.3722
 7699TIP3    H244589   4.320   1.111  17.115  0.3188 -0.0701  0.1201
 7700TIP3   OH244590   6.784   4.957  11.494 -0.0840 -0.4257 -0.1633
 7700TIP3    H144591   6.846   4.891  11.463  1.0610  0.8928 -0.7390
 7700TIP3    H244592   6.829   5.040  11.479 -1.6418  0.4979  0.2464
 7701TIP3   OH244593   6.635   4.294   3.565 -0.5500  0.3244 -0.6568
 7701TIP3    H144594   6.704   4.263   3.624 -1.2917 -1.8636 -0.8932
 7701TIP3    H244595   6.677   4.363   3.513  0.4626  1.4182  1.5527
 7702TIP3   OH244596   3.765   6.145  15.746 -0.3455  0.3407 -0.0045
 7702TIP3    H144597   3.782   6.144  15.841  0.9463 -1.7994 -0.2107
 7702TIP3    H244598   3.673   6.121  15.738 -0.0600 -1.0547  0.6805
 7703TIP3   OH244599   4.506   5.488   2.720  0.2184  1.0157 -0.3062
 7703TIP3    H144600   4.469   5.454   2.801  0.0062  0.6790 -0.5428
 7703TIP3    H244601   4.508   5.583   2.733 -1.6108  1.1149 -0.6472
 7704TIP3   OH244602   3.103   5.938   5.849  0.0753  0.1165  0.0479
 7704TIP3    H144603   3.114   5.982   5.765  0.3375  1.7486  0.9163
 7704TIP3    H244604   3.104   5.845   5.828 -1.7314  0.5192 -1.9939
 7705TIP3   OH244605   4.118   6.505  11.581  0.0676  0.2795  0.0220
 7705TIP3    H144606   4.087   6.420  11.613  1.6351 -1.0562 -1.8158
 7705TIP3    H244607   4.094   6.505  11.488  0.6238  1.5857 -0.1214
 7706TIP3   OH244608   5.713   5.762   3.445 -0.1792  0.0382 -0.8691
 7706TIP3    H144609   5.631   5.718   3.467 -1.0782  1.8353 -0.4902
 7706TIP3    H244610   5.746   5.794   3.529  1.4555 -1.5297 -0.8747
 7707TIP3   OH244611   6.389   3.901   3.072 -0.0555 -0.0899  0.5286
 7707TIP3    H144612   6.335   3.932   3.145 -1.0189  0.6152 -0.4741
 7707TIP3    H244613   6.359   3.812   3.055 -0.3658  0.0220  0.4889
 7708TIP3   OH244614   6.331   5.899  16.409  0.0673 -0.4149  0.3640
 7708TIP3    H144615   6.295   5.987  16.400  0.0815 -0.5638 -1.3366
 7708TIP3    H244616   6.411   5.911  16.460  0.1810  0.5851 -0.0433
 7709TIP3   OH244617   0.459   5.484   0.941 -0.5568 -0.1132  0.3838
 7709TIP3    H144618   0.449   5.576   0.967 -0.9935 -0.0620  0.0396
 7709TIP3    H244619   0.548   5.461   0.969 -0.2358  0.5858 -0.0460
 7710TIP3   OH244620   1.842   3.591   0.168 -0.2377  0.7850 -0.1919
 7710TIP3    H144621   1.803   3.651   0.232 -1.8835 -1.0409  0.5859
 7710TIP3    H244622   1.817   3.626   0.083  1.3546  2.8431  0.1484
 7711TIP3   OH244623   1.034   2.528   2.474  0.2021 -0.0232  0.1825
 7711TIP3    H144624   1.059   2.436   2.458  0.0921  0.1925 -1.2715
 7711TIP3    H244625   1.054   2.542   2.567 -0.7879 -1.8417  0.7102
 7712TIP3   OH244626   2.989   1.860   4.174  0.1266 -0.1503  0.3785
 7712TIP3    H144627   2.912   1.885   4.124  0.6861 -1.0193 -0.9628
 7712TIP3    H244628   3.050   1.933   4.164 -0.0791  0.0305  0.4600
 7713TIP3   OH244629   6.728   5.808   3.725 -0.1315  0.3486 -0.0418
 7713TIP3    H144630   6.813   5.768   3.746 -0.4377 -0.5498 -0.5023
 7713TIP3    H244631   6.750   5.898   3.700  0.5579  0.4798  1.0099
 7714TIP3   OH244632   1.325   5.528  16.751 -0.4795 -0.0180  1.0033
 7714TIP3    H144633   1.250   5.546  16.695  0.1197 -0.4045  0.0653
 7714TIP3    H244634   1.352   5.439  16.728  2.7335  1.5095 -1.6021
 7715TIP3   OH244635   2.894   4.497   1.832 -0.1873 -0.2193  0.5228
 7715TIP3    H144636   2.862   4.560   1.897  0.3305  0.0138  0.5501
 7715TIP3    H244637   2.986   4.518   1.821 -0.3057 -0.1724 -0.4017
 7716TIP3   OH244638   5.814   3.547   1.312 -0.2307 -0.1525 -0.1353
 7716TIP3    H144639   5.798   3.467   1.260 -1.5781  0.8527 -1.3085
 7716TIP3    H244640   5.899   3.532   1.352  0.7581 -1.0848 -2.4729
 7717TIP3   OH244641   1.898   4.079   0.601  0.4452  0.1124 -0.5756
 7717TIP3    H144642   1.986   4.116   0.609  0.9052 -1.3965  1.6783
 7717TIP3    H244643   1.900   4.031   0.518  0.2711  3.8399 -2.8371
 7718TIP3   OH244644   5.835   5.444  11.052 -0.7630  0.2499 -0.0961
 7718TIP3    H144645   5.770   5.411  11.115 -1.6889  0.4911 -0.9213
 7718TIP3    H244646   5.811   5.535  11.039 -0.9045  0.0525 -1.2214
 7719TIP3   OH244647   3.066   5.810   5.003  0.2117 -0.5843  0.1588
 7719TIP3    H144648   3.053   5.890   5.056  0.4676 -0.9791  0.8195
 7719TIP3    H244649   3.131   5.760   5.052 -0.9491 -1.8237  0.4477
 7720TIP3   OH244650   0.187   3.819   4.757 -0.1013 -0.7751 -0.2014
 7720TIP3    H144651   0.135   3.787   4.684 -0.1988  0.2938 -0.6138
 7720TIP3    H244652   0.209   3.741   4.808 -1.0193 -1.3788 -0.7283
 7721TIP3   OH244653   1.226   4.795   6.741  0.3215 -0.4426 -0.1480
 7721TIP3    H144654   1.227   4.793   6.646  1.5950 -1.6945 -0.1340
 7721TIP3    H244655   1.317   4.814   6.765  0.3391 -1.6909  0.8207
 7722TIP3   OH244656   6.501   3.738  16.696 -0.0294  0.5514 -0.0542
 7722TIP3    H144657   6.494   3.803  16.626 -0.3346  1.1297  0.4996
 7722TIP3    H244658   6.432   3.675  16.677 -0.1240  0.7171 -0.2703
 7723TIP3   OH244659   6.535   1.741   2.856  0.2178  0.1747  0.4811
 7723TIP3    H144660   6.599   1.691   2.806  0.6660 -0.6879  1.8968
 7723TIP3    H244661   6.561   1.730   2.948 -0.1602  2.3049  0.8896
 7724TIP3   OH244662   3.378   4.676  13.815 -0.3914 -0.4660 -0.6885
 7724TIP3    H144663   3.361   4.641  13.902 -0.3096  0.0382 -0.4709
 7724TIP3    H244664   3.291   4.692  13.778 -0.4236 -0.5126 -0.6332
 7725TIP3   OH244665   3.429   5.690  15.577 -0.1938 -0.1309  0.2287
 7725TIP3    H144666   3.418   5.773  15.624  1.1824  0.0446  0.2563
 7725TIP3    H244667   3.507   5.651  15.615 -0.5815 -1.2517 -0.0883
 7726TIP3   OH244668   0.644   3.431  15.256 -0.3607 -0.1679  0.1759
 7726TIP3    H144669   0.594   3.403  15.179  1.5181  0.3814 -1.2683
 7726TIP3    H244670   0.624   3.524  15.265 -1.9530 -0.6137  1.4245
 7727TIP3   OH244671   5.729   6.041  15.858 -0.3035  0.0500 -0.3445
 7727TIP3    H144672   5.676   5.970  15.896 -2.2552  1.9766  0.7199
 7727TIP3    H244673   5.734   6.021  15.765  0.9408 -2.5572  0.2621
 7728TIP3   OH244674   3.102   1.407   3.638  0.4424  0.7741 -0.1729
 7728TIP3    H144675   3.138   1.427   3.552 -0.1515  0.8191 -0.4117
 7728TIP3    H244676   3.019   1.454   3.641  0.4806  0.8024  0.4376
 7729TIP3   OH244677   4.402   3.391   1.069 -0.2415 -0.1607 -0.2422
 7729TIP3    H144678   4.485   3.343   1.074  0.7436  1.5997  0.7349
 7729TIP3    H244679   4.381   3.393   0.975  1.3867  0.2957 -0.6169
 7730TIP3   OH244680   0.997   5.283   4.050 -0.2153  0.1131  0.3378
 7730TIP3    H144681   1.051   5.216   4.007  1.2503  0.4853  1.5328
 7730TIP3    H244682   1.045   5.365   4.034 -0.6444  0.5129  1.0889
 7731TIP3   OH244683   6.801   2.569  14.422  0.4694  0.4999  0.2253
 7731TIP3    H144684   6.750   2.623  14.481 -1.0906  0.2776 -0.8779
 7731TIP3    H244685   6.890   2.603  14.428 -0.1115  1.9023  1.0042
 7732TIP3   OH244686   0.283   6.605  16.091 -0.6189 -0.1117 -0.8211
 7732TIP3    H144687   0.281   6.680  16.032  1.9060  1.3355  0.8354
 7732TIP3    H244688   0.370   6.567  16.078 -0.0790  0.1550  1.8135
 7733TIP3   OH244689   2.037   6.402  15.972  0.4930 -0.3079 -0.3461
 7733TIP3    H144690   1.961   6.459  15.958 -0.9483 -2.6212 -2.2028
 7733TIP3    H244691   2.092   6.415  15.895  2.4178  1.9048  1.3207
 7734TIP3   OH244692   1.038   5.193   4.618 -0.3210  0.1513 -0.1856
 7734TIP3    H144693   0.994   5.133   4.679  0.7222 -0.4738 -0.0305
 7734TIP3    H244694   0.972   5.212   4.551 -1.9760  1.9753  1.8701
 7735TIP3   OH244695   4.736   2.932  15.692  0.5777 -0.3079 -0.4337
 7735TIP3    H144696   4.743   2.852  15.744  0.4183  0.4171  0.7047
 7735TIP3    H244697   4.663   2.915  15.632 -0.7339 -0.2610  1.1392
 7736TIP3   OH244698   0.056   4.130   1.132  0.4922  0.0705  0.1596
 7736TIP3    H144699   0.016   4.058   1.181  0.0687 -0.3034 -0.7127
 7736TIP3    H244700   0.104   4.180   1.197  0.2963 -0.6662  0.8805
 7737TIP3   OH244701   1.955   0.973  11.709  0.1487 -0.5298  0.2055
 7737TIP3    H144702   2.017   0.907  11.678  0.3165  0.0100 -0.6235
 7737TIP3    H244703   1.981   1.054  11.664  1.3106  0.6280  2.8665
 7738TIP3   OH244704   6.096   4.391   5.770  0.6075  0.4003 -0.1251
 7738TIP3    H144705   6.143   4.472   5.748 -0.1953  0.5579 -1.3146
 7738TIP3    H244706   6.096   4.389   5.866 -0.3361  2.4117 -0.0521
 7739TIP3   OH244707   5.173   2.158   4.801  0.4825  0.2556  0.4236
 7739TIP3    H144708   5.139   2.125   4.884 -0.1355 -1.3258 -0.4329
 7739TIP3    H244709   5.260   2.193   4.823  1.3234 -2.2865  1.3358
 7740TIP3   OH244710   1.564   5.720  11.853 -0.3011  0.4385  0.4847
 7740TIP3    H144711   1.549   5.813  11.867 -0.5252  0.1437  2.4895
 7740TIP3    H244712   1.629   5.715  11.783 -2.2960  1.9984 -1.5180
 7741TIP3   OH244713   4.134   4.231  16.114  0.5578 -0.4663  0.4506
 7741TIP3    H144714   4.151   4.165  16.182 -1.0454 -2.2586 -0.8245
 7741TIP3    H244715   4.096   4.305  16.161  3.1062 -0.1002  2.0163
 7742TIP3   OH244716   2.270   0.654  14.580 -0.3786  0.1688 -0.2588
 7742TIP3    H144717   2.225   0.604  14.648  1.6069  1.0672  1.7638
 7742TIP3    H244718   2.260   0.745  14.606 -2.4090  0.7922 -2.9643
 7743TIP3   OH244719   1.922   6.075  13.204  0.2758 -0.0892  0.0671
 7743TIP3    H144720   1.871   6.067  13.123 -1.0770  1.0313  0.7863
 7743TIP3    H244721   1.972   6.155  13.193  1.0461 -0.5937 -0.1642
 7744TIP3   OH244722   4.835   3.221  16.631  0.2840 -0.2616 -0.1491
 7744TIP3    H144723   4.780   3.149  16.603  0.1339 -0.8054  1.5343
 7744TIP3    H244724   4.817   3.291  16.568 -0.3645 -1.3187 -1.1428
 7745TIP3   OH244725   0.306   4.838   4.284 -0.3753  0.3415 -0.2447
 7745TIP3    H144726   0.337   4.840   4.194  1.6972  0.8706  0.4417
 7745TIP3    H244727   0.277   4.748   4.298 -0.1675  0.1178 -1.2733
 7746TIP3   OH244728   1.131   3.407  11.796  0.4749  0.2109 -0.4271
 7746TIP3    H144729   1.226   3.414  11.795  0.4230  0.7783 -1.9738
 7746TIP3    H244730   1.100   3.483  11.746 -0.7471 -0.6378 -0.9979
 7747TIP3   OH244731   4.583   5.672   0.650  0.0790 -0.5486 -0.2306
 7747TIP3    H144732   4.559   5.758   0.615  0.2886 -0.0528  0.8311
 7747TIP3    H244733   4.502   5.620   0.645 -0.2857 -0.0007 -0.0070
 7748TIP3   OH244734   2.117   4.805  14.635 -0.6092 -0.3153  0.1033
 7748TIP3    H144735   2.084   4.722  14.671  1.8121 -0.9921  0.8688
 7748TIP3    H244736   2.113   4.793  14.540 -2.1360 -0.5464  0.1932
 7749TIP3   OH244737   0.955   2.683   0.731 -0.5481  0.2468  0.3357
 7749TIP3    H144738   0.941   2.690   0.637  0.7311  1.4115  0.2137
 7749TIP3    H244739   1.031   2.739   0.748  0.3312 -1.3505  1.7837
 7750TIP3   OH244740   4.620   0.265   4.607 -0.0877 -0.2925 -0.1482
 7750TIP3    H144741   4.676   0.289   4.534 -1.2726 -1.1652 -1.3724
 7750TIP3    H244742   4.533   0.257   4.569 -1.3089  2.2467  1.9406
 7751TIP3   OH244743   6.644   4.925   2.090 -0.5636 -0.1253  0.5194
 7751TIP3    H144744   6.639   4.903   1.997  0.7927 -1.5614  0.7750
 7751TIP3    H244745   6.571   4.877   2.130  1.1193 -2.5952  0.7477
 7752TIP3   OH244746   2.162   6.192  12.673  0.1721  0.3830 -0.0578
 7752TIP3    H144747   2.185   6.102  12.693 -0.7703  0.0489 -0.4376
 7752TIP3    H244748   2.241   6.242  12.691  1.3902 -0.8128 -1.9030
 7753TIP3   OH244749   6.548   4.986   3.813  0.1155  0.4039  0.3572
 7753TIP3    H144750   6.632   4.969   3.770  0.2790  0.4281  0.6651
 7753TIP3    H244751   6.484   4.982   3.742  0.2909 -0.3308  0.2362
 7754TIP3   OH244752   6.379   1.332   0.954 -0.4153 -0.5777 -0.1664
 7754TIP3    H144753   6.309   1.304   1.013  0.1552 -0.3817  0.6130
 7754TIP3    H244754   6.334   1.370   0.879 -1.1457 -0.3655  0.3779
 7755TIP3   OH244755   6.257   6.457  16.872 -0.1605 -0.0081 -0.9079
 7755TIP3    H144756   6.277   6.551  16.864 -1.0123  0.3493  1.0099
 7755TIP3    H244757   6.342   6.414  16.867  0.2977  0.8992 -1.1248
 7756TIP3   OH244758   0.591   3.606   1.213  0.3628  0.0385  0.6511
 7756TIP3    H144759   0.606   3.512   1.222 -1.4073 -0.3922 -0.4602
 7756TIP3    H244760   0.521   3.613   1.148  1.8482  2.2262 -0.7883
 7757TIP3   OH244761   0.082   1.629   0.434  0.0658 -0.1685 -0.3595
 7757TIP3    H144762   0.094   1.591   0.521  0.6897 -0.2048 -0.4618
 7757TIP3    H244763  -0.011   1.617   0.416  0.1121 -0.9924 -0.0864
 7758TIP3   OH244764   3.373   2.960  13.725  0.3407  0.1804  0.1556
 7758TIP3    H144765   3.291   3.007  13.740  0.1598  0.4154 -1.4791
 7758TIP3    H244766   3.441   3.021  13.754 -0.0515 -0.2425  2.0764
 7759TIP3   OH244767   5.085   1.500  16.907 -0.0236 -0.3886  0.1150
 7759TIP3    H144768   5.142   1.465  16.839  1.0028  1.7614 -0.1728
 7759TIP3    H244769   5.081   1.430  16.973  2.4636 -0.8204 -0.1427
 7760TIP3   OH244770   4.255   3.368   1.311 -0.2391 -0.4442 -0.1207
 7760TIP3    H144771   4.299   3.307   1.371 -1.3476  0.4005  1.5963
 7760TIP3    H244772   4.320   3.386   1.243  1.7003 -0.0103  1.8118
 7761TIP3   OH244773   2.857   2.414  15.781  0.1829 -0.2881 -0.4958
 7761TIP3    H144774   2.768   2.439  15.807  0.1593  0.0975 -0.9424
 7761TIP3    H244775   2.844   2.362  15.701  0.4740  1.1538 -1.4920
 7762TIP3   OH244776   6.451   1.852  11.275 -0.2088  0.1464 -0.3200
 7762TIP3    H144777   6.432   1.772  11.225  1.7109 -0.4168 -0.1843
 7762TIP3    H244778   6.529   1.888  11.233 -0.4810  1.4208  0.2524
 7763TIP3   OH244779   1.715   3.931   2.103  0.0350  0.3486 -0.0927
 7763TIP3    H144780   1.658   3.998   2.140 -2.1153 -0.4919 -1.7727
 7763TIP3    H244781   1.706   3.856   2.162  1.3169  1.0117  0.9783
 7764TIP3   OH244782   5.634   0.470  17.045 -0.3631  0.1245  0.4299
 7764TIP3    H144783   5.602   0.552  17.008  0.4826  0.4271  0.3644
 7764TIP3    H244784   5.728   0.472  17.031 -0.1410 -0.1716  1.7638
 7765TIP3   OH244785   4.652   2.934  13.225 -0.1708 -0.3402 -0.7140
 7765TIP3    H144786   4.588   2.876  13.266 -0.2818 -1.1132 -1.9679
 7765TIP3    H244787   4.733   2.917  13.272 -0.7962  0.4485  0.7048
 7766TIP3   OH244788   1.863   6.142  11.945  0.0133  0.4210 -0.1068
 7766TIP3    H144789   1.917   6.145  11.866  0.0223  1.0451 -0.0756
 7766TIP3    H244790   1.921   6.174  12.015  0.5796 -1.7962  0.4853
 7767TIP3   OH244791   5.398   0.688   4.128 -0.4419 -0.0243  0.0951
 7767TIP3    H144792   5.487   0.707   4.159 -0.9798 -0.5812  2.0478
 7767TIP3    H244793   5.345   0.760   4.160 -1.1419 -0.9776  1.1256
 7768TIP3   OH244794   0.799   4.207   2.024  0.0512  1.0907  0.0131
 7768TIP3    H144795   0.882   4.198   1.978  0.0782  3.1341 -0.3798
 7768TIP3    H244796   0.822   4.206   2.117 -0.0058 -3.0740  0.0521
 7769TIP3   OH244797   6.115   1.592  16.881 -0.1377 -0.1791  0.1919
 7769TIP3    H144798   6.171   1.598  16.803  0.9236 -1.6966  0.8271
 7769TIP3    H244799   6.063   1.672  16.878  0.1523 -0.0316 -1.8757
 7770TIP3   OH244800   4.951   3.904   2.460 -0.2343 -0.4058 -0.6058
 7770TIP3    H144801   4.932   3.819   2.501  0.0788 -0.0337  0.3309
 7770TIP3    H244802   5.046   3.904   2.449 -0.3958 -0.8397 -2.1009
 7771TIP3   OH244803   0.180   1.550  12.078 -0.1370 -0.8901 -0.4027
 7771TIP3    H144804   0.130   1.610  12.022 -0.0896  0.3411  0.8583
 7771TIP3    H244805   0.133   1.466  12.070 -2.8298  0.3996  1.2804
 7772TIP3   OH244806   4.156   3.948  14.505  0.1518  0.0538  0.0195
 7772TIP3    H144807   4.191   3.917  14.421 -0.3053 -0.3534 -0.0154
 7772TIP3    H244808   4.136   3.869  14.554  1.8559  0.2784  1.1191
 7773TIP3   OH244809   1.109   0.502  13.866 -0.0953  0.9225  0.1249
 7773TIP3    H144810   1.158   0.559  13.927  0.2668  0.2124  0.5027
 7773TIP3    H244811   1.037   0.468  13.919 -0.8521  1.7505 -0.3595
 7774TIP3   OH244812   5.874   5.208  13.969 -0.0456 -0.5022 -0.1273
 7774TIP3    H144813   5.783   5.214  13.999  0.5537 -0.3095  1.7568
 7774TIP3    H244814   5.925   5.243  14.042  1.3758  2.1359 -2.2926
 7775TIP3   OH244815   6.781   2.984   2.874  0.1930  0.5712 -0.8121
 7775TIP3    H144816   6.838   2.909   2.856  0.9794  0.8578  0.4203
 7775TIP3    H244817   6.696   2.946   2.895  1.1202 -0.1108  1.8748
 7776TIP3   OH244818   3.213   1.703   1.225  0.1702 -0.7178  0.2820
 7776TIP3    H144819   3.274   1.720   1.296  0.5924 -2.2740  0.3019
 7776TIP3    H244820   3.257   1.638   1.170 -0.0775  0.5948 -1.5038
 7777TIP3   OH244821   4.652   5.748   4.833 -0.0951 -0.2346 -0.0549
 7777TIP3    H144822   4.683   5.838   4.845  0.7980 -0.6645  0.8593
 7777TIP3    H244823   4.573   5.742   4.886 -2.1045  1.0099 -2.7643
 7778TIP3   OH244824   1.294   1.919  14.740  0.1346  0.5540  0.9386
 7778TIP3    H144825   1.209   1.938  14.779 -0.5284  0.3991 -0.3931
 7778TIP3    H244826   1.355   1.979  14.783 -0.8584  1.4722  1.0761
 7779TIP3   OH244827   6.179   3.781  16.802  0.5736 -0.4489  0.3077
 7779TIP3    H144828   6.221   3.711  16.752  0.2231 -0.7404  0.4285
 7779TIP3    H244829   6.212   3.862  16.760 -0.3571 -0.6969 -0.9308
 7780TIP3   OH244830   3.489   0.135   4.771  0.8191 -0.2171 -0.1207
 7780TIP3    H144831   3.513   0.048   4.803 -0.0086 -0.2544  0.4189
 7780TIP3    H244832   3.410   0.120   4.718 -0.0550  0.3538  0.9852
 7781TIP3   OH244833   3.957   5.008  16.248 -0.1694  0.4603 -0.1532
 7781TIP3    H144834   3.999   5.047  16.172 -1.1431  0.8387 -0.5086
 7781TIP3    H244835   3.889   5.071  16.272 -1.5214 -0.8369 -0.5100
 7782TIP3   OH244836   2.620   3.963   4.954  0.3965 -0.0401  0.3863
 7782TIP3    H144837   2.558   3.932   5.020 -0.0267 -1.4254 -0.6174
 7782TIP3    H244838   2.706   3.956   4.997 -0.1150  2.0206  1.8253
 7783TIP3   OH244839   3.952   2.936  16.058 -0.1790 -0.0925 -0.0217
 7783TIP3    H144840   3.864   2.925  16.022 -1.2754  2.5827  1.7279
 7783TIP3    H244841   3.993   3.004  16.003 -0.3849  1.0145  1.1797
 7784TIP3   OH244842   1.887   6.806   1.037  0.6142  0.2013  0.0293
 7784TIP3    H144843   1.829   6.830   1.110  0.1473 -0.8366  0.0069
 7784TIP3    H244844   1.847   6.848   0.961 -0.7186 -1.3669 -0.1625
 7785TIP3   OH244845   0.760   4.789  13.869  0.5696  0.2014  0.7758
 7785TIP3    H144846   0.774   4.802  13.775 -0.8979  1.4699  0.6902
 7785TIP3    H244847   0.730   4.875  13.900  0.3534 -0.3950  2.2613
 7786TIP3   OH244848   2.880   6.753   3.297  0.2578  0.0563  0.5090
 7786TIP3    H144849   2.974   6.754   3.279  0.9136  1.2112  3.5711
 7786TIP3    H244850   2.841   6.803   3.226  1.6162 -2.5949 -2.2242
 7787TIP3   OH244851   5.977   5.585  17.029 -0.5489 -0.1560 -0.3181
 7787TIP3    H144852   6.064   5.602  16.991 -0.8260 -0.8279 -1.2750
 7787TIP3    H244853   5.993   5.519  17.096 -0.1775  0.4414  0.1942
 7788TIP3   OH244854   3.360   5.973  11.991 -0.1235  0.0970 -0.0317
 7788TIP3    H144855   3.294   6.001  12.055  1.1113 -0.2125  1.4145
 7788TIP3    H244856   3.324   5.891  11.956  0.4929 -1.2644  2.3882
 7789TIP3   OH244857   2.624   5.109  15.165  0.3671 -0.2357 -0.1380
 7789TIP3    H144858   2.597   5.103  15.256 -0.5859  1.0153 -0.3207
 7789TIP3    H244859   2.550   5.150  15.121  0.3981 -1.7883 -1.6816
 7790TIP3   OH244860   3.816   3.030  13.319 -0.1587 -0.5167 -0.2989
 7790TIP3    H144861   3.744   3.058  13.262  0.1411 -0.6527 -0.7450
 7790TIP3    H244862   3.882   2.995  13.259  0.4165 -0.1017  0.0815
 7791TIP3   OH244863   0.418   4.080  14.721  0.2673 -0.3340  0.0777
 7791TIP3    H144864   0.378   4.136  14.787  0.6519  0.0257  0.0144
 7791TIP3    H244865   0.467   4.014  14.770  1.0153  0.2710  0.1603
 7792TIP3   OH244866   6.136   1.603  13.006 -0.2543  0.0899  0.1720
 7792TIP3    H144867   6.209   1.577  13.062  0.1529 -1.8908 -1.2060
 7792TIP3    H244868   6.069   1.634  13.066  1.3976  1.1622  1.5202
 7793TIP3   OH244869   0.759   2.344   2.492  0.0947  0.0834  0.1217
 7793TIP3    H144870   0.772   2.320   2.400 -1.3988  0.4748 -0.1917
 7793TIP3    H244871   0.846   2.336   2.530  0.8809  0.6691 -1.4960
 7794TIP3   OH244872   3.066   2.823  12.446  0.0644  0.6798 -0.7077
 7794TIP3    H144873   2.983   2.786  12.417  0.0511 -0.1184  0.3447
 7794TIP3    H244874   3.131   2.758  12.420 -0.1079 -0.8024  2.4555
 7795TIP3   OH244875   5.887   4.014  11.604  0.3326  0.3846  0.5117
 7795TIP3    H144876   5.833   4.080  11.646  1.3862  1.7555 -0.2566
 7795TIP3    H244877   5.883   4.035  11.511  0.4544 -0.8022  0.2263
 7796TIP3   OH244878   5.354   1.206   1.913  0.0569 -0.1866 -1.3234
 7796TIP3    H144879   5.414   1.135   1.934  0.2376  0.2163 -0.4707
 7796TIP3    H244880   5.289   1.166   1.855 -0.3614 -1.2640 -0.1404
 7797TIP3   OH244881   6.687   0.739  11.200 -0.0744  0.6913 -0.2001
 7797TIP3    H144882   6.607   0.763  11.247  0.4662 -1.1759  1.7893
 7797TIP3    H244883   6.658   0.718  11.112 -2.0149 -1.1615  0.8163
 7798TIP3   OH244884   2.018   2.564  12.498 -0.1105  0.2328 -0.2009
 7798TIP3    H144885   1.949   2.533  12.558 -0.4979 -0.6071 -1.0626
 7798TIP3    H244886   1.972   2.624  12.439 -0.6875 -2.2826 -2.3917
 7799TIP3   OH244887   2.266   3.784   2.330 -0.8600  0.3369 -0.4475
 7799TIP3    H144888   2.206   3.720   2.291 -1.2564 -0.5986  1.6613
 7799TIP3    H244889   2.353   3.745   2.318 -1.1002 -0.6474  0.8478
 7800TIP3   OH244890   3.489   5.930   0.139 -0.7008  0.0513  0.2252
 7800TIP3    H144891   3.472   5.838   0.161  0.7135 -0.5303 -1.0033
 7800TIP3    H244892   3.544   5.926   0.061 -1.5250  1.9710 -0.4976
 7801TIP3   OH244893   2.498   0.379  15.936  0.3135 -0.2681  0.0799
 7801TIP3    H144894   2.531   0.353  15.850 -0.0652  0.2882 -0.2368
 7801TIP3    H244895   2.425   0.438  15.917  1.4088  1.3683  0.7759
 7802TIP3   OH244896   5.252   5.381   4.412 -0.8643  0.3339  0.5407
 7802TIP3    H144897   5.240   5.462   4.462  2.7162  2.2589 -1.5049
 7802TIP3    H244898   5.256   5.410   4.321  2.2234 -1.8907 -0.1026
 7803TIP3   OH244899   0.148   5.977  16.352 -0.3627  0.0902  0.0746
 7803TIP3    H144900   0.201   5.942  16.424 -0.3001  0.9197  0.4299
 7803TIP3    H244901   0.139   5.903  16.292 -1.2899 -0.9193  1.4216
 7804TIP3   OH244902   6.790   4.487  11.479  0.0176 -0.2808  0.2430
 7804TIP3    H144903   6.845   4.411  11.498  0.6119 -0.1004 -0.7547
 7804TIP3    H244904   6.715   4.477  11.538 -0.3064 -2.0755 -0.4442
 7805TIP3   OH244905   2.797   3.335   0.202 -0.6907 -0.0499 -0.3521
 7805TIP3    H144906   2.780   3.312   0.293 -0.0944  0.2347 -0.1694
 7805TIP3    H244907   2.728   3.290   0.153 -0.7689 -0.5390  0.2005
 7806TIP3   OH244908   2.195   0.257   1.426  0.1229 -0.2595  0.6595
 7806TIP3    H144909   2.203   0.333   1.367  1.2551 -2.0529 -1.6047
 7806TIP3    H244910   2.283   0.244   1.460  0.5581 -2.0829 -1.0272
 7807TIP3   OH244911   4.647   4.933  12.187  0.1369 -0.3508  0.5450
 7807TIP3    H144912   4.703   4.995  12.233  0.7248  0.5814 -1.3831
 7807TIP3    H244913   4.566   4.981  12.170  0.4212 -0.2457 -0.5510
 7808TIP3   OH244914   0.942   0.840  15.030 -0.3228  0.4032 -0.1320
 7808TIP3    H144915   0.867   0.865  15.083  0.6755  1.6614  0.7073
 7808TIP3    H244916   0.942   0.902  14.957  0.0602  0.5755  0.0153
 7809TIP3   OH244917   0.695   2.955   3.156 -0.0649  0.0797 -0.1566
 7809TIP3    H144918   0.628   3.021   3.173  0.8520  1.0642 -0.3658
 7809TIP3    H244919   0.768   2.978   3.213 -0.0035 -1.1489  0.2650
 7810TIP3   OH244920   1.041   0.779  11.883 -0.0043  0.4247 -0.8144
 7810TIP3    H144921   1.032   0.830  11.964  1.0796 -0.7233  0.0616
 7810TIP3    H244922   1.135   0.772  11.870 -0.1695  0.1045 -1.8508
 7811TIP3   OH244923   1.315   6.790  12.292  0.7547 -0.5919  0.5405
 7811TIP3    H144924   1.401   6.830  12.287 -0.0363  1.1118  0.3048
 7811TIP3    H244925   1.291   6.795  12.384  0.3767  0.0734  0.4064
 7812TIP3   OH244926   1.304   2.078  12.575 -0.7345 -0.3489  0.3770
 7812TIP3    H144927   1.360   2.153  12.593 -0.7671 -0.1838 -0.1949
 7812TIP3    H244928   1.331   2.011  12.638  0.0778 -0.2603  0.1216
 7813TIP3   OH244929   0.671   4.572  10.352  0.2547 -0.0610  0.1819
 7813TIP3    H144930   0.586   4.533  10.373  0.3603 -0.1190  0.4979
 7813TIP3    H244931   0.652   4.633  10.280 -0.1074  0.1478  0.4529
 7814TIP3   OH244932   3.690   6.093  15.143  0.4213  0.1021 -0.1394
 7814TIP3    H144933   3.740   6.012  15.135 -0.5804 -0.7941  2.1913
 7814TIP3    H244934   3.754   6.158  15.172  1.3832  0.3565 -2.7481
 7815TIP3   OH244935   3.172   0.655  11.825 -0.0358  0.1600  0.2220
 7815TIP3    H144936   3.118   0.578  11.839 -0.4654  0.1391 -1.3963
 7815TIP3    H244937   3.258   0.632  11.861 -0.1416 -1.0983 -0.2982
 7816TIP3   OH244938   0.428   4.671  14.688 -0.0368 -0.5322 -0.3576
 7816TIP3    H144939   0.491   4.723  14.638  0.4610 -0.8001 -0.0159
 7816TIP3    H244940   0.370   4.633  14.622 -0.9395  1.1505 -0.5461
 7817TIP3   OH244941   6.545   5.057  11.242  0.0244 -0.1969  0.1369
 7817TIP3    H144942   6.590   4.974  11.226  0.9232  0.4249 -0.6134
 7817TIP3    H244943   6.613   5.123  11.234 -1.1104  0.8192 -1.5786
 7818TIP3   OH244944   4.101   5.664   5.669 -0.3145  0.4938 -0.4610
 7818TIP3    H144945   4.091   5.575   5.635 -2.2484  0.3789  0.3482
 7818TIP3    H244946   4.192   5.667   5.701  0.1256 -0.8044 -1.5355
 7819TIP3   OH244947   1.960   4.148   4.051 -0.2384 -0.3229  0.8477
 7819TIP3    H144948   1.961   4.087   3.977 -0.3736  2.2020 -1.2990
 7819TIP3    H244949   2.045   4.190   4.049 -1.6070  2.4791 -0.2412
 7820TIP3   OH244950   3.872   6.728   4.262  0.3117 -0.1189  0.0792
 7820TIP3    H144951   3.925   6.780   4.202  0.1748  2.0731  1.7977
 7820TIP3    H244952   3.931   6.707   4.334 -0.4646  0.2206  0.8180
 7821TIP3   OH244953   4.388   4.733  11.056  0.5081  0.1989 -0.2228
 7821TIP3    H144954   4.461   4.780  11.016 -0.5856  2.2541  0.1031
 7821TIP3    H244955   4.344   4.799  11.110 -0.7822 -1.3465  0.6561
 7822TIP3   OH244956   1.962   1.540   2.118 -0.6723  0.3248  0.7759
 7822TIP3    H144957   1.972   1.512   2.027 -0.3073 -3.6152  1.9070
 7822TIP3    H244958   2.050   1.571   2.143 -0.1485 -0.8934  0.4823
 7823TIP3   OH244959   3.357   4.324   1.104 -0.0903  0.4871  0.6322
 7823TIP3    H144960   3.420   4.283   1.163  0.2482  0.4951  0.2838
 7823TIP3    H244961   3.300   4.253   1.077  0.8911  0.0973 -0.4769
 7824TIP3   OH244962   3.678   1.704   4.998  0.3735  0.0996  0.2981
 7824TIP3    H144963   3.770   1.727   5.010  0.3967 -1.2254  2.9893
 7824TIP3    H244964   3.679   1.625   4.944  0.7525  0.5761 -0.4002
 7825TIP3   OH244965   1.473   2.080   5.478 -0.1306 -0.7605  0.0406
 7825TIP3    H144966   1.549   2.021   5.477  0.9949  0.6918 -0.6665
 7825TIP3    H244967   1.495   2.149   5.415 -1.8258 -0.0485  0.2046
 7826TIP3   OH244968   6.051   2.412   5.739 -0.0762 -0.6961  0.0105
 7826TIP3    H144969   6.128   2.438   5.688 -0.7490 -1.8997 -1.6525
 7826TIP3    H244970   5.981   2.469   5.707  0.2565  0.8776  2.0165
 7827TIP3   OH244971   0.104   0.938  15.741 -0.3979 -0.5107 -0.0052
 7827TIP3    H144972   0.105   0.848  15.706  1.7532 -0.6160  0.2962
 7827TIP3    H244973   0.156   0.988  15.679 -2.0658  0.6875 -0.4807
 7828TIP3   OH244974   4.461   2.184  16.115 -0.1397 -0.4827  0.3915
 7828TIP3    H144975   4.464   2.090  16.129  0.0343 -0.5279  0.0590
 7828TIP3    H244976   4.375   2.211  16.147  0.2780 -0.5660  1.6174
 7829TIP3   OH244977   2.217   1.878   3.688  0.0170  0.3871 -0.5149
 7829TIP3    H144978   2.137   1.904   3.643 -0.2576  1.8056  0.7485
 7829TIP3    H244979   2.282   1.943   3.661  0.7027 -0.6459 -1.3867
 7830TIP3   OH244980   2.144   2.969  12.940  0.1602 -0.0989  0.5867
 7830TIP3    H144981   2.084   3.039  12.965  0.3022  1.2334 -2.4924
 7830TIP3    H244982   2.101   2.889  12.970 -1.2652  1.1040  1.8631
 7831TIP3   OH244983   6.396   5.946   3.754  0.1575 -0.6997 -0.0190
 7831TIP3    H144984   6.409   6.016   3.689 -0.5249  1.2459  1.8663
 7831TIP3    H244985   6.485   5.917   3.776  0.4222 -0.8727 -1.2724
 7832TIP3   OH244986   6.407   3.845  12.264  0.1877 -0.4883 -0.6964
 7832TIP3    H144987   6.341   3.781  12.237  1.3451 -2.1103  0.2078
 7832TIP3    H244988   6.391   3.857  12.358  2.1393 -2.1203 -0.1119
 7833TIP3   OH244989   3.121   2.497  14.389 -0.5250 -0.5417 -0.0866
 7833TIP3    H144990   3.152   2.487  14.479 -1.6017 -2.3209  0.1191
 7833TIP3    H244991   3.200   2.487  14.335  0.3191  1.7197  0.6884
 7834TIP3   OH244992   6.641   2.441  13.207 -0.3795 -0.0478  0.2595
 7834TIP3    H144993   6.664   2.496  13.132  2.3443 -0.3745  0.7882
 7834TIP3    H244994   6.663   2.493  13.284 -0.9134 -0.6068  0.7989
 7835TIP3   OH244995   5.183   3.101   2.447 -0.1374  0.2428  0.6427
 7835TIP3    H144996   5.134   3.167   2.397 -0.4221 -0.2571  0.2640
 7835TIP3    H244997   5.209   3.147   2.527  0.3045  1.0415  0.0492
 7836TIP3   OH244998   5.099   3.044  14.421  1.3554 -0.2602  0.5245
 7836TIP3    H144999   5.054   3.085  14.495 -1.3808 -0.9690 -0.6989
 7836TIP3    H245000   5.142   2.968  14.459  2.9242  1.3060  2.0098
 7837TIP3   OH245001   1.199   2.450  13.415  0.1035 -0.0456  0.5754
 7837TIP3    H145002   1.150   2.503  13.352 -1.2441 -2.5849 -0.5744
 7837TIP3    H245003   1.288   2.449  13.382 -0.4279 -0.7115 -0.8897
 7838TIP3   OH245004   2.703   2.413  16.098 -0.0016 -0.2437 -0.4638
 7838TIP3    H145005   2.678   2.324  16.124 -2.0127  0.4951  0.2494
 7838TIP3    H245006   2.784   2.402  16.048 -0.2641 -2.4745 -0.4374
 7839TIP3   OH245007   3.568   2.384  14.759  0.0654  0.3143 -0.1842
 7839TIP3    H145008   3.561   2.449  14.830 -2.3431  0.4382 -0.4913
 7839TIP3    H245009   3.633   2.321  14.791  1.4708  2.1465  0.6855
 7840TIP3   OH245010   2.535   6.478   5.959  0.0773 -0.5814 -0.3418
 7840TIP3    H145011   2.455   6.528   5.977  1.0768  1.4453 -1.3489
 7840TIP3    H245012   2.582   6.530   5.894  3.0887 -0.7987  1.5546
 7841TIP3   OH245013   2.539   6.661   4.085  0.1900  0.3545 -0.4100
 7841TIP3    H145014   2.561   6.697   4.171  0.5969  1.3220 -0.9087
 7841TIP3    H245015   2.448   6.686   4.070 -0.8965 -2.4314  1.0367
 7842TIP3   OH245016   1.416   5.223   6.334  0.3278  0.3442 -0.3770
 7842TIP3    H145017   1.445   5.309   6.303  1.7143  0.2756  0.6729
 7842TIP3    H245018   1.435   5.224   6.428  0.4449 -1.1294 -0.3711
 7843TIP3   OH245019   1.195   1.020   2.758  0.7586  0.0360  0.2655
 7843TIP3    H145020   1.143   1.055   2.831  0.9990  1.2867 -0.1437
 7843TIP3    H245021   1.281   1.003   2.795  0.8841  0.6837  0.2836
 7844TIP3   OH245022   3.629   6.583   5.717  0.2379  0.5625  0.0920
 7844TIP3    H145023   3.650   6.660   5.771  2.7581 -1.1952  1.7119
 7844TIP3    H245024   3.575   6.528   5.774  1.9479 -0.7655  0.4820
 7845TIP3   OH245025   0.583   3.455   4.863  0.6376  0.7153 -0.8966
 7845TIP3    H145026   0.531   3.419   4.935  0.5512  2.2828 -0.1534
 7845TIP3    H245027   0.627   3.379   4.825 -2.0124 -0.6041 -1.4305
 7846TIP3   OH245028   3.808   1.553   3.880 -0.2493  0.4199 -0.0876
 7846TIP3    H145029   3.803   1.592   3.967 -0.0219  1.6312 -0.5937
 7846TIP3    H245030   3.846   1.467   3.894  0.6270  0.9529  0.9191
 7847TIP3   OH245031   5.714   4.813  17.186 -0.7042 -0.0209 -0.0059
 7847TIP3    H145032   5.674   4.787  17.103  1.4141 -0.8001 -0.8233
 7847TIP3    H245033   5.648   4.791  17.252 -1.7734 -0.9304 -1.3354
 7848TIP3   OH245034   2.638   6.658  12.694 -0.0309  0.0181 -0.3699
 7848TIP3    H145035   2.570   6.613  12.743  1.7525  0.0652  2.2631
 7848TIP3    H245036   2.613   6.751  12.696 -0.8251 -0.1727 -1.0361
 7849TIP3   OH245037   5.988   2.467  15.087  0.0539  0.4738 -0.0405
 7849TIP3    H145038   6.051   2.442  15.019  0.5391 -0.5482  0.7568
 7849TIP3    H245039   6.027   2.434  15.168 -1.1350  0.5405  0.5634
 7850TIP3   OH245040   4.827   1.893   4.383  0.1320  0.5396  0.3808
 7850TIP3    H145041   4.884   1.941   4.443  0.1415 -0.4317  1.1681
 7850TIP3    H245042   4.818   1.806   4.424  1.2370 -0.5898 -1.6798
 7851TIP3   OH245043   2.291   3.317   2.692  0.3183 -0.2011 -0.0039
 7851TIP3    H145044   2.295   3.252   2.622 -0.4421 -0.3175  0.0540
 7851TIP3    H245045   2.357   3.290   2.755  0.2839 -0.6913 -0.1797
 7852TIP3   OH245046   4.341   0.397   4.025 -0.0257  0.6098  0.0553
 7852TIP3    H145047   4.373   0.322   3.976 -1.9369  1.1713 -2.1425
 7852TIP3    H245048   4.253   0.372   4.053 -0.3252  1.6574  0.1003
 7853TIP3   OH245049   1.476   4.686   2.794  0.8791  0.7024  0.4008
 7853TIP3    H145050   1.486   4.592   2.812 -1.4027  0.8173  2.6514
 7853TIP3    H245051   1.438   4.690   2.706  1.4905 -0.4470  0.0749
 7854TIP3   OH245052   5.688   3.462   2.178  0.6251 -0.1016 -0.2472
 7854TIP3    H145053   5.744   3.410   2.122 -0.7607 -0.0217 -1.7465
 7854TIP3    H245054   5.600   3.449   2.143 -0.0992  1.0134  1.0872
 7855TIP3   OH245055   5.874   6.412  16.787  0.2710 -0.0280  0.2059
 7855TIP3    H145056   5.904   6.458  16.709  0.4002  1.4434  1.1115
 7855TIP3    H245057   5.783   6.389  16.767  0.2889  0.3644 -0.3530
 7856TIP3   OH245058   4.748   2.939   2.944 -0.5974  0.4487  0.1871
 7856TIP3    H145059   4.658   2.911   2.928 -0.4018  0.2392 -0.5241
 7856TIP3    H245060   4.795   2.858   2.965 -0.5294  0.5373  0.3883
 7857TIP3   OH245061   1.787   1.425  11.619 -0.1398 -0.4077 -0.2759
 7857TIP3    H145062   1.728   1.500  11.633 -0.3145 -0.2787 -1.6341
 7857TIP3    H245063   1.850   1.456  11.554  1.6280 -0.4521  1.3880
 7858TIP3   OH245064   2.956   5.322  12.276  0.4279 -0.1474  0.2528
 7858TIP3    H145065   2.999   5.237  12.280 -0.0309 -0.3691  0.5628
 7858TIP3    H245066   2.880   5.308  12.219 -0.6282 -0.3994  1.6743
 7859TIP3   OH245067   2.333   2.784  10.998 -0.2118 -0.3664 -0.2364
 7859TIP3    H145068   2.398   2.727  11.040 -0.4539  0.1946  0.9208
 7859TIP3    H245069   2.327   2.751  10.909  2.2659  0.0883 -0.5993
 7860TIP3   OH245070   0.950   2.546   2.225 -0.1698  0.2758 -0.0308
 7860TIP3    H145071   0.949   2.641   2.222 -0.9079  0.2358 -1.1883
 7860TIP3    H245072   0.966   2.525   2.318  2.6163  1.5052 -0.2024
 7861TIP3   OH245073   1.271   5.326   3.537  0.3656 -0.3651  0.3144
 7861TIP3    H145074   1.270   5.231   3.527  0.3114 -0.3066 -0.3112
 7861TIP3    H245075   1.291   5.359   3.449 -1.2635  0.2532  0.1461
 7862TIP3   OH245076   1.871   1.999  16.571 -0.7163 -0.1051 -0.6881
 7862TIP3    H145077   1.781   2.028  16.555 -1.1821 -0.5334  1.0687
 7862TIP3    H245078   1.903   2.056  16.641  0.3198 -0.1053 -1.1493
 7863TIP3   OH245079   2.924   5.828  11.534  0.3537  0.2971  0.3829
 7863TIP3    H145080   3.007   5.782  11.548  0.6127  1.4257  2.9659
 7863TIP3    H245081   2.935   5.910  11.583 -1.6848  1.2027 -0.6298
 7864TIP3   OH245082   1.473   2.186  11.848 -0.1480 -0.4086  0.0650
 7864TIP3    H145083   1.402   2.125  11.833 -0.7351  0.3237 -0.1847
 7864TIP3    H245084   1.442   2.269  11.811  0.6805  0.0077  0.2826
 7865TIP3   OH245085   4.211   2.651  14.778 -0.2798 -0.1426  0.4116
 7865TIP3    H145086   4.306   2.638  14.782 -0.5054 -2.2489 -0.3460
 7865TIP3    H245087   4.193   2.717  14.845  1.5288 -0.9038  1.6971
 7866TIP3   OH245088   5.913   4.672   0.200  0.1323  0.4772 -0.3299
 7866TIP3    H145089   5.920   4.634   0.112  2.0072 -1.3710  0.5581
 7866TIP3    H245090   5.855   4.747   0.190 -0.2961 -0.1741 -2.9950
 7867TIP3   OH245091   6.558   4.932  12.345 -0.2972 -0.1325  0.5193
 7867TIP3    H145092   6.557   4.870  12.418 -1.1894 -1.8306 -0.8807
 7867TIP3    H245093   6.467   4.960  12.336 -0.2935 -0.3600 -0.2718
 7868TIP3   OH245094   1.304   4.144   2.057  0.8622 -0.4062 -0.1417
 7868TIP3    H145095   1.274   4.053   2.055  0.8251 -0.4041  0.3101
 7868TIP3    H245096   1.298   4.173   1.966  0.0476 -0.5810 -0.1441
 7869TIP3   OH245097   4.562   0.535  15.547  0.1233 -0.0693 -0.1454
 7869TIP3    H145098   4.584   0.442  15.541 -1.2794 -0.3001 -1.7243
 7869TIP3    H245099   4.493   0.548  15.483  0.9619  2.2746 -0.6127
 7870TIP3   OH245100   2.583   5.021   5.553 -0.7400 -0.4831 -0.0385
 7870TIP3    H145101   2.573   5.063   5.638  0.5926 -0.4952  0.1270
 7870TIP3    H245102   2.600   4.929   5.574  2.0547 -0.0552 -0.2125
 7871TIP3   OH245103   5.743   5.755  13.391  0.6560 -0.1243 -0.0620
 7871TIP3    H145104   5.741   5.824  13.457 -0.7812  0.4558 -0.7104
 7871TIP3    H245105   5.652   5.727  13.381  1.3504 -2.9755  1.0700
 7872TIP3   OH245106   0.285   6.585   4.409  0.6253  0.4735  0.0706
 7872TIP3    H145107   0.266   6.591   4.316  1.3577 -3.5384 -0.4405
 7872TIP3    H245108   0.338   6.506   4.418 -0.8856 -0.2431  4.0794
 7873TIP3   OH245109   0.281   6.779  10.607 -0.0607  0.1475 -0.0466
 7873TIP3    H145110   0.341   6.840  10.564  0.3032 -0.6073 -0.6393
 7873TIP3    H245111   0.219   6.755  10.538  1.9325 -2.9049 -0.8680
 7874TIP3   OH245112   1.102   3.428  13.546 -0.4912 -0.3488 -0.2474
 7874TIP3    H145113   1.164   3.498  13.525 -1.2446 -0.0033 -1.3312
 7874TIP3    H245114   1.017   3.471  13.552 -0.5176 -0.6757  2.1647
 7875TIP3   OH245115   4.292   2.879  14.404 -0.3187 -0.2747 -0.2989
 7875TIP3    H145116   4.355   2.850  14.470  0.2885 -0.3275 -0.8951
 7875TIP3    H245117   4.265   2.799  14.359  0.6234 -0.0396 -1.2987
 7876TIP3   OH245118   3.333   1.582  15.166  0.3703  0.2750  0.0353
 7876TIP3    H145119   3.401   1.611  15.104  0.9002  1.0560  0.9785
 7876TIP3    H245120   3.356   1.624  15.249  1.5589 -3.3378  1.6421
 7877TIP3   OH245121   2.587   4.894  13.805 -0.2680 -0.6613  0.0605
 7877TIP3    H145122   2.589   4.958  13.876  1.3547 -1.0627  0.4109
 7877TIP3    H245123   2.508   4.915  13.755  2.0957  4.0994 -2.0842
 7878TIP3   OH245124   0.282   2.941   3.206 -0.4754  0.5195  0.5174
 7878TIP3    H145125   0.273   3.020   3.152  0.1962 -0.2526 -0.7505
 7878TIP3    H245126   0.366   2.903   3.179 -0.1678  0.0912  2.0743
 7879TIP3   OH245127   1.999   6.765  13.539  0.9246 -0.1779 -0.3488
 7879TIP3    H145128   1.986   6.711  13.616  1.9511  0.6416  0.4080
 7879TIP3    H245129   1.910   6.788  13.511  0.5498 -0.5202  0.5492
 7880TIP3   OH245130   5.068   6.066  16.809  0.0862 -0.1575  0.0581
 7880TIP3    H145131   5.077   6.122  16.887  0.1422 -0.2141  0.0925
 7880TIP3    H245132   5.031   5.984  16.843 -0.6847  0.1283 -0.1102
 7881TIP3   OH245133   4.768   5.996   4.608 -0.5881 -0.3469  0.0372
 7881TIP3    H145134   4.831   6.064   4.584  0.1557 -1.4331 -1.1413
 7881TIP3    H245135   4.806   5.955   4.685 -0.8552  0.3163  0.5298
 7882TIP3   OH245136   5.560   3.887   4.836  0.3735 -0.2341 -0.6748
 7882TIP3    H145137   5.515   3.837   4.768 -0.5631  0.4529 -0.5681
 7882TIP3    H245138   5.513   3.866   4.916 -0.5039  1.3879 -0.7458
 7883TIP3   OH245139   5.744   3.812   3.812  0.0766  0.3524 -0.4399
 7883TIP3    H145140   5.808   3.765   3.759  0.4190 -0.3093  0.5470
 7883TIP3    H245141   5.728   3.894   3.764  0.2488 -0.3038 -1.6434
 7884TIP3   OH245142   3.711   3.840  15.892  0.0977  1.0811 -0.2470
 7884TIP3    H145143   3.641   3.863  15.830  0.3776  2.1028 -0.1888
 7884TIP3    H245144   3.708   3.909  15.958  2.7478  2.5260 -1.5456
 7885TIP3   OH245145   0.033   5.334  15.431 -0.0690 -0.1110 -0.3001
 7885TIP3    H145146   0.067   5.326  15.521 -0.0726  0.3421 -0.2533
 7885TIP3    H245147  -0.028   5.261  15.421 -0.2058 -0.0572  0.1307
 7886TIP3   OH245148   6.006   2.698   3.057  0.7019 -0.6404 -0.1838
 7886TIP3    H145149   5.948   2.645   3.113 -1.0986 -0.1396 -1.5325
 7886TIP3    H245150   6.034   2.638   2.988  3.3874 -1.4182  1.5254
 7887TIP3   OH245151   3.501   0.399   5.071 -0.5190  0.4471 -0.0062
 7887TIP3    H145152   3.595   0.399   5.053 -0.4036  0.4883  0.6032
 7887TIP3    H245153   3.482   0.311   5.103 -1.1615 -0.3991 -2.5524
 7888TIP3   OH245154   5.848   2.035  14.606 -0.0911 -0.2086  0.4242
 7888TIP3    H145155   5.933   2.033  14.650  1.5352  1.8266 -2.3994
 7888TIP3    H245156   5.853   1.966  14.540  0.0015  0.8825 -0.7451
 7889TIP3   OH245157   3.127   0.516  13.300  0.1313  0.2098  0.1127
 7889TIP3    H145158   3.157   0.529  13.391  2.5744  1.3498 -0.8014
 7889TIP3    H245159   3.187   0.451  13.265 -0.3710  0.2870 -0.8837
 7890TIP3   OH245160   1.915   1.433   2.837 -0.6689  0.1955 -0.0971
 7890TIP3    H145161   1.920   1.473   2.925 -1.5707 -0.9504  0.4817
 7890TIP3    H245162   2.001   1.451   2.798 -0.2580  0.7112  1.0160
 7891TIP3   OH245163   5.905   5.792   2.110 -0.2593  0.5503  0.0863
 7891TIP3    H145164   5.819   5.825   2.136 -0.9724 -0.7823 -0.5260
 7891TIP3    H245165   5.913   5.708   2.155  0.8252  0.7964  0.3461
 7892TIP3   OH245166   3.616   1.116  15.905 -0.4431 -0.7534 -0.0447
 7892TIP3    H145167   3.673   1.154  15.839 -0.4799 -0.0432  0.3281
 7892TIP3    H245168   3.631   1.021  15.899 -0.6340 -0.7126 -1.2326
 7893TIP3   OH245169   3.711   0.103  14.954 -0.5030  0.0257  0.3397
 7893TIP3    H145170   3.731   0.099  15.048  0.1139 -0.4936  0.1918
 7893TIP3    H245171   3.630   0.054  14.945 -0.4205 -0.1536  0.5634
 7894TIP3   OH245172   5.593   4.634   6.295  0.1209  0.2768 -0.0847
 7894TIP3    H145173   5.646   4.713   6.296  1.2484 -0.4100 -2.5628
 7894TIP3    H245174   5.503   4.665   6.279  0.5329  1.0586 -0.8988
 7895TIP3   OH245175   3.943   2.069  11.272  0.3989  0.2299  0.1163
 7895TIP3    H145176   3.979   2.153  11.242  1.9774 -0.5005 -0.1201
 7895TIP3    H245177   3.965   2.007  11.202  0.7484 -0.7127  1.0395
 7896TIP3   OH245178   0.806   5.174   0.758 -0.1450  0.0368 -0.4530
 7896TIP3    H145179   0.816   5.128   0.842 -1.4640 -0.3322 -0.4872
 7896TIP3    H245180   0.883   5.231   0.753 -0.2039  0.2800  1.1527
 7897TIP3   OH245181   4.492   6.552  12.304 -0.6169 -0.2004  0.0659
 7897TIP3    H145182   4.529   6.587  12.223  1.2276 -2.0006  0.0842
 7897TIP3    H245183   4.495   6.624  12.366  0.8092  0.3191 -0.5985
 7898TIP3   OH245184   0.843   2.773  17.055 -0.0221 -0.1903 -0.2019
 7898TIP3    H145185   0.766   2.776  17.111 -0.0109 -0.3960 -0.1718
 7898TIP3    H245186   0.903   2.838  17.092 -0.2276  0.0546 -0.2946
 7899TIP3   OH245187   2.312   6.434   2.606 -0.2047  0.2223 -0.1443
 7899TIP3    H145188   2.372   6.405   2.674 -1.0541  0.1772  0.5897
 7899TIP3    H245189   2.365   6.432   2.526  0.9367  0.7589  0.5761
 7900TIP3   OH245190   6.544   6.699   1.622 -0.3523  0.1331  0.1753
 7900TIP3    H145191   6.502   6.616   1.603  1.3590 -0.8555  0.6362
 7900TIP3    H245192   6.505   6.727   1.705 -1.5941  0.2749 -0.4313
 7901TIP3   OH245193   4.470   1.658   2.123 -0.0888 -0.0059  0.2463
 7901TIP3    H145194   4.496   1.622   2.207 -1.6199 -0.0379  0.7167
 7901TIP3    H245195   4.478   1.753   2.133 -0.9441  0.0243  0.6596
 7902TIP3   OH245196   0.202   3.330  13.224 -0.1320  0.0949 -0.5514
 7902TIP3    H145197   0.218   3.373  13.308 -1.2198 -3.0840  1.4014
 7902TIP3    H245198   0.131   3.379  13.184 -2.7000 -0.9477  2.5130
 7903TIP3   OH245199   4.092   6.160   4.484  0.3030 -0.0073  0.2426
 7903TIP3    H145200   4.143   6.230   4.444 -0.0946 -0.5711 -1.2987
 7903TIP3    H245201   4.143   6.081   4.468  0.1066 -0.2421  0.7786
 7904TIP3   OH245202   2.003   3.979   1.646  0.4995  0.2348  0.2606
 7904TIP3    H145203   2.032   4.068   1.627  0.7929  0.0744 -0.0700
 7904TIP3    H245204   1.945   3.957   1.572  0.7014  0.0305  0.1618
 7905TIP3   OH245205   0.723   2.175   5.265 -0.1515 -0.3832 -0.1269
 7905TIP3    H145206   0.809   2.140   5.243 -0.0952  0.0069 -0.5140
 7905TIP3    H245207   0.672   2.098   5.291  0.1201 -0.6903 -0.5119
 7906TIP3   OH245208   1.693   2.184  14.137  0.1057 -0.1704  0.4179
 7906TIP3    H145209   1.722   2.240  14.065 -1.8805  1.2233  0.6340
 7906TIP3    H245210   1.609   2.148  14.107  0.0189 -0.8091  1.4074
 7907TIP3   OH245211   6.695   2.739  11.511 -0.3265  0.1354  0.1298
 7907TIP3    H145212   6.652   2.693  11.439  0.5302 -2.3019  1.1372
 7907TIP3    H245213   6.646   2.714  11.589  2.0095 -1.5787  1.1020
 7908TIP3   OH245214   5.901   2.638   5.816 -0.1619 -0.1388  0.0827
 7908TIP3    H145215   5.955   2.652   5.894 -0.0279 -3.1407  0.6269
 7908TIP3    H245216   5.947   2.685   5.746  2.0742 -0.9297  0.9599
 7909TIP3   OH245217   1.047   1.701  16.338 -1.1297 -0.9028  0.1599
 7909TIP3    H145218   0.972   1.695  16.398 -1.0844  0.2254  0.3288
 7909TIP3    H245219   1.095   1.619  16.354 -3.1245 -2.3663 -1.0701
 7910TIP3   OH245220   4.683   6.195  14.526  0.0872  0.2520 -0.1652
 7910TIP3    H145221   4.722   6.149  14.452  2.0939  2.0573 -0.2842
 7910TIP3    H245222   4.605   6.236  14.490  0.8562  0.8265 -1.2044
 7911TIP3   OH245223   0.887   3.230  12.838  0.1662  0.3505  0.2604
 7911TIP3    H145224   0.843   3.217  12.754  0.1861  0.2386  0.2682
 7911TIP3    H245225   0.840   3.302  12.879  0.4063  0.6702 -0.0199
 7912TIP3   OH245226   1.080   1.767   4.395  0.0990 -0.3694  0.1202
 7912TIP3    H145227   1.172   1.764   4.369  0.8979  2.5930  2.3382
 7912TIP3    H245228   1.077   1.831   4.466 -3.6703 -0.5318  0.2203
 7913TIP3   OH245229   4.029   1.243  16.116 -0.2685 -0.0892 -0.2545
 7913TIP3    H145230   4.084   1.166  16.129  0.0674  0.0687 -0.7432
 7913TIP3    H245231   3.951   1.225  16.169  0.2277 -0.3294  0.4069
 7914TIP3   OH245232   4.930   2.781  13.285 -0.6958  0.2723  0.0603
 7914TIP3    H145233   4.961   2.838  13.214 -2.3992  1.9527  0.6224
 7914TIP3    H245234   4.987   2.802  13.359 -1.7768  1.8180  0.4786
 7915TIP3   OH245235   4.018   6.284  16.908 -0.1662  0.0632 -0.0783
 7915TIP3    H145236   4.067   6.220  16.857 -1.2030 -0.7150 -0.1181
 7915TIP3    H245237   4.085   6.337  16.952  0.6971 -0.7824 -0.3707
 7916TIP3   OH245238   4.466   0.095   6.235  0.1662 -0.3545  0.0550
 7916TIP3    H145239   4.531   0.165   6.233 -0.7641  0.5195 -0.0209
 7916TIP3    H245240   4.461   0.064   6.145 -0.3053  0.3169 -0.1542
 7917TIP3   OH245241   0.411   5.527   5.613  1.1159 -0.2232 -0.2460
 7917TIP3    H145242   0.378   5.438   5.625  1.8381 -0.7167 -1.8231
 7917TIP3    H245243   0.475   5.539   5.684 -2.8332  1.0145  3.3000
 7918TIP3   OH245244   5.685   2.106   1.567  0.2176 -0.2308  0.2218
 7918TIP3    H145245   5.751   2.046   1.604  0.1431 -1.2045 -1.1798
 7918TIP3    H245246   5.698   2.100   1.473  1.2347  3.1565  0.0657
 7919TIP3   OH245247   6.309   3.063   5.559 -0.0511  0.0687  0.9353
 7919TIP3    H145248   6.385   3.006   5.559  0.0393  0.1421  3.2905
 7919TIP3    H245249   6.324   3.122   5.485  0.9841 -1.4360 -0.0929
 7920TIP3   OH245250   3.567   5.105   0.283  0.5123 -0.4045  0.5028
 7920TIP3    H145251   3.503   5.119   0.213  0.2869 -0.2131  0.7465
 7920TIP3    H245252   3.533   5.029   0.332  0.2965 -0.1029  0.8278
 7921TIP3   OH245253   5.751   3.470  15.311 -0.0988  0.0322 -0.0282
 7921TIP3    H145254   5.797   3.508  15.237 -0.3460 -0.2286 -0.3209
 7921TIP3    H245255   5.776   3.377  15.310  0.5802  0.1994  0.7398
 7922TIP3   OH245256   6.329   4.551  12.119 -0.0916 -0.5897  0.1307
 7922TIP3    H145257   6.424   4.545  12.124 -0.0605  0.0493  0.2284
 7922TIP3    H245258   6.304   4.605  12.194 -0.5507 -0.9240  0.2227
 7923TIP3   OH245259   5.281   4.584  14.575  0.0423  0.3986 -0.4696
 7923TIP3    H145260   5.238   4.605  14.658 -0.7278 -1.2056 -0.4448
 7923TIP3    H245261   5.293   4.669  14.533 -0.8709  1.1062  0.6513
 7924TIP3   OH245262   5.461   1.673  13.776  0.4644  0.0509  0.1692
 7924TIP3    H145263   5.385   1.697  13.722  0.6316 -0.8592 -0.4805
 7924TIP3    H245264   5.423   1.649  13.861 -0.0130 -0.7326 -0.2579
 7925TIP3   OH245265   0.604   3.033   2.766  0.5677  0.2731  0.9696
 7925TIP3    H145266   0.645   2.973   2.828  1.2392 -1.2490 -0.9203
 7925TIP3    H245267   0.671   3.049   2.700 -0.5316  0.9506 -0.0112
 7926TIP3   OH245268   3.090   0.065  17.066  0.1614 -0.5731  0.3122
 7926TIP3    H145269   3.015   0.059  17.008 -1.0843 -0.7532  1.9056
 7926TIP3    H245270   3.146   0.132  17.026 -2.0398  1.3937  0.4431
 7927TIP3   OH245271   6.498   4.635  11.430  0.0280  0.0311  0.7701
 7927TIP3    H145272   6.546   4.716  11.444 -0.6732  0.0406  3.3135
 7927TIP3    H245273   6.408   4.655  11.456 -0.8331 -0.7419 -1.3996
 7928TIP3   OH245274   1.448   3.512  10.457  0.3060  0.0899 -0.2897
 7928TIP3    H145275   1.400   3.475  10.383 -0.3706  1.8388 -0.7485
 7928TIP3    H245276   1.381   3.558  10.509  0.6558 -1.6429  1.7693
 7929TIP3   OH245277   2.851   3.841   3.545  0.3739  0.4064  0.0366
 7929TIP3    H145278   2.844   3.906   3.476  2.4113 -0.3006 -0.8691
 7929TIP3    H245279   2.930   3.865   3.593 -0.2081  0.0226  1.2102
 7930TIP3   OH245280   3.001   2.332   4.432  0.2013 -0.0815 -0.2465
 7930TIP3    H145281   2.935   2.264   4.446  0.8311 -0.6731 -0.0734
 7930TIP3    H245282   3.084   2.290   4.456  0.7234  0.4460 -1.0839
 7931TIP3   OH245283   0.877   5.910  12.202 -0.7266  0.2415  0.0535
 7931TIP3    H145284   0.916   5.913  12.289 -1.5921  1.5996  0.4097
 7931TIP3    H245285   0.828   5.992  12.195 -0.3408  0.3243 -1.8579
 7932TIP3   OH245286   2.552   6.142   6.129 -0.2360 -0.1355  0.3465
 7932TIP3    H145287   2.470   6.165   6.172 -0.7916 -0.9629 -0.2541
 7932TIP3    H245288   2.600   6.225   6.124 -1.3209  0.4930  0.0921
 7933TIP3   OH245289   5.311   1.287  13.590 -0.3890 -0.9659 -0.2263
 7933TIP3    H145290   5.381   1.238  13.547 -0.8631 -0.7248 -1.2863
 7933TIP3    H245291   5.238   1.225  13.595 -0.2433 -1.0794  0.4798
 7934TIP3   OH245292   4.364   6.380  13.230 -0.3191 -0.6481  0.0192
 7934TIP3    H145293   4.276   6.354  13.201 -0.4952  1.1628 -1.1569
 7934TIP3    H245294   4.419   6.368  13.153 -0.1349  1.0294 -0.1314
 7935TIP3   OH245295   2.457   4.544  12.256  0.7160 -0.2212  0.7302
 7935TIP3    H145296   2.512   4.524  12.180  2.3578 -1.9173  2.3209
 7935TIP3    H245297   2.480   4.634  12.279  0.2549  0.2797 -0.7126
 7936TIP3   OH245298   0.128   5.738   5.182 -0.0941  0.0460  0.1166
 7936TIP3    H145299   0.040   5.723   5.147  0.1754 -0.0334 -0.5389
 7936TIP3    H245300   0.115   5.794   5.258 -1.0121 -2.3616  1.8041
 7937TIP3   OH245301   3.398   5.176   4.453  0.3001  0.2530 -0.5223
 7937TIP3    H145302   3.409   5.097   4.506  1.9827  0.3716 -0.6802
 7937TIP3    H245303   3.471   5.174   4.392 -0.6194  1.0604 -1.6646
 7938TIP3   OH245304   3.948   0.384   1.550  0.1527 -0.3224  0.6466
 7938TIP3    H145305   3.900   0.306   1.579  0.3421 -0.9173 -0.6213
 7938TIP3    H245306   4.031   0.380   1.598  0.0898 -0.8036  0.7176
 7939TIP3   OH245307   0.581   0.859   4.764 -0.0338  0.1456 -0.6276
 7939TIP3    H145308   0.649   0.796   4.789 -0.3856  0.8504  2.2083
 7939TIP3    H245309   0.500   0.809   4.769  0.1038 -0.3835 -2.9149
 7940TIP3   OH245310   2.915   6.412  11.668  0.1660 -0.5976 -0.0063
 7940TIP3    H145311   2.959   6.341  11.716  1.7666  0.6125  0.3526
 7940TIP3    H245312   2.975   6.486  11.675 -2.3464  1.3584  1.2088
 7941TIP3   OH245313   5.214   2.821   5.836  0.0320  0.6361  1.0615
 7941TIP3    H145314   5.174   2.747   5.791  0.1565  1.5297 -0.5383
 7941TIP3    H245315   5.251   2.783   5.916 -0.9975 -0.7996  0.8743
 7942TIP3   OH245316   1.479   6.184  14.281 -0.4225  0.5017  0.3643
 7942TIP3    H145317   1.472   6.198  14.187  0.5580  0.4244  0.2780
 7942TIP3    H245318   1.404   6.129  14.303 -0.4138  0.1702 -0.4449
 7943TIP3   OH245319   4.246   1.466   2.156 -0.1526  0.5255 -0.4496
 7943TIP3    H145320   4.320   1.519   2.124 -0.4980  1.0317 -0.4169
 7943TIP3    H245321   4.275   1.434   2.241  0.7739 -0.8214 -1.2519
 7944TIP3   OH245322   2.254   6.272   3.148  0.6154 -0.0951  0.2680
 7944TIP3    H145323   2.325   6.336   3.144  1.3275 -0.9898 -2.2522
 7944TIP3    H245324   2.181   6.313   3.102 -0.6926  0.9696  3.1681
 7945TIP3   OH245325   3.362   1.442  16.189  0.1196 -0.3056  0.0155
 7945TIP3    H145326   3.284   1.394  16.161 -0.8711  2.5717 -2.4510
 7945TIP3    H245327   3.435   1.384  16.167 -0.8970  0.1229 -5.0130
 7946TIP3   OH245328   1.692   3.720  17.223 -0.7941  0.1057 -0.0009
 7946TIP3    H145329   1.672   3.814  17.229  0.0314  0.2666  0.2729
 7946TIP3    H245330   1.607   3.677  17.232 -1.1567  0.8211  0.0524
 7947TIP3   OH245331   1.087   6.478   1.463 -0.3351  0.4887  0.3451
 7947TIP3    H145332   1.037   6.539   1.410 -2.2999 -1.3954 -0.0588
 7947TIP3    H245333   1.096   6.521   1.548 -1.4185  1.4497 -0.0193
 7948TIP3   OH245334   1.187   1.847  16.087  0.0955 -0.2751 -0.1635
 7948TIP3    H145335   1.119   1.890  16.036 -0.3698 -0.3151  0.4176
 7948TIP3    H245336   1.140   1.803  16.157  0.6369 -1.1055 -0.3138
 7949TIP3   OH245337   5.936   5.056  15.491 -0.5756 -0.3418 -0.4717
 7949TIP3    H145338   5.962   5.069  15.400  0.0943  0.8173 -0.1262
 7949TIP3    H245339   5.945   5.142  15.531  0.1637 -1.0658  0.9627
 7950TIP3   OH245340   5.794   1.785   5.609  0.2455  0.4883 -0.1735
 7950TIP3    H145341   5.776   1.778   5.515 -0.5852 -0.7481  0.0643
 7950TIP3    H245342   5.725   1.842   5.643 -0.5663 -0.5849 -0.0089
 7951TIP3   OH245343   5.898   3.943  12.353 -0.7640  0.7517 -0.2410
 7951TIP3    H145344   5.874   3.938  12.446 -2.8035  1.5849 -0.6937
 7951TIP3    H245345   5.865   3.862  12.316  1.4603 -0.3150  0.0358
 7952TIP3   OH245346   3.676   3.305  16.747  0.0397 -0.3449 -0.0791
 7952TIP3    H145347   3.700   3.372  16.683  0.7848 -0.0730  0.4798
 7952TIP3    H245348   3.598   3.263  16.710  0.2552  0.0523 -0.9900
 7953TIP3   OH245349   2.745   1.366  11.837  0.1271  0.7641 -0.2364
 7953TIP3    H145350   2.813   1.317  11.882  0.1896  1.0102 -0.0651
 7953TIP3    H245351   2.776   1.373  11.747 -0.2507 -0.2015 -0.4497
 7954TIP3   OH245352   4.187   0.753  14.191  0.4800  0.6109 -0.3234
 7954TIP3    H145353   4.116   0.739  14.129 -1.3157  3.4434  0.9842
 7954TIP3    H245354   4.169   0.691  14.262 -0.9771  1.5697  0.1832
 7955TIP3   OH245355   2.623   2.933  10.397 -0.2251  0.1467 -0.3529
 7955TIP3    H145356   2.627   2.853  10.450 -1.2360  2.5635  3.6289
 7955TIP3    H245357   2.536   2.930  10.356 -0.2802 -0.7714 -0.1844
 7956TIP3   OH245358   3.204   6.630   0.446  0.7094  0.0329  0.1251
 7956TIP3    H145359   3.214   6.542   0.411  1.7476  0.3592 -0.4426
 7956TIP3    H245360   3.205   6.619   0.541 -0.0826 -0.6578  0.0511
 7957TIP3   OH245361   0.414   3.914   3.110  0.1460  0.2982  0.3781
 7957TIP3    H145362   0.348   3.980   3.131  2.2649  2.0506  1.8039
 7957TIP3    H245363   0.443   3.881   3.195  2.2461  0.7464 -0.1332
 7958TIP3   OH245364   1.400   1.803   0.491  0.5096  0.5068 -0.0063
 7958TIP3    H145365   1.420   1.812   0.397  0.6796 -2.4188 -0.3145
 7958TIP3    H245366   1.486   1.788   0.531  0.5812  2.9720  0.8248
 7959TIP3   OH245367   1.534   5.357   5.331  0.0053 -0.3171 -0.3971
 7959TIP3    H145368   1.626   5.384   5.330  0.1227 -0.6792  0.2507
 7959TIP3    H245369   1.487   5.431   5.294  0.1001  1.6010  3.1753
 7960TIP3   OH245370   0.034   3.558  11.716  0.5065 -0.1912  0.4899
 7960TIP3    H145371   0.029   3.531  11.807 -0.3201 -1.1847  0.1563
 7960TIP3    H245372  -0.045   3.611  11.702  0.4626 -0.3191  0.2566
 7961TIP3   OH245373   1.522   2.678  15.370  0.4417  0.1824  0.0868
 7961TIP3    H145374   1.485   2.621  15.438 -1.8278 -0.6053 -1.7242
 7961TIP3    H245375   1.479   2.762  15.384 -1.1957 -0.4002 -1.2703
 7962TIP3   OH245376   2.799   5.841   6.137 -0.0916 -0.1111 -0.0864
 7962TIP3    H145377   2.786   5.831   6.231 -0.3918 -0.7328 -0.1854
 7962TIP3    H245378   2.836   5.928   6.126  1.7478 -0.7667  0.7684
 7963TIP3   OH245379   2.239   5.508  14.516 -0.4263  0.3649 -0.5869
 7963TIP3    H145380   2.335   5.507  14.517 -0.3955 -2.1875 -1.3497
 7963TIP3    H245381   2.214   5.498  14.608  0.0663 -0.1804 -0.5086
 7964TIP3   OH245382   5.992   0.057  15.661 -0.1128  0.1366  0.5390
 7964TIP3    H145383   6.053  -0.011  15.632 -0.8150 -0.8008  1.1864
 7964TIP3    H245384   6.035   0.139  15.641  0.8937 -0.5110  0.0107
 7965TIP3   OH245385   6.667   1.173   2.763  0.1469 -0.0923 -0.4956
 7965TIP3    H145386   6.622   1.219   2.692 -0.5615  0.5055  0.3371
 7965TIP3    H245387   6.598   1.151   2.825  0.8183 -0.2749  0.1976
 7966TIP3   OH245388   4.952   3.098  17.232  0.2372 -0.5361  0.4649
 7966TIP3    H145389   4.904   3.018  17.209  1.9216 -0.8773 -2.0687
 7966TIP3    H245390   4.957   3.147  17.150  1.0608  1.1898  1.5178
 7967TIP3   OH245391   4.339   4.832  15.213 -0.3219  0.1573 -0.6341
 7967TIP3    H145392   4.329   4.919  15.173  2.2053  0.8022  0.0391
 7967TIP3    H245393   4.399   4.846  15.286  0.0723 -2.1711 -0.4774
 7968TIP3   OH245394   4.453   0.380  17.050  0.1437 -0.5200 -0.0367
 7968TIP3    H145395   4.364   0.412  17.041  0.2840 -0.5546 -1.7782
 7968TIP3    H245396   4.449   0.314  17.119 -1.6048 -2.0600 -1.5849
 7969TIP3   OH245397   6.119   1.343  12.864 -0.1216  0.2924  0.1243
 7969TIP3    H145398   6.213   1.334  12.879  0.1990  0.1066 -1.8337
 7969TIP3    H245399   6.093   1.418  12.917  1.1505  0.4244  0.5884
 7970TIP3   OH245400   1.739   6.394  16.786  0.1665 -0.3089  0.0596
 7970TIP3    H145401   1.652   6.355  16.778  0.8492 -2.0461  0.8782
 7970TIP3    H245402   1.735   6.445  16.868 -0.9912  2.1131 -1.4510
 7971TIP3   OH245403   6.596   4.184  11.538  0.7797 -0.1700 -0.9247
 7971TIP3    H145404   6.679   4.224  11.511  0.2381  0.1134 -2.1681
 7971TIP3    H245405   6.531   4.216  11.476 -0.7017  1.2734  1.3111
 7972TIP3   OH245406   4.123   2.666  14.506 -0.4076 -0.6866 -0.2747
 7972TIP3    H145407   4.032   2.656  14.536  0.1641 -1.3907  1.3110
 7972TIP3    H245408   4.175   2.650  14.585  1.0483  1.2498 -0.8210
 7973TIP3   OH245409   3.927   3.140  16.368  0.3637  0.0956  0.6530
 7973TIP3    H145410   3.849   3.145  16.313  0.2509 -0.5767  0.7433
 7973TIP3    H245411   3.995   3.185  16.319  0.5261 -1.3546 -0.4835
 7974TIP3   OH245412   5.438   5.307  15.495 -0.5283 -0.2719 -0.1232
 7974TIP3    H145413   5.377   5.372  15.460  0.1845  0.4706  0.0093
 7974TIP3    H245414   5.436   5.236  15.430 -1.1720 -0.0499 -0.3579
 7975TIP3   OH245415   5.000   0.766   2.169  0.7907 -0.2931 -0.1595
 7975TIP3    H145416   4.912   0.779   2.133  1.8709 -0.8766 -3.1348
 7975TIP3    H245417   5.014   0.671   2.165  1.0759 -0.3366  1.5163
 7976TIP3   OH245418   0.774   1.359   4.502 -0.4783  0.7439 -0.0008
 7976TIP3    H145419   0.845   1.350   4.439 -0.1162 -0.0898  0.5295
 7976TIP3    H245420   0.695   1.363   4.447 -0.1340  0.4245 -0.5256
 7977TIP3   OH245421   1.595   0.819   3.300 -0.2090  0.0445  0.4332
 7977TIP3    H145422   1.554   0.800   3.384 -1.8785 -1.6116 -0.7100
 7977TIP3    H245423   1.534   0.880   3.257  1.3281  1.9965  0.9724
 7978TIP3   OH245424   6.649   1.497   0.077  0.1809  0.4474 -0.3672
 7978TIP3    H145425   6.721   1.560   0.080 -0.3607  0.9816  2.5150
 7978TIP3    H245426   6.646   1.459   0.164 -0.8631 -2.0812 -1.4505
 7979TIP3   OH245427   0.576   1.668  11.840  0.1564 -0.0709  0.4270
 7979TIP3    H145428   0.486   1.687  11.867  0.5130 -0.4632  1.9191
 7979TIP3    H245429   0.607   1.750  11.801  0.8326  1.7513  4.4860
 7980TIP3   OH245430   3.195   2.042   4.191  0.7258  0.2841 -0.8617
 7980TIP3    H145431   3.236   2.037   4.278 -1.2516  2.8330  0.2644
 7980TIP3    H245432   3.241   2.113   4.147 -1.2062  1.9911 -0.2225
 7981TIP3   OH245433   4.918   4.228   5.430  0.2775  0.0942  0.0941
 7981TIP3    H145434   4.918   4.205   5.523  0.6398  0.0617  0.0873
 7981TIP3    H245435   5.009   4.250   5.411 -0.0195  1.3302  0.0505
 7982TIP3   OH245436   0.832   5.863  15.258  0.1955 -0.0782 -0.1068
 7982TIP3    H145437   0.832   5.942  15.204 -0.0686 -0.9897 -1.4698
 7982TIP3    H245438   0.810   5.894  15.346  0.1535  1.3695 -0.6129
 7983TIP3   OH245439   2.513   4.634  11.691  0.7459  0.4357 -0.0604
 7983TIP3    H145440   2.578   4.670  11.752  1.3736 -0.8115  0.0403
 7983TIP3    H245441   2.564   4.607  11.615  0.2350  0.1249 -0.2958
 7984TIP3   OH245442   4.089   4.368   3.812  0.7244 -0.2378  0.6697
 7984TIP3    H145443   4.134   4.384   3.729  1.9645 -0.8189  1.2148
 7984TIP3    H245444   4.032   4.293   3.795 -1.4628  1.6492 -0.5382
 7985TIP3   OH245445   0.623   2.254  13.588 -0.0692  0.5859 -0.3822
 7985TIP3    H145446   0.545   2.277  13.638 -1.2835 -0.3791 -1.7824
 7985TIP3    H245447   0.623   2.313  13.513  1.0637  1.2092  0.1029
 7986TIP3   OH245448   0.799   0.825  13.487  0.3446 -0.4244  0.7301
 7986TIP3    H145449   0.838   0.748  13.531 -2.1295 -1.3408  1.4060
 7986TIP3    H245450   0.705   0.809  13.490 -0.0687  1.2819 -1.7323
 7987TIP3   OH245451   2.032   2.593  13.972 -0.1021  0.6099 -0.5265
 7987TIP3    H145452   1.948   2.580  14.017  0.0929  0.0109 -0.3375
 7987TIP3    H245453   2.024   2.680  13.932 -0.8769  0.4946 -0.6406
 7988TIP3   OH245454   6.768   4.326  16.331 -0.3885  0.1417  0.2261
 7988TIP3    H145455   6.852   4.280  16.337 -0.1004  0.8297  1.4292
 7988TIP3    H245456   6.766   4.383  16.407 -1.5442  0.8197 -0.3041
 7989TIP3   OH245457   2.565   0.747  14.703  0.3968  0.3452  0.0336
 7989TIP3    H145458   2.542   0.837  14.682  1.4974  0.5119 -0.5356
 7989TIP3    H245459   2.642   0.729  14.648  0.0481 -1.0081 -0.0295
 7990TIP3   OH245460   2.246   6.560   0.155  0.6632 -0.0398 -0.4778
 7990TIP3    H145461   2.260   6.471   0.124 -0.6991 -0.3512 -0.2650
 7990TIP3    H245462   2.290   6.563   0.240  1.3668 -0.2696 -0.8305
 7991TIP3   OH245463   0.954   2.820  11.086 -0.1266 -0.2300  0.1882
 7991TIP3    H145464   0.955   2.801  11.180 -1.8155 -1.3698 -0.0089
 7991TIP3    H245465   0.975   2.736  11.045  1.1113  0.3815 -0.4522
 7992TIP3   OH245466   3.047   1.842   0.273 -0.4987  0.0643 -0.0532
 7992TIP3    H145467   3.073   1.913   0.332 -1.3573  1.7993 -1.7043
 7992TIP3    H245468   3.127   1.793   0.258  0.0863  0.6047  1.2317
 7993TIP3   OH245469   5.377   1.489   4.574 -0.0157  0.0563  0.0074
 7993TIP3    H145470   5.309   1.493   4.641 -1.6070 -0.7134 -1.5352
 7993TIP3    H245471   5.419   1.404   4.587 -1.4965 -0.8531 -1.0803
 7994TIP3   OH245472   4.046   4.490   1.204  0.0492 -0.2941  0.3919
 7994TIP3    H145473   4.038   4.515   1.112 -0.4279 -1.6936  0.0491
 7994TIP3    H245474   3.967   4.439   1.222 -0.4742  1.0306  1.9256
 7995TIP3   OH245475   0.307   2.468  13.957  0.1351  0.1270 -0.6861
 7995TIP3    H145476   0.305   2.527  13.882  1.9564  0.9732 -0.1125
 7995TIP3    H245477   0.334   2.523  14.030 -0.1233 -0.9944  0.2766
 7996TIP3   OH245478   6.107   6.027   2.721  0.0308 -0.0904 -0.1633
 7996TIP3    H145479   6.137   6.096   2.781 -0.4408 -0.9799  1.1183
 7996TIP3    H245480   6.112   5.947   2.773  1.0003 -1.0943 -1.7909
 7997TIP3   OH245481   4.726   4.688   1.614  0.3866 -0.5011 -0.0341
 7997TIP3    H145482   4.677   4.655   1.539  1.4481 -1.0617 -0.4849
 7997TIP3    H245483   4.806   4.637   1.615 -0.4555 -1.8591  2.6665
 7998TIP3   OH245484   4.408   3.381   4.970 -0.0450 -0.6479 -0.0251
 7998TIP3    H145485   4.374   3.355   5.056  0.9048 -1.6968  0.0356
 7998TIP3    H245486   4.364   3.464   4.952 -0.3939 -0.5080  1.3879
 7999TIP3   OH245487   3.884   2.912   4.496 -0.0412 -0.4196  0.2363
 7999TIP3    H145488   3.943   2.967   4.548 -0.6212  1.1169 -0.6945
 7999TIP3    H245489   3.894   2.824   4.534  0.8513  0.3240  1.8059
 8000TIP3   OH245490   2.361   1.221   4.131 -0.1938  0.2589  0.1748
 8000TIP3    H145491   2.338   1.130   4.150 -0.6312  0.2186 -0.5225
 8000TIP3    H245492   2.420   1.247   4.202  0.8261 -0.9349 -0.2212
 8001TIP3   OH245493   1.265   0.673  13.516 -0.0168  0.2053  0.4624
 8001TIP3    H145494   1.222   0.738  13.571  0.6268  1.8212 -0.9067
 8001TIP3    H245495   1.196   0.644  13.455 -0.0396  0.3409  0.4247
 8002TIP3   OH245496   5.211   0.076  11.292 -0.1132  0.2983  0.1375
 8002TIP3    H145497   5.165   0.159  11.277 -2.1758 -0.8861 -0.2867
 8002TIP3    H245498   5.181   0.020  11.221 -1.2017 -1.8295  2.2381
 8003TIP3   OH245499   6.725   3.343  14.874  0.3990  0.1408  0.3323
 8003TIP3    H145500   6.664   3.285  14.920  0.9452  1.3999  2.7260
 8003TIP3    H245501   6.693   3.344  14.784 -3.6341  1.3455  1.6696
 8004TIP3   OH245502   4.144   4.368  15.569 -0.1841 -0.2058 -0.0736
 8004TIP3    H145503   4.234   4.377  15.536 -0.1080 -1.6022 -0.2454
 8004TIP3    H245504   4.153   4.367  15.664  0.0463 -1.0073 -0.1024
 8005TIP3   OH245505   3.514   4.188   2.122  0.1721  0.3635 -0.2730
 8005TIP3    H145506   3.562   4.106   2.138  0.7223  0.2512 -2.3628
 8005TIP3    H245507   3.464   4.171   2.042 -0.0309  1.9342 -0.4881
 8006TIP3   OH245508   5.078   2.989  16.472  0.1543  0.5717  0.1518
 8006TIP3    H145509   5.159   2.958  16.513  0.1931 -0.0002 -0.3444
 8006TIP3    H245510   5.068   2.933  16.395  0.7336  2.4138 -1.3138
 8007TIP3   OH245511   1.533   5.155  15.001  0.1563 -0.0697 -0.4370
 8007TIP3    H145512   1.462   5.123  15.057  0.7778 -2.1158 -0.7950
 8007TIP3    H245513   1.605   5.173  15.061 -0.3428  1.1173 -0.1815
 8008TIP3   OH245514   4.076   5.520   5.349  0.5685  0.1290 -0.7120
 8008TIP3    H145515   4.016   5.487   5.282  0.6954 -0.0630 -0.7321
 8008TIP3    H245516   4.040   5.604   5.375  0.2561 -0.0154 -0.6808
 8009TIP3   OH245517   4.203   1.617  13.670  0.1598  0.3582  0.2868
 8009TIP3    H145518   4.226   1.654  13.755  0.1085 -0.3075  0.5962
 8009TIP3    H245519   4.113   1.645  13.655  0.9681  2.5678 -0.7014
 8010TIP3   OH245520   5.197   0.575  15.094 -0.2457  0.2133 -0.1305
 8010TIP3    H145521   5.199   0.670  15.109  1.3790  0.9264 -4.2964
 8010TIP3    H245522   5.284   0.546  15.122 -0.2132  0.1800 -0.2673
 8011TIP3   OH245523   2.433   0.470  15.399 -0.6560  0.4097  0.8385
 8011TIP3    H145524   2.357   0.515  15.360  0.9448  1.4431 -1.1719
 8011TIP3    H245525   2.496   0.540  15.417  1.3773 -0.8581 -1.1758
 8012TIP3   OH245526   6.008   1.709  13.689  0.1366  0.3139  0.2251
 8012TIP3    H145527   6.035   1.797  13.715 -0.3179  0.6070 -0.2930
 8012TIP3    H245528   5.968   1.720  13.603 -1.2709 -0.1723  0.7926
 8013TIP3   OH245529   3.301   0.644   3.645 -0.0298 -0.2184 -0.4422
 8013TIP3    H145530   3.266   0.674   3.729 -0.3634 -0.9700 -0.3015
 8013TIP3    H245531   3.387   0.685   3.638  0.0661 -0.2842  0.3443
 8014TIP3   OH245532   2.944   1.070  12.329  0.0146 -0.7183  0.6012
 8014TIP3    H145533   2.899   1.144  12.286  0.0910 -0.4705  0.9475
 8014TIP3    H245534   2.874   1.009  12.351 -0.0090 -0.9321 -0.0360
 8015TIP3   OH245535   6.205   5.913  14.598 -0.2171  0.1771  0.8083
 8015TIP3    H145536   6.252   5.890  14.518  0.9092  0.9294  1.2457
 8015TIP3    H245537   6.145   5.983  14.571 -0.1663  0.1194  0.5366
 8016TIP3   OH245538   2.377   2.237   0.415  0.3273  0.4286 -0.0364
 8016TIP3    H145539   2.456   2.291   0.407  0.4124  0.4294  0.8668
 8016TIP3    H245540   2.329   2.276   0.488 -0.3847  0.2627 -0.4108
 8017TIP3   OH245541   1.153   5.199   6.344  0.4648 -0.2756 -0.4524
 8017TIP3    H145542   1.105   5.282   6.337  0.0144 -0.4290  0.7135
 8017TIP3    H245543   1.242   5.224   6.368 -0.1646 -0.2191  1.9186
 8018TIP3   OH245544   1.865   0.830   2.475 -0.1367 -0.0889 -0.3344
 8018TIP3    H145545   1.886   0.918   2.445  1.6544 -0.5434 -0.4199
 8018TIP3    H245546   1.890   0.829   2.568  0.8550 -0.8352 -0.6054
 8019TIP3   OH245547   6.403   4.830   5.781 -0.0020 -0.0882 -0.5180
 8019TIP3    H145548   6.461   4.876   5.842  0.9161  1.1619 -2.2822
 8019TIP3    H245549   6.417   4.874   5.697  0.1383 -2.9709 -2.0542
 8020TIP3   OH245550   5.239   1.689   6.158  0.0818  0.9688  0.1873
 8020TIP3    H145551   5.260   1.772   6.116  1.5935 -0.3867 -1.8184
 8020TIP3    H245552   5.301   1.682   6.230 -1.1640  2.3362  1.4296
 8021TIP3   OH245553   6.138   3.617   5.034 -0.0102 -0.2048  0.4763
 8021TIP3    H145554   6.094   3.670   5.100  1.6923  0.3480  1.1884
 8021TIP3    H245555   6.212   3.670   5.006 -0.7219 -0.4364 -1.9189
 8022TIP3   OH245556   6.059   3.050  15.563  0.1773 -0.0374  0.0317
 8022TIP3    H145557   6.104   2.991  15.504 -0.9152  2.7724 -3.8292
 8022TIP3    H245558   6.129   3.104  15.601  0.6605 -0.1619 -0.6805
 8023TIP3   OH245559   2.425   3.398   0.779 -0.8230  0.0445  0.3312
 8023TIP3    H145560   2.461   3.313   0.805  0.0381  0.0323 -0.8484
 8023TIP3    H245561   2.426   3.396   0.683 -0.6044  1.4582  0.3005
 8024TIP3   OH245562   1.316   3.341   3.928  0.0937  0.2950  0.4266
 8024TIP3    H145563   1.365   3.366   3.849  0.2141  1.0448  0.7367
 8024TIP3    H245564   1.226   3.330   3.897 -0.1284  1.9413  0.4335
 8025TIP3   OH245565   3.961   3.266   1.423  0.0433 -0.0007 -0.3261
 8025TIP3    H145566   4.055   3.252   1.435 -0.0753  0.3228  1.1002
 8025TIP3    H245567   3.954   3.356   1.390  0.2286  0.0506 -0.2270
 8026TIP3   OH245568   5.764   3.931   2.949 -0.2406  0.1721 -0.4938
 8026TIP3    H145569   5.817   3.954   3.025  0.6884 -0.8780 -0.8054
 8026TIP3    H245570   5.674   3.944   2.977  0.1018 -0.0663  0.7320
 8027TIP3   OH245571   5.546   4.713   5.957 -0.3111 -0.1340 -0.0322
 8027TIP3    H145572   5.529   4.768   6.034 -1.4107 -1.3707  0.6178
 8027TIP3    H245573   5.601   4.642   5.989 -0.4332 -0.4332 -0.4728
 8028TIP3   OH245574   6.170   3.235   2.719  0.7341 -0.2703  0.1966
 8028TIP3    H145575   6.090   3.233   2.772  1.0643 -0.1114  0.7098
 8028TIP3    H245576   6.225   3.165   2.756  1.7560  1.0943  1.3340
 8029TIP3   OH245577   3.569   0.427   1.093 -0.2048  0.4471  0.0135
 8029TIP3    H145578   3.515   0.442   1.171  0.6262 -1.1910  0.9136
 8029TIP3    H245579   3.591   0.334   1.096  1.4569  0.7803 -1.1358
 8030TIP3   OH245580   6.365   6.474   0.307 -0.2662 -0.0580 -0.7771
 8030TIP3    H145581   6.423   6.466   0.231  0.6891  1.8964 -0.2871
 8030TIP3    H245582   6.424   6.480   0.382 -1.1635 -0.4815 -0.0255
 8031TIP3   OH245583   2.302   5.413   0.877  0.3941  0.0178 -0.2229
 8031TIP3    H145584   2.370   5.346   0.879 -1.6104 -2.0512  0.7928
 8031TIP3    H245585   2.254   5.396   0.796  1.2120  1.6366 -1.0706
 8032TIP3   OH245586   6.251   5.234  15.854  0.4616  0.1959 -0.0793
 8032TIP3    H145587   6.270   5.272  15.940  0.4256 -0.9296  0.4458
 8032TIP3    H245588   6.296   5.149  15.856 -1.1231 -0.6598 -0.4510
 8033TIP3   OH245589   5.852   4.693   5.173 -0.7034  0.2683 -0.2704
 8033TIP3    H145590   5.897   4.731   5.098  2.0804  0.2617  1.3333
 8033TIP3    H245591   5.870   4.599   5.167  0.4758  0.3983  0.9831
 8034TIP3   OH245592   2.983   0.073   6.689 -0.2707  0.2074 -0.5179
 8034TIP3    H145593   2.986   0.047   6.782 -0.8021  1.1573 -0.2287
 8034TIP3    H245594   2.922   0.147   6.687 -0.4136  0.0629 -1.6623
 8035TIP3   OH245595   5.389   6.396  10.578 -0.2870  0.1697  0.1948
 8035TIP3    H145596   5.349   6.469  10.624  0.0234  0.8343 -0.5880
 8035TIP3    H245597   5.482   6.418  10.571  0.0416 -0.8742  1.0548
 8036TIP3   OH245598   3.031   3.270   5.954 -0.2883  0.1347 -1.0224
 8036TIP3    H145599   2.973   3.318   6.012  0.2688 -0.3776 -0.0305
 8036TIP3    H245600   3.019   3.178   5.978  1.7146  0.0991 -0.0514
 8037TIP3   OH245601   4.247   5.775  16.209  0.6162  0.0197 -0.6740
 8037TIP3    H145602   4.161   5.816  16.206  0.4646 -0.3059 -0.7615
 8037TIP3    H245603   4.281   5.784  16.120  0.6504  0.0996 -0.6523
 8038TIP3   OH245604   0.028   3.754  12.211 -0.1811 -0.4728 -0.0078
 8038TIP3    H145605  -0.023   3.718  12.283  0.4094 -0.7527  0.2761
 8038TIP3    H245606   0.101   3.799  12.254  1.0449 -1.9862 -0.4801
 8039TIP3   OH245607   4.155   5.198   4.661  0.3327  0.1274 -0.3097
 8039TIP3    H145608   4.241   5.215   4.700  0.4047  0.2560 -0.5236
 8039TIP3    H245609   4.095   5.253   4.711  0.3410 -0.1362 -0.0087
 8040TIP3   OH245610   1.322   6.530  16.781 -0.0349 -0.0074  0.2140
 8040TIP3    H145611   1.385   6.500  16.716 -0.8507  1.2709 -1.1983
 8040TIP3    H245612   1.239   6.489  16.754  0.3154 -2.4224  2.5705
 8041TIP3   OH245613   6.204   5.734   0.032 -0.8052 -0.3293 -0.5608
 8041TIP3    H145614   6.137   5.783  -0.016 -1.7153 -2.0874 -1.1409
 8041TIP3    H245615   6.159   5.701   0.110 -0.2549 -0.3810 -0.2631
 8042TIP3   OH245616   3.556   1.972  14.951 -0.1992  0.5805 -0.1195
 8042TIP3    H145617   3.630   2.032  14.953  0.4466 -0.2743  2.3944
 8042TIP3    H245618   3.593   1.888  14.922 -0.9584  1.1201 -2.8464
 8043TIP3   OH245619   4.170   1.710   0.147  0.0977  0.2802  0.2149
 8043TIP3    H145620   4.193   1.656   0.072 -0.1171  0.5844 -0.0671
 8043TIP3    H245621   4.110   1.776   0.113 -0.7064 -0.1201  0.8296
 8044TIP3   OH245622   6.727   4.750   5.716  0.1394 -0.4151  0.7936
 8044TIP3    H145623   6.822   4.745   5.713  0.1391  0.3914 -1.4230
 8044TIP3    H245624   6.708   4.834   5.757  0.3778 -0.0891  0.2252
 8045TIP3   OH245625   2.801   5.514   6.264 -0.5519 -0.3773 -0.2259
 8045TIP3    H145626   2.786   5.506   6.169 -1.7037 -2.8334  0.1181
 8045TIP3    H245627   2.729   5.569   6.294  0.8174  1.9138 -0.9911
 8046TIP3   OH245628   2.259   5.270   3.431 -0.0969  0.1046  0.0599
 8046TIP3    H145629   2.312   5.267   3.352 -1.7267 -3.9158 -1.0126
 8046TIP3    H245630   2.174   5.301   3.402  0.0274  1.0585  0.7054
 8047TIP3   OH245631   2.047   2.683   3.242  0.2998 -0.2866 -0.3123
 8047TIP3    H145632   2.086   2.596   3.230  2.9045  0.3700  2.7545
 8047TIP3    H245633   2.099   2.741   3.187  1.3090 -0.0260  0.8876
 8048TIP3   OH245634   0.166   0.761  11.759 -0.1420 -0.4570  0.4178
 8048TIP3    H145635   0.161   0.855  11.740  2.4443 -0.2419  0.5638
 8048TIP3    H245636   0.218   0.725  11.687 -1.8101 -1.9446 -0.0773
 8049TIP3   OH245637   2.543   2.114  16.570 -0.3955  0.0032 -0.0683
 8049TIP3    H145638   2.543   2.113  16.474 -0.7772  0.8960 -0.0806
 8049TIP3    H245639   2.482   2.045  16.595  1.9956 -2.3349 -0.4319
 8050TIP3   OH245640   5.792   4.729   1.415 -0.5819 -0.0395  0.4518
 8050TIP3    H145641   5.851   4.744   1.341  0.6482 -0.2248  1.3705
 8050TIP3    H245642   5.733   4.804   1.414  0.6848  0.9788  0.4580
 8051TIP3   OH245643   1.718   2.019  14.521 -0.0596  0.3476 -0.1181
 8051TIP3    H145644   1.811   2.003  14.510  0.2216  1.4983  0.5816
 8051TIP3    H245645   1.705   2.109  14.492 -1.0585  0.0198 -0.7575
 8052TIP3   OH245646   0.125   6.036  17.149  0.4537 -0.5681 -0.7015
 8052TIP3    H145647   0.198   5.974  17.144  0.0624 -1.0931  0.0075
 8052TIP3    H245648   0.049   5.986  17.121 -0.0676 -0.7658  1.0022
 8053TIP3   OH245649   5.678   0.985   0.335 -0.1436  0.3348  0.3366
 8053TIP3    H145650   5.772   0.988   0.353 -0.4106 -1.4006  2.1676
 8053TIP3    H245651   5.657   0.892   0.334 -1.9014  0.7293  0.1748
 8054TIP3   OH245652   0.692   0.722  14.675  0.0558 -0.0389  0.3252
 8054TIP3    H145653   0.599   0.729  14.696 -0.4804 -1.2497 -1.5342
 8054TIP3    H245654   0.728   0.665  14.743 -0.9551 -1.1461 -0.0529
 8055TIP3   OH245655   3.701   0.621  15.403  0.1186 -0.0438 -0.0020
 8055TIP3    H145656   3.640   0.684  15.367 -1.1055 -1.0455  0.2976
 8055TIP3    H245657   3.787   0.651  15.373 -0.5773  0.9551 -1.0256
 8056TIP3   OH245658   4.525   2.834   2.843 -0.0798 -0.5314 -0.4336
 8056TIP3    H145659   4.536   2.753   2.792  0.9610 -0.2290 -0.7066
 8056TIP3    H245660   4.438   2.826   2.883  0.1487 -1.9337 -0.2015
 8057TIP3   OH245661   3.856   5.886  14.461  0.6187 -0.1237  0.2507
 8057TIP3    H145662   3.847   5.933  14.543 -0.8794 -0.5064  0.3115
 8057TIP3    H245663   3.790   5.924  14.403  0.8160 -0.7159 -0.3765
 8058TIP3   OH245664   5.938   1.939  16.309  0.3463  0.5927  0.0474
 8058TIP3    H145665   5.958   1.846  16.318 -0.2256  0.2793 -1.7215
 8058TIP3    H245666   5.847   1.941  16.278  0.2374  1.7541  0.4253
 8059TIP3   OH245667   3.535   3.145   0.840  0.1220 -0.0715  0.1496
 8059TIP3    H145668   3.489   3.085   0.899  0.6944 -0.0453  0.6357
 8059TIP3    H245669   3.568   3.090   0.769 -1.3311  0.0350 -0.6113
 8060TIP3   OH245670   4.495   6.316  12.667  0.3803  0.3406 -0.9838
 8060TIP3    H145671   4.445   6.398  12.659 -2.7366 -1.5027 -1.3958
 8060TIP3    H245672   4.525   6.298  12.578 -1.3224 -0.3488 -1.4468
 8061TIP3   OH245673   0.692   4.825   2.073 -0.3841  0.6138 -0.1619
 8061TIP3    H145674   0.600   4.812   2.051 -0.7071 -0.3633  1.6594
 8061TIP3    H245675   0.735   4.743   2.046  0.3692  1.8480 -2.9374
 8062TIP3   OH245676   4.708   4.197  10.533 -0.6510 -0.3581 -0.4803
 8062TIP3    H145677   4.740   4.185  10.443  1.2433 -0.6012  0.2014
 8062TIP3    H245678   4.678   4.288  10.535  1.1558  0.2671 -0.8309
 8063TIP3   OH245679   1.686   2.033   2.943  0.1247  0.5819  0.2874
 8063TIP3    H145680   1.631   2.068   2.872  0.9099  1.2921  0.0311
 8063TIP3    H245681   1.718   1.949   2.908 -0.1118  0.5644  0.1091
 8064TIP3   OH245682   2.505   4.854  13.094  0.0008 -0.1247  0.7461
 8064TIP3    H145683   2.521   4.909  13.171 -1.0396 -0.9657  1.5802
 8064TIP3    H245684   2.430   4.799  13.119 -1.8237  1.1903 -1.7330
 8065TIP3   OH245685   5.538   1.892  13.485  0.5360  0.5253 -0.1952
 8065TIP3    H145686   5.467   1.937  13.439  1.2901  1.4864 -0.4417
 8065TIP3    H245687   5.617   1.916  13.437  1.2259  0.7863  1.0294
 8066TIP3   OH245688   0.115   3.285   2.390 -0.0100  0.0896 -0.0194
 8066TIP3    H145689   0.091   3.237   2.469 -0.5657 -1.1788 -0.9303
 8066TIP3    H245690   0.196   3.330   2.412  1.0688 -2.0977  0.5738
 8067TIP3   OH245691   0.995   2.990  17.163  0.1751  0.1513 -0.4390
 8067TIP3    H145692   1.089   3.005  17.152  0.0374  0.4013 -1.2776
 8067TIP3    H245693   0.973   3.037  17.244  0.9246 -0.5964  0.2082
 8068TIP3   OH245694   6.407   1.923  15.045 -0.1177 -0.2691  0.1404
 8068TIP3    H145695   6.445   1.988  14.985 -0.2614 -0.5238 -0.2239
 8068TIP3    H245696   6.410   1.966  15.131 -3.1965  1.4958 -0.5786
 8069TIP3   OH245697   3.631   6.708  13.245 -0.0222  0.0108 -0.3624
 8069TIP3    H145698   3.686   6.786  13.253  0.0508  0.0001 -0.7307
 8069TIP3    H245699   3.624   6.694  13.150  1.1579 -1.2836 -0.2653
 8070TIP3   OH245700   1.727   5.642  14.803 -0.2329  0.2563 -0.4921
 8070TIP3    H145701   1.733   5.711  14.737 -1.7492  1.2010  0.3378
 8070TIP3    H245702   1.637   5.647  14.835  0.2626 -0.6975  1.1128
 8071TIP3   OH245703   3.295   1.050  14.277  0.2139 -0.4879  0.3597
 8071TIP3    H145704   3.311   1.018  14.188  1.3257  3.3336 -0.9046
 8071TIP3    H245705   3.372   1.021  14.327  0.0401 -1.8118 -0.1206
 8072TIP3   OH245706   4.415   0.759   0.300  0.8670 -0.5083 -0.0477
 8072TIP3    H145707   4.349   0.732   0.237  0.6454 -1.4340  0.5765
 8072TIP3    H245708   4.390   0.848   0.324 -0.7213 -1.1771  0.9001
 8073TIP3   OH245709   3.901   5.774   4.578  0.2555 -0.1595 -0.2548
 8073TIP3    H145710   3.869   5.818   4.499 -2.1099  0.9836  1.2665
 8073TIP3    H245711   3.849   5.694   4.584 -2.0656  1.4562  1.9640
 8074TIP3   OH245712   3.224   2.008  13.796  0.2847 -0.2206 -0.0270
 8074TIP3    H145713   3.175   1.935  13.758 -1.5081  1.3694 -0.9034
 8074TIP3    H245714   3.236   1.985  13.888 -0.6050 -1.4357 -0.2112
 8075TIP3   OH245715   3.685   5.344   5.305  0.2302 -0.5675 -0.0048
 8075TIP3    H145716   3.670   5.360   5.212  1.0899  0.1786 -0.0191
 8075TIP3    H245717   3.606   5.298   5.334 -0.5026  0.1198 -0.8667
 8076TIP3   OH245718   0.647   5.083   3.321 -0.4653 -0.3690 -0.2266
 8076TIP3    H145719   0.580   5.088   3.252 -1.6003 -2.0408  0.7199
 8076TIP3    H245720   0.683   4.995   3.314  0.6402  0.0368  0.2163
 8077TIP3   OH245721   2.940   0.611  12.930  0.2436 -0.1925 -0.3110
 8077TIP3    H145722   2.957   0.686  12.874 -1.8814  0.9781  0.5401
 8077TIP3    H245723   2.917   0.648  13.015 -0.4307 -1.8100  0.2468
 8078TIP3   OH245724   2.030   1.869   0.971 -0.5003 -0.2864  0.1451
 8078TIP3    H145725   2.113   1.916   0.980 -0.5844 -0.0394 -0.3040
 8078TIP3    H245726   1.964   1.938   0.968 -0.5983 -0.4080 -0.8058
 8079TIP3   OH245727   4.376   4.492  14.852  0.5853  0.3041  0.4504
 8079TIP3    H145728   4.329   4.429  14.798  0.2429  0.5808  0.4254
 8079TIP3    H245729   4.466   4.487  14.821  0.3609  0.5825 -0.2661
 8080TIP3   OH245730   0.578   6.681   2.862 -0.1638 -0.2240  0.3027
 8080TIP3    H145731   0.557   6.763   2.817  1.1040 -0.2620 -0.3803
 8080TIP3    H245732   0.611   6.623   2.793  1.7688 -0.3002  1.2580
 8081TIP3   OH245733   6.161   3.554  16.977 -0.2032 -0.1951 -0.1954
 8081TIP3    H145734   6.245   3.556  17.021 -0.8130 -0.0627  0.9802
 8081TIP3    H245735   6.154   3.640  16.934 -0.7930  0.7456  1.7277
 8082TIP3   OH245736   4.696   2.993  16.583 -0.2329  0.1957  1.0123
 8082TIP3    H145737   4.733   2.922  16.634 -1.3114  0.3325  1.9952
 8082TIP3    H245738   4.674   2.953  16.498 -0.2091 -0.4756  1.3218
 8083TIP3   OH245739   4.738   0.137   1.105 -0.5920  0.1501 -0.2645
 8083TIP3    H145740   4.761   0.198   1.035  0.7980  0.2956  0.3041
 8083TIP3    H245741   4.714   0.193   1.179 -0.8453 -0.0029 -0.2282
 8084TIP3   OH245742   4.701   4.461   2.826 -0.2660  0.6742 -0.1556
 8084TIP3    H145743   4.757   4.416   2.763 -0.7682 -0.3085  0.0769
 8084TIP3    H245744   4.693   4.550   2.793  0.7825  0.6021 -0.6088
 8085TIP3   OH245745   4.044   4.613  15.451  0.0252  0.3472  0.1046
 8085TIP3    H145746   4.072   4.649  15.535 -0.8541  1.4636 -0.0700
 8085TIP3    H245747   4.037   4.519  15.466 -0.2670  0.5597  1.3321
 8086TIP3   OH245748   1.752   0.893   3.997 -0.1927  0.2301  0.0317
 8086TIP3    H145749   1.714   0.853   4.075  2.1350 -1.3944  0.3976
 8086TIP3    H245750   1.796   0.971   4.029  1.8043 -1.0883  0.5882
 8087TIP3   OH245751   4.097   2.971   1.726  0.2528  0.0971 -0.4251
 8087TIP3    H145752   4.032   3.027   1.684 -0.1725 -0.6375 -0.7548
 8087TIP3    H245753   4.175   2.979   1.672 -0.4958 -1.3671 -1.7547
 8088TIP3   OH245754   1.307   1.377   1.208 -0.3264 -0.0380  0.1070
 8088TIP3    H145755   1.324   1.287   1.183 -0.2927 -0.0370  0.1271
 8088TIP3    H245756   1.319   1.427   1.127  2.2152  0.2880  0.6339
 8089TIP3   OH245757   4.406   4.071   5.838  0.1058 -0.4138  0.1056
 8089TIP3    H145758   4.396   4.045   5.929 -2.2918 -0.0605 -0.0093
 8089TIP3    H245759   4.460   4.149   5.840 -0.8869  0.2499  1.3469
 8090TIP3   OH245760   3.497   5.727   4.244 -0.2742  0.4806  0.7381
 8090TIP3    H145761   3.449   5.790   4.190 -0.3862  0.7776  1.1819
 8090TIP3    H245762   3.483   5.757   4.333 -0.2564 -0.1254  0.9468
 8091TIP3   OH245763   5.661   1.815  12.776 -0.2262  0.5985  0.6967
 8091TIP3    H145764   5.584   1.871  12.771  0.2676  1.2650  0.4397
 8091TIP3    H245765   5.705   1.828  12.692  1.1269  1.6246  1.5418
 8092TIP3   OH245766   6.677   1.124  15.751  0.7940 -0.1728  0.4564
 8092TIP3    H145767   6.648   1.212  15.776  0.4507  0.4638 -2.0295
 8092TIP3    H245768   6.754   1.108  15.805  1.6394  2.2202  0.0310
 8093TIP3   OH245769   3.118   4.034  14.893  0.1883 -0.9065 -0.1888
 8093TIP3    H145770   3.141   3.969  14.959 -0.8931 -2.2259 -1.0714
 8093TIP3    H245771   3.067   3.985  14.828 -2.0177  1.1563 -0.0650
 8094TIP3   OH245772   4.997   6.751   1.838  0.1801 -0.0062  0.1161
 8094TIP3    H145773   4.956   6.777   1.921  0.0602 -0.5441  0.2238
 8094TIP3    H245774   5.039   6.667   1.856 -0.3765 -0.4342 -0.5325
 8095TIP3   OH245775   2.865   6.445  13.271  0.0670  0.5808  0.2495
 8095TIP3    H145776   2.956   6.434  13.243  0.8378  0.9884  2.5130
 8095TIP3    H245777   2.831   6.516  13.216  0.8318 -0.1778 -1.2202
 8096TIP3   OH245778   3.685   2.206   4.849  0.7561  0.1179  0.0418
 8096TIP3    H145779   3.636   2.211   4.767 -0.1129 -1.1481  0.4717
 8096TIP3    H245780   3.744   2.281   4.846  0.2295  0.4921 -1.4157
 8097TIP3   OH245781   6.124   0.280   5.318 -0.0514 -0.5639  0.1412
 8097TIP3    H145782   6.103   0.247   5.405 -2.0788 -1.6265 -0.7337
 8097TIP3    H245783   6.040   0.293   5.276  0.9065  0.1894 -1.5899
 8098TIP3   OH245784   5.234   5.888   5.612 -0.2601  0.2161  0.5529
 8098TIP3    H145785   5.317   5.895   5.659 -0.0731  0.3024  0.2128
 8098TIP3    H245786   5.195   5.975   5.618  0.2979  0.5406 -0.4270
 8099TIP3   OH245787   1.444   5.231   0.946 -0.1636 -0.0273  0.5898
 8099TIP3    H145788   1.420   5.278   1.026  1.4461 -0.9275  1.6126
 8099TIP3    H245789   1.535   5.257   0.929 -0.7758  0.8872 -1.4901
 8100TIP3   OH245790   3.395   0.506  15.266 -0.4299  0.1994  0.6725
 8100TIP3    H145791   3.404   0.419  15.306  0.7728 -0.2932 -0.6264
 8100TIP3    H245792   3.465   0.558  15.305 -1.8167  0.9299  2.2620
 8101TIP3   OH245793   2.048   0.986   4.429 -0.1468 -0.1568  1.1074
 8101TIP3    H145794   1.961   1.024   4.445 -0.0226  0.1596  1.0325
 8101TIP3    H245795   2.072   0.944   4.511 -0.4347 -0.3717  1.0832
 8102TIP3   OH245796   3.485   0.394   1.337  0.6782  0.4009 -0.3559
 8102TIP3    H145797   3.529   0.323   1.383 -3.2419 -1.1428  1.2880
 8102TIP3    H245798   3.486   0.468   1.398 -1.5988 -0.6150  1.0051
 8103TIP3   OH245799   1.099   1.896   1.704 -0.6681 -0.0308  0.1950
 8103TIP3    H145800   1.138   1.817   1.740  0.1641  1.3960  2.4760
 8103TIP3    H245801   1.013   1.901   1.746 -0.2956  0.8344  0.8607
 8104TIP3   OH245802   5.709   4.517   6.084 -0.1492 -0.2575 -0.3849
 8104TIP3    H145803   5.803   4.534   6.093 -0.3060  0.0868  0.7724
 8104TIP3    H245804   5.670   4.559   6.161 -1.3496  0.3793 -1.3205
 8105TIP3   OH245805   1.413   0.289  16.232  0.2282  0.3369 -0.5231
 8105TIP3    H145806   1.377   0.290  16.321  1.5151 -1.1779  0.0330
 8105TIP3    H245807   1.343   0.327  16.178 -1.7496 -1.4567  0.6919
 8106TIP3   OH245808   4.325   4.268   1.037 -0.1177 -0.2461  0.1166
 8106TIP3    H145809   4.278   4.192   1.073 -1.0394  0.5528  0.6049
 8106TIP3    H245810   4.399   4.229   0.989 -0.0239 -1.4145  1.1766
 8107TIP3   OH245811   0.825   3.848  14.064  0.5095 -0.2034  0.4511
 8107TIP3    H145812   0.742   3.892  14.048  0.9597  0.3276 -0.5029
 8107TIP3    H245813   0.854   3.820  13.977  0.4158 -2.0466  1.0044
 8108TIP3   OH245814   0.806   1.824  14.813  0.8816 -0.3056 -0.2668
 8108TIP3    H145815   0.811   1.786  14.900  0.9844 -0.7008 -0.4452
 8108TIP3    H245816   0.806   1.749  14.754 -0.4364 -0.0827 -0.5585
 8109TIP3   OH245817   2.321   3.977   4.363 -0.2157 -0.1848 -0.1642
 8109TIP3    H145818   2.317   4.070   4.383  1.3472 -0.1729  0.1730
 8109TIP3    H245819   2.312   3.934   4.448 -1.7130 -0.3728 -0.4070
 8110TIP3   OH245820   2.972   4.391   1.567  0.1120 -0.2990 -0.3799
 8110TIP3    H145821   2.924   4.328   1.620  0.7538  0.8417  1.6275
 8110TIP3    H245822   3.061   4.357   1.563 -0.1117 -0.7863 -1.4215
 8111TIP3   OH245823   6.360   2.538  15.305  0.4270  0.2696 -0.1892
 8111TIP3    H145824   6.386   2.534  15.397  0.9690 -1.7950 -0.4267
 8111TIP3    H245825   6.437   2.508  15.257 -0.7570 -1.2625 -1.1676
 8112TIP3   OH245826   2.131   1.900   2.854  0.2686 -0.7817 -0.5606
 8112TIP3    H145827   2.221   1.932   2.850  0.1547 -0.5431 -1.3250
 8112TIP3    H245828   2.086   1.947   2.785 -0.9918  0.7615  1.2650
 8113TIP3   OH245829   3.783   2.191  11.459  0.3747 -0.1332 -0.3161
 8113TIP3    H145830   3.718   2.121  11.465  0.2394  0.0801  0.8421
 8113TIP3    H245831   3.853   2.154  11.407  1.1899 -1.8476  1.9024
 8114TIP3   OH245832   4.270   1.829   1.901  0.1803  0.1233 -0.0482
 8114TIP3    H145833   4.341   1.772   1.872  0.0453 -0.0082 -0.1212
 8114TIP3    H245834   4.313   1.897   1.953  0.2064 -0.7012  1.0131
 8115TIP3   OH245835   5.460   4.396   5.880  0.4613 -0.1281  0.1326
 8115TIP3    H145836   5.437   4.484   5.910  1.2387  0.0117  0.3319
 8115TIP3    H245837   5.427   4.337   5.947  1.1824  0.1095  0.7064
 8116TIP3   OH245838   4.785   1.562  15.540  0.3396 -0.4390 -0.3632
 8116TIP3    H145839   4.731   1.487  15.515  1.9020 -0.7538 -2.8979
 8116TIP3    H245840   4.863   1.524  15.580  1.0551 -0.2006 -1.4925
 8117TIP3   OH245841   4.775   3.351   3.630 -0.1321 -0.3671 -0.0440
 8117TIP3    H145842   4.847   3.359   3.692 -0.7567 -0.8404  0.7575
 8117TIP3    H245843   4.707   3.409   3.665 -0.4864 -0.6437 -0.2753
 8118TIP3   OH245844   3.658   2.360  16.441 -0.0320 -0.2489 -0.3023
 8118TIP3    H145845   3.753   2.370  16.440 -0.0773  0.7660  1.5974
 8118TIP3    H245846   3.632   2.366  16.349  1.6631  0.2237 -0.7777
 8119TIP3   OH245847   5.241   6.356  10.320  0.1324 -0.4357 -0.4944
 8119TIP3    H145848   5.321   6.342  10.270  0.1999  1.0893 -0.8531
 8119TIP3    H245849   5.271   6.374  10.409  0.3334  2.0572 -1.0267
 8120TIP3   OH245850   4.736   1.426  11.945  0.4072  0.4227  0.2526
 8120TIP3    H145851   4.714   1.504  11.894 -0.4815 -0.5041 -0.7995
 8120TIP3    H245852   4.829   1.438  11.966  0.6516  1.0852 -1.1183
 8121TIP3   OH245853   2.545   3.678  12.265  0.1699 -0.6726 -0.0233
 8121TIP3    H145854   2.461   3.636  12.247  0.0080  0.1070 -1.1146
 8121TIP3    H245855   2.592   3.615  12.321 -1.5097 -0.6711  1.4160
 8122TIP3   OH245856   0.402   2.212   4.701 -0.1499 -0.4962 -0.1887
 8122TIP3    H145857   0.461   2.287   4.702 -1.9438  0.9724  0.1655
 8122TIP3    H245858   0.453   2.140   4.737  2.3238 -0.0274 -2.5724
 8123TIP3   OH245859   3.550   2.852   2.633  0.1204  0.0256  0.3884
 8123TIP3    H145860   3.523   2.892   2.715 -0.3385 -0.3536  0.4245
 8123TIP3    H245861   3.641   2.825   2.648 -0.6592 -2.0482  1.5302
 8124TIP3   OH245862   4.529   5.752  14.310 -0.2977  0.4777  0.2348
 8124TIP3    H145863   4.447   5.749  14.360 -0.0511 -0.4790  0.5892
 8124TIP3    H245864   4.538   5.665  14.273 -0.3976  1.1324 -1.3974
 8125TIP3   OH245865   4.307   5.532   5.122 -0.2297 -0.2593 -0.4566
 8125TIP3    H145866   4.332   5.491   5.204 -0.7792 -1.6592 -0.9875
 8125TIP3    H245867   4.232   5.587   5.145  0.2931  0.2067  0.1765
 8126TIP3   OH245868   0.818   4.340  12.835 -0.4161  0.0679 -0.0127
 8126TIP3    H145869   0.752   4.272  12.824 -1.3069  0.9409 -0.1533
 8126TIP3    H245870   0.900   4.292  12.849 -1.2004 -1.0165  0.9274
 8127TIP3   OH245871   1.757   5.185   5.055  0.2131  0.2951 -0.8938
 8127TIP3    H145872   1.687   5.173   4.991  0.3356  0.8804 -1.1430
 8127TIP3    H245873   1.727   5.138   5.133 -0.3214  0.2916 -1.1002
 8128TIP3   OH245874   5.588   4.423   5.345  0.7953  0.2592 -0.2379
 8128TIP3    H145875   5.639   4.467   5.413 -0.0519  1.8895 -0.6247
 8128TIP3    H245876   5.652   4.380   5.289  1.5085 -1.0426  1.5482
 8129TIP3   OH245877   2.375   2.535  13.263 -0.1134  0.3522  0.5184
 8129TIP3    H145878   2.471   2.536  13.263 -0.1048 -0.2266 -0.0558
 8129TIP3    H245879   2.350   2.618  13.222  0.1720 -0.8235 -2.1083
 8130TIP3   OH245880   5.051   3.022  12.370  0.0727  0.5367 -0.0862
 8130TIP3    H145881   5.045   3.104  12.321 -0.8743 -0.0733 -1.0184
 8130TIP3    H245882   4.972   2.974  12.346  0.9675 -0.9615 -0.1086
 8131TIP3   OH245883   6.281   6.759  16.583 -0.4703  1.1996 -0.3359
 8131TIP3    H145884   6.360   6.741  16.633 -0.5867  1.1682 -0.1646
 8131TIP3    H245885   6.289   6.705  16.504 -2.0227 -1.6314  1.3559
 8132TIP3   OH245886   4.510   1.296   4.197  0.1906  0.1169  0.0627
 8132TIP3    H145887   4.597   1.337   4.196  0.6517 -0.8584  0.5869
 8132TIP3    H245888   4.457   1.355   4.250  0.6860  0.3912  0.2616
 8133TIP3   OH245889   0.272   5.148   5.100  0.1934  0.3541 -0.0986
 8133TIP3    H145890   0.209   5.132   5.169 -0.0402 -2.8656 -0.9666
 8133TIP3    H245891   0.351   5.102   5.128  0.1995 -0.7206 -1.7802
 8134TIP3   OH245892   6.536   4.561   5.756 -0.4066 -0.4756  0.0801
 8134TIP3    H145893   6.512   4.562   5.848  1.5523 -0.4702  0.6114
 8134TIP3    H245894   6.586   4.642   5.742 -3.3409  1.1270 -1.7627
 8135TIP3   OH245895   1.460   3.838   4.948  0.2433  0.2180  0.5600
 8135TIP3    H145896   1.477   3.774   4.879  0.6791  0.1647  0.7142
 8135TIP3    H245897   1.458   3.787   5.029 -0.2610  0.2818  0.5864
 8136TIP3   OH245898   2.283   5.406   2.439  0.1660 -0.2221  0.0330
 8136TIP3    H145899   2.358   5.365   2.397  1.2782  1.2375  0.5899
 8136TIP3    H245900   2.212   5.341   2.429  0.7236 -0.4377 -2.9402
 8137TIP3   OH245901   5.830   4.290  16.295 -0.6453 -0.6852  0.3190
 8137TIP3    H145902   5.822   4.197  16.316 -0.2944 -0.3303  2.0218
 8137TIP3    H245903   5.741   4.325  16.306 -0.4001 -0.4364  1.5333
 8138TIP3   OH245904   4.729   4.442  11.342  0.1876  0.1907  0.2746
 8138TIP3    H145905   4.734   4.351  11.314 -0.6548  0.1588  0.2345
 8138TIP3    H245906   4.792   4.448  11.414 -0.9946 -0.8469  1.4295
 8139TIP3   OH245907   6.119   1.556  11.877 -0.1969  0.2968 -0.0793
 8139TIP3    H145908   6.040   1.610  11.878  0.1921  0.8394  1.4441
 8139TIP3    H245909   6.153   1.566  11.787  0.1690  3.0361  0.2997
 8140TIP3   OH245910   5.136   4.710  11.626 -0.3174  0.4294  0.0363
 8140TIP3    H145911   5.067   4.732  11.563 -0.2266 -1.0517 -0.5804
 8140TIP3    H245912   5.136   4.784  11.687 -1.4533  1.1437 -0.8039
 8141TIP3   OH245913   4.145   4.793  14.044 -0.0720 -0.1979 -0.1027
 8141TIP3    H145914   4.193   4.710  14.054  1.8381  0.9397  0.4895
 8141TIP3    H245915   4.164   4.841  14.124  0.3803  1.5826 -1.2562
 8142TIP3   OH245916   4.010   5.064   2.087  0.6853 -0.5018  0.1085
 8142TIP3    H145917   3.989   5.157   2.077  2.0438 -0.2346 -0.3433
 8142TIP3    H245918   3.963   5.021   2.015 -1.1284 -0.3658  1.1799
 8143TIP3   OH245919   5.230   4.904   5.891 -0.1567 -0.2332 -0.4947
 8143TIP3    H145920   5.307   4.953   5.860 -0.1680 -0.3992 -0.7779
 8143TIP3    H245921   5.243   4.899   5.986  0.6995 -1.1433 -0.6565
 8144TIP3   OH245922   5.228   2.538   2.523  0.4699 -0.3486  0.2187
 8144TIP3    H145923   5.256   2.455   2.485 -0.8950 -0.7842  0.1334
 8144TIP3    H245924   5.217   2.596   2.448  1.0800 -0.2012  0.2456
 8145TIP3   OH245925   6.476   6.208  15.209 -0.2917 -0.3443  0.3079
 8145TIP3    H145926   6.523   6.135  15.167 -1.3290 -1.2452  0.6836
 8145TIP3    H245927   6.396   6.168  15.243 -0.3769  0.7693  1.4486
 8146TIP3   OH245928   3.601   0.218   1.542  0.5982  0.4176  0.4616
 8146TIP3    H145929   3.676   0.182   1.496  0.5130 -0.9635  1.3611
 8146TIP3    H245930   3.544   0.143   1.557 -0.6132  1.3244  0.4364
 8147TIP3   OH245931   6.519   0.577  14.437  0.2911  0.5061 -0.0601
 8147TIP3    H145932   6.440   0.527  14.419  0.6604  0.5100 -1.7266
 8147TIP3    H245933   6.488   0.665  14.456 -0.2996 -0.1264  2.1114
 8148TIP3   OH245934   3.008   6.399  16.419  0.3376 -0.3713 -0.0641
 8148TIP3    H145935   2.966   6.431  16.499  1.4597  1.0178 -0.0145
 8148TIP3    H245936   3.100   6.386  16.443  0.6357 -0.1767 -1.0637
 8149TIP3   OH245937   3.031   1.095  10.394  0.4074 -0.0698 -0.2727
 8149TIP3    H145938   3.015   1.026  10.459  0.5725  1.0914  1.0218
 8149TIP3    H245939   3.104   1.145  10.430 -0.7210  1.7267 -0.4037
 8150TIP3   OH245940   5.325   0.595  13.376  0.4575 -0.1581 -0.4126
 8150TIP3    H145941   5.345   0.632  13.462 -1.1589  1.3693 -0.6810
 8150TIP3    H245942   5.332   0.500  13.389 -0.9354  0.0032  1.7070
 8151TIP3   OH245943   6.196   5.104  12.585 -0.0631 -0.0043  0.7663
 8151TIP3    H145944   6.135   5.157  12.636 -0.2741  0.1553  0.3425
 8151TIP3    H245945   6.191   5.017  12.625 -2.4744 -0.6539 -0.8823
 8152TIP3   OH245946   1.608   1.777  15.062  0.2576 -0.0315  0.3924
 8152TIP3    H145947   1.515   1.761  15.079 -0.2372  1.2979 -0.9444
 8152TIP3    H245948   1.618   1.764  14.968  1.7255 -1.5019  0.7232
 8153TIP3   OH245949   0.757   6.720   3.052  0.0330  0.2479  0.1293
 8153TIP3    H145950   0.708   6.705   2.972 -0.3862 -1.6023  0.7089
 8153TIP3    H245951   0.812   6.796   3.033 -2.3015  1.7198 -0.8681
 8154TIP3   OH245952   2.422   3.771  14.741  0.0279 -0.0746 -0.3468
 8154TIP3    H145953   2.386   3.759  14.653 -0.2973 -1.1410 -0.0783
 8154TIP3    H245954   2.415   3.865  14.757 -1.3743 -0.0799 -0.8447
 8155TIP3   OH245955   2.693   5.026  12.901  0.4963  0.1178  0.2342
 8155TIP3    H145956   2.603   5.031  12.934  0.4870  1.0259  0.0738
 8155TIP3    H245957   2.747   5.055  12.975  0.8026 -2.1011  0.9347
 8156TIP3   OH245958   5.560   2.844   5.926 -0.3953  0.7542  0.1919
 8156TIP3    H145959   5.487   2.811   5.979 -0.3099  0.5273  0.1708
 8156TIP3    H245960   5.544   2.938   5.919 -0.7240  0.6940  0.1284
 8157TIP3   OH245961   1.698   2.826  15.209 -0.1847 -0.3620 -0.3110
 8157TIP3    H145962   1.645   2.863  15.139 -1.0522 -0.8516  0.0708
 8157TIP3    H245963   1.635   2.808  15.279  0.3916 -1.5335 -0.0841
 8158TIP3   OH245964   0.437   6.371  16.885  0.1202  0.4652  0.0054
 8158TIP3    H145965   0.515   6.426  16.877  0.6953 -0.3777 -0.1752
 8158TIP3    H245966   0.469   6.287  16.918 -0.4741 -0.4613 -1.7273
 8159TIP3   OH245967   3.375   6.205   0.161  0.0734 -0.2820 -0.0508
 8159TIP3    H145968   3.411   6.118   0.177  1.8801  0.7842  1.9235
 8159TIP3    H245969   3.451   6.263   0.161 -1.2322  1.4755  0.0465
 8160TIP3   OH245970   4.647   0.128   4.158 -0.0048  0.0409  0.4417
 8160TIP3    H145971   4.726   0.103   4.206 -0.6881  1.9480  2.6347
 8160TIP3    H245972   4.679   0.163   4.075  1.3727 -0.3945  0.7759
 8161TIP3   OH245973   0.528   1.620   3.315  0.5265  0.0035 -0.3546
 8161TIP3    H145974   0.440   1.586   3.298  0.0271  1.6723 -1.2530
 8161TIP3    H245975   0.587   1.550   3.287 -0.5198 -1.0762  0.1368
 8162TIP3   OH245976   1.401   3.837   2.372 -0.1172 -0.5046 -0.5264
 8162TIP3    H145977   1.413   3.780   2.448  0.8627  1.0046  0.4749
 8162TIP3    H245978   1.425   3.924   2.403  0.5959  0.0852 -2.6553
 8163TIP3   OH245979   3.438   0.341   1.740 -0.2471 -0.0051 -0.3749
 8163TIP3    H145980   3.491   0.276   1.694  0.5129  1.3286 -1.4263
 8163TIP3    H245981   3.358   0.348   1.687 -1.1889 -1.4820  0.8098
 8164TIP3   OH245982   0.012   3.325  11.551 -0.0949 -0.1739  0.0230
 8164TIP3    H145983  -0.017   3.393  11.612 -1.5767 -0.5600 -0.2234
 8164TIP3    H245984   0.054   3.373  11.480 -0.1310  0.4105  0.3868
 8165TIP3   OH245985   6.067   0.861   2.677  0.2673 -0.1464 -0.2247
 8165TIP3    H145986   6.104   0.889   2.593 -0.0339 -2.0840 -1.0158
 8165TIP3    H245987   5.987   0.913   2.686  1.6087  1.9553  0.1292
 8166TIP3   OH245988   1.192   5.821  12.672  0.0190 -0.5301 -0.5393
 8166TIP3    H145989   1.283   5.796  12.689  0.5405  2.1842  1.1229
 8166TIP3    H245990   1.198   5.886  12.602 -0.2936  1.5565  1.2851
 8167TIP3   OH245991   6.065   3.942   0.633 -0.4621 -0.2280 -0.3757
 8167TIP3    H145992   6.079   3.873   0.568 -0.7053 -2.2755  1.6996
 8167TIP3    H245993   6.002   3.905   0.695 -0.4716  1.7955  0.8911
 8168TIP3   OH245994   5.232   2.303   3.995 -0.1758  0.0481 -0.0081
 8168TIP3    H145995   5.233   2.280   4.088  1.1323  3.6172  0.9502
 8168TIP3    H245996   5.262   2.394   3.992 -1.7064  0.5408 -3.8100
 8169TIP3   OH245997   0.449   5.096   3.091  0.3617 -0.0074  0.4974
 8169TIP3    H145998   0.512   5.067   3.024  0.5273  1.3305  0.0616
 8169TIP3    H245999   0.378   5.033   3.086  1.4435 -1.2606  0.6523
 8170TIP3   OH246000   4.026   1.903  14.543 -0.8185 -0.0412  0.3221
 8170TIP3    H146001   4.082   1.953  14.603  0.9999 -0.2345 -1.2063
 8170TIP3    H246002   4.020   1.816  14.583  0.2710 -0.1274  0.2937
 8171TIP3   OH246003   0.640   3.329  15.564  0.1344  0.0421  0.6361
 8171TIP3    H146004   0.680   3.355  15.480 -0.7125  1.6172  0.7017
 8171TIP3    H246005   0.613   3.412  15.604  1.1093 -0.6320  2.7830
 8172TIP3   OH246006   0.290   6.447   6.009 -0.1898  0.7179  0.0151
 8172TIP3    H146007   0.270   6.437   5.916  2.6131  0.2207 -0.5753
 8172TIP3    H246008   0.254   6.533   6.032 -1.2358  0.6762 -1.4217
 8173TIP3   OH246009   5.398   3.254  12.717 -0.3887  0.5351  0.1198
 8173TIP3    H146010   5.437   3.340  12.732 -1.0831  0.8090  0.3645
 8173TIP3    H246011   5.318   3.254  12.769  0.5102 -0.9196  1.5477
 8174TIP3   OH246012   4.437   4.871  14.723 -0.4576  0.3038  0.2210
 8174TIP3    H146013   4.413   4.939  14.786  0.2660  0.8035 -0.0338
 8174TIP3    H246014   4.497   4.814  14.771 -1.4856 -0.4732  0.6023
 8175TIP3   OH246015   5.498   5.664   2.675  0.3301 -0.3555 -0.1736
 8175TIP3    H146016   5.548   5.696   2.750  1.2539 -2.2124  0.0389
 8175TIP3    H246017   5.495   5.738   2.615  1.8491  0.3449  0.5717
 8176TIP3   OH246018   2.614   0.045  14.426 -0.2938  0.1801  0.4879
 8176TIP3    H146019   2.589   0.028  14.336  0.4800  2.4420 -0.1922
 8176TIP3    H246020   2.574  -0.026  14.477 -0.9871 -0.9284 -1.5805
 8177TIP3   OH246021   1.813   0.797  15.230 -0.2944 -0.0590 -0.3806
 8177TIP3    H146022   1.866   0.858  15.281 -0.2594  0.9093 -1.5558
 8177TIP3    H246023   1.859   0.790  15.146 -2.1276  0.9977 -1.5065
 8178TIP3   OH246024   0.263   4.379  12.172  0.3392 -0.4510 -0.3351
 8178TIP3    H146025   0.346   4.409  12.207 -0.1015  1.9589 -1.2478
 8178TIP3    H246026   0.206   4.370  12.248  1.0638 -0.8426  0.1578
 8179TIP3   OH246027   5.297   6.576   1.206  0.2095 -0.1266  0.1323
 8179TIP3    H146028   5.320   6.608   1.119  0.2328 -1.2081 -0.2666
 8179TIP3    H246029   5.224   6.516   1.191  2.7439 -3.3673  0.3752
 8180TIP3   OH246030   6.566   1.207  11.302  0.2113 -0.0642  0.2143
 8180TIP3    H146031   6.582   1.161  11.219  1.1213 -0.7678  0.7811
 8180TIP3    H246032   6.504   1.276  11.278  1.4180  0.5383 -1.3076
 8181TIP3   OH246033   1.127   3.778   2.293  0.3846  0.3775  0.5962
 8181TIP3    H146034   1.119   3.683   2.300  3.0872  0.1949  2.1820
 8181TIP3    H246035   1.209   3.798   2.338  0.2742  3.3862 -0.4238
 8182TIP3   OH246036   0.832   4.322  15.616 -0.0495  0.2085 -0.4578
 8182TIP3    H146037   0.916   4.311  15.573 -0.0398 -0.9993 -0.1425
 8182TIP3    H246038   0.836   4.410  15.653  2.6504 -1.1981  2.8969
 8183TIP3   OH246039   1.867   3.038  14.462 -0.2862 -0.2593  0.6398
 8183TIP3    H146040   1.927   2.996  14.523  0.7399  1.8392  1.1208
 8183TIP3    H246041   1.792   3.064  14.516 -0.4487 -0.5311  0.5460
 8184TIP3   OH246042   1.960   1.011   5.775 -0.2558 -0.0154  0.0080
 8184TIP3    H146043   2.040   0.964   5.751 -0.1010 -0.9945  2.3583
 8184TIP3    H246044   1.894   0.943   5.787 -1.3318  0.7507 -1.3747
 8185TIP3   OH246045   3.501   0.685  12.077 -0.1297  0.0173 -0.1441
 8185TIP3    H146046   3.439   0.614  12.088  0.8191 -0.6053  1.4297
 8185TIP3    H246047   3.477   0.726  11.994 -3.3644  0.5467  0.9885
 8186TIP3   OH246048   4.898   6.056   0.619  0.1988 -0.3551 -0.2601
 8186TIP3    H146049   4.818   6.108   0.630  0.8156  0.3143  1.2917
 8186TIP3    H246050   4.877   5.970   0.654  0.8688  0.5317  2.3958
 8187TIP3   OH246051   5.000   0.959  14.054  0.2095 -0.2635 -0.4629
 8187TIP3    H146052   5.047   0.914  13.984  1.8242  0.8004 -0.0806
 8187TIP3    H246053   4.928   0.900  14.076  1.6166 -2.1410 -0.7609
 8188TIP3   OH246054   1.486   4.918   0.677  0.0340  0.3244  0.3410
 8188TIP3    H146055   1.403   4.898   0.633 -0.1963  0.4523  0.7179
 8188TIP3    H246056   1.551   4.913   0.607  0.2465 -3.4264  0.6596
 8189TIP3   OH246057   1.999   2.838   0.404  0.0755  0.5644 -0.2831
 8189TIP3    H146058   1.941   2.911   0.427 -0.8715 -0.1734 -0.2950
 8189TIP3    H246059   1.960   2.800   0.326  0.4152 -0.1175 -0.1226
 8190TIP3   OH246060   6.207   1.735  14.616 -0.0838 -0.2199 -0.0421
 8190TIP3    H146061   6.249   1.744  14.701 -0.5703 -0.8446  0.2734
 8190TIP3    H246062   6.258   1.790  14.557  1.9128 -1.8880  0.0706
 8191TIP3   OH246063   1.953   3.056  11.015 -0.3581 -0.3271 -0.5687
 8191TIP3    H146064   1.967   2.962  11.009 -0.7033 -0.5632  1.8676
 8191TIP3    H246065   2.039   3.095  10.997  0.3754 -1.2078  1.0029
 8192TIP3   OH246066   1.971   2.604  10.505  0.1591 -0.0511  0.0410
 8192TIP3    H146067   1.901   2.542  10.522 -1.8006  2.1158  0.2052
 8192TIP3    H246068   2.027   2.560  10.442 -2.1781 -1.2840 -1.2512
 8193TIP3   OH246069   1.603   4.386   4.173  0.2223  0.2542 -0.1087
 8193TIP3    H146070   1.540   4.341   4.117  2.1986  0.9570 -3.0351
 8193TIP3    H246071   1.576   4.478   4.170  1.1262  0.5003 -1.0699
 8194TIP3   OH246072   6.430   5.132   0.460 -0.6781  0.1700  1.0623
 8194TIP3    H146073   6.426   5.224   0.485  1.9301  0.7882 -0.6000
 8194TIP3    H246074   6.493   5.093   0.521 -0.0718 -0.0022  0.3316
 8195TIP3   OH246075   6.690   0.478   3.680 -0.0191 -0.0007  0.8485
 8195TIP3    H146076   6.753   0.495   3.749  2.2193 -1.1729 -0.8365
 8195TIP3    H246077   6.701   0.385   3.659 -1.6727 -0.0124 -0.0845
 8196TIP3   OH246078   2.666   4.713   3.598  0.1897 -0.6406  0.1565
 8196TIP3    H146079   2.628   4.728   3.685 -0.6456 -2.5448  0.1553
 8196TIP3    H246080   2.608   4.760   3.538 -0.4686 -1.0605  0.4486
 8197TIP3   OH246081   2.953   0.551   4.357  0.5142 -0.5757  0.4473
 8197TIP3    H146082   2.899   0.624   4.325  0.8358  0.3101  1.8831
 8197TIP3    H246083   2.906   0.518   4.433  1.7016 -0.1430  1.3899
 8198TIP3   OH246084   2.198   1.741   5.479 -0.1083 -0.0251  0.2893
 8198TIP3    H146085   2.282   1.786   5.492  0.1545 -0.5690  0.5000
 8198TIP3    H246086   2.208   1.695   5.395 -0.4844  0.5511 -0.0709
 8199TIP3   OH246087   6.329   1.847  16.885  0.4603  0.8803  0.0906
 8199TIP3    H146088   6.236   1.850  16.907  0.0275 -0.1938 -1.4829
 8199TIP3    H246089   6.357   1.939  16.888 -0.6973  1.2332  0.3710
 8200TIP3   OH246090   2.506   4.414   5.309  0.2645  0.3056 -0.7396
 8200TIP3    H146091   2.456   4.462   5.374 -2.5276 -1.5333 -1.4053
 8200TIP3    H246092   2.488   4.460   5.226  1.2179  0.7629 -0.6919
 8201TIP3   OH246093   5.559   6.140   4.408  0.4923 -0.1511  0.1878
 8201TIP3    H146094   5.642   6.170   4.370  0.3117  0.1886  0.0681
 8201TIP3    H246095   5.575   6.047   4.429  1.0372  0.0257  0.5603
 8202TIP3   OH246096   6.620   6.030   5.274 -0.0886  0.5701  0.1221
 8202TIP3    H146097   6.553   6.087   5.313  0.1153  0.6253  0.3904
 8202TIP3    H246098   6.593   5.942   5.299 -0.6215  0.5143 -0.6199
 8203TIP3   OH246099   3.984   0.237   0.214 -0.0158 -0.1170  0.2248
 8203TIP3    H146100   4.014   0.290   0.288 -0.5440 -0.6196  0.8011
 8203TIP3    H246101   3.945   0.301   0.154 -0.4462  0.1741  0.8128
 8204TIP3   OH246102   4.427   1.878  14.439 -0.0162  0.3264  0.2987
 8204TIP3    H146103   4.450   1.971  14.436  1.5715 -0.0911 -0.6189
 8204TIP3    H246104   4.418   1.859  14.532  0.4323  1.2099  0.5280
 8205TIP3   OH246105   2.126   4.708   0.301  0.0485 -0.0667  0.2694
 8205TIP3    H146106   2.070   4.764   0.353 -0.6632 -1.4333  1.0059
 8205TIP3    H246107   2.068   4.639   0.269  0.9610 -0.5526 -0.3643
 8206TIP3   OH246108   3.148   0.702   6.547  0.1408 -0.1260  0.0075
 8206TIP3    H146109   3.182   0.617   6.575  1.0501  1.0628  2.6232
 8206TIP3    H246110   3.057   0.702   6.576 -0.1117 -0.5289 -0.7644
 8207TIP3   OH246111   2.464   3.993  13.219  0.4790 -0.1537  0.1861
 8207TIP3    H146112   2.548   3.996  13.264  0.1469  0.6597  0.7589
 8207TIP3    H246113   2.424   4.078  13.236 -0.6097 -0.6596  0.2098
 8208TIP3   OH246114   2.897   5.071   2.550 -0.2056  0.2857 -0.1664
 8208TIP3    H146115   2.831   5.131   2.515 -0.9496 -0.7402 -0.5117
 8208TIP3    H246116   2.873   5.058   2.641 -0.6083 -0.2716 -0.3541
 8209TIP3   OH246117   4.499   4.763   0.731 -0.1189 -0.2726 -0.4357
 8209TIP3    H146118   4.539   4.697   0.674  0.9167 -0.5409  0.5909
 8209TIP3    H246119   4.424   4.795   0.681  1.1593 -0.0080 -2.2491
 8210TIP3   OH246120   1.972   3.555   1.983  0.5037  0.1806 -0.4852
 8210TIP3    H146121   2.029   3.559   2.059 -0.7271  1.7533  0.3967
 8210TIP3    H246122   1.982   3.641   1.941 -2.6067  1.2794  0.8030
 8211TIP3   OH246123   3.716   3.549  11.188  0.3871  0.0123  0.0675
 8211TIP3    H146124   3.792   3.493  11.172  1.9057  1.2966  2.5386
 8211TIP3    H246125   3.751   3.625  11.235 -2.0557  1.7796 -0.8392
 8212TIP3   OH246126   2.402   6.381   4.859 -0.2206 -0.4250  0.2757
 8212TIP3    H146127   2.478   6.325   4.842  0.5695  0.6622  0.1537
 8212TIP3    H246128   2.362   6.344   4.937  1.7010  0.2709  1.6218
 8213TIP3   OH246129   6.080   3.263  11.516 -0.0845  0.2213  0.4199
 8213TIP3    H146130   6.028   3.306  11.449  1.0673 -1.1409 -1.3918
 8213TIP3    H246131   6.169   3.296  11.503 -0.1118  1.0774  2.2461
 8214TIP3   OH246132   5.257   5.430   2.089 -0.2907 -0.2976  0.2671
 8214TIP3    H146133   5.190   5.390   2.034 -0.7887  0.4476  0.3184
 8214TIP3    H246134   5.329   5.367   2.090  0.2005  0.1809 -2.1729
 8215TIP3   OH246135   5.028   2.412   1.755  0.6707 -0.3942 -1.0176
 8215TIP3    H146136   5.008   2.440   1.666 -1.4250 -0.6009 -0.6205
 8215TIP3    H246137   5.064   2.490   1.797 -0.5486  0.3465 -1.3453
 8216TIP3   OH246138   0.375   5.768  14.426 -0.0074  1.0326  0.4765
 8216TIP3    H146139   0.319   5.798  14.355  0.2337 -0.3757 -0.3427
 8216TIP3    H246140   0.442   5.836  14.435  0.5038  0.7870 -1.2889
 8217TIP3   OH246141   0.539   3.166   5.888 -0.0904  0.3843  0.2954
 8217TIP3    H146142   0.603   3.184   5.956 -0.3702  0.4983  0.5319
 8217TIP3    H246143   0.454   3.175   5.932 -0.2925  1.2841 -0.2606
 8218TIP3   OH246144   1.358   4.380  14.561  0.5158 -0.0753  0.1486
 8218TIP3    H146145   1.413   4.446  14.517 -1.4829  1.1670 -0.5313
 8218TIP3    H246146   1.335   4.421  14.645 -0.8126  0.1309 -0.3196
 8219TIP3   OH246147   2.240   4.556   5.938  0.2074  0.0790  0.7112
 8219TIP3    H146148   2.192   4.546   6.019  0.5566  0.5921  0.9832
 8219TIP3    H246149   2.246   4.467   5.902 -0.6264 -0.0336  0.8453
 8220TIP3   OH246150   6.475   2.594   1.727 -1.0270  0.1434 -0.3291
 8220TIP3    H146151   6.402   2.631   1.676 -0.8238  4.1421  2.0709
 8220TIP3    H246152   6.551   2.647   1.701  0.3586 -1.8042 -0.3317
 8221TIP3   OH246153   5.548   1.424   3.444 -0.3248  0.5441 -0.3197
 8221TIP3    H146154   5.620   1.460   3.496 -0.2865 -0.0303  0.0325
 8221TIP3    H246155   5.540   1.483   3.369 -0.5321  1.5101  0.4572
 8222TIP3   OH246156   0.269   0.761  14.874 -0.2478 -0.1228  0.0610
 8222TIP3    H146157   0.271   0.734  14.782 -0.6484 -0.4346  0.1400
 8222TIP3    H246158   0.303   0.685  14.921 -0.1578 -0.0084  0.1771
 8223TIP3   OH246159   4.552   6.538  14.668 -0.3323  0.6108  0.0020
 8223TIP3    H146160   4.533   6.444  14.671 -1.2597  0.8072  0.5251
 8223TIP3    H246161   4.644   6.543  14.643 -0.1363 -0.4576  0.4682
 8224TIP3   OH246162   5.321   5.163   5.221 -0.2200  0.4770  0.0346
 8224TIP3    H146163   5.294   5.102   5.289  0.5596 -1.8729 -1.6564
 8224TIP3    H246164   5.239   5.196   5.184 -0.7130 -0.8946 -0.1435
 8225TIP3   OH246165   3.450   3.257   6.116 -0.5253 -0.3824  0.0820
 8225TIP3    H146166   3.494   3.288   6.194  0.4687 -1.2420 -0.1190
 8225TIP3    H246167   3.388   3.190   6.147  0.1618 -1.0194  0.1051
 8226TIP3   OH246168   1.370   1.701  13.188 -0.1863 -0.2686  0.2728
 8226TIP3    H146169   1.435   1.693  13.118 -1.6839  0.8443 -1.2777
 8226TIP3    H246170   1.418   1.743  13.260  0.4972  1.7122 -1.3045
 8227TIP3   OH246171   4.134   4.011   3.332 -0.0259  0.2269  0.2798
 8227TIP3    H146172   4.103   4.060   3.256  0.7804  0.2087 -0.0630
 8227TIP3    H246173   4.229   4.004   3.320  0.1114  0.2105  1.2735
 8228TIP3   OH246174   2.308   1.204  13.916  0.0600 -0.5622  0.0716
 8228TIP3    H146175   2.345   1.278  13.964 -2.2327  0.2864  0.6041
 8228TIP3    H246176   2.286   1.140  13.983  0.1067 -0.8553 -0.1897
 8229TIP3   OH246177   2.521   3.234   2.440  0.0765  0.0809  0.3902
 8229TIP3    H146178   2.525   3.158   2.498  0.2272  0.3157  0.6869
 8229TIP3    H246179   2.566   3.304   2.488  1.3126 -0.0664 -0.5398
 8230TIP3   OH246180   0.057   1.130   2.229 -0.1530 -0.3564 -1.0839
 8230TIP3    H146181  -0.022   1.115   2.177 -1.3550  0.2584  0.5212
 8230TIP3    H246182   0.110   1.189   2.176 -0.8187 -0.6878 -2.1292
 8231TIP3   OH246183   1.371   2.518   3.978 -0.0271 -0.6310  0.6075
 8231TIP3    H146184   1.285   2.494   4.012  0.0275 -1.3652  0.2369
 8231TIP3    H246185   1.355   2.594   3.922 -0.4272 -0.7577  0.5489
 8232TIP3   OH246186   0.103   1.439   5.731  0.1566 -0.4425 -0.2604
 8232TIP3    H146187   0.094   1.512   5.669 -0.4971  1.0133  1.4755
 8232TIP3    H246188   0.013   1.423   5.761  0.5150 -0.7707  0.6668
 8233TIP3   OH246189   6.026   4.252   3.620  0.3203  0.5428  0.1700
 8233TIP3    H146190   6.092   4.184   3.625  0.0553  0.0347 -2.5119
 8233TIP3    H246191   5.951   4.217   3.668 -0.0209 -1.3236 -1.6721
 8234TIP3   OH246192   0.910   2.283  15.513  0.2012  0.0848  0.2584
 8234TIP3    H146193   0.821   2.250  15.502  0.9333 -1.5408 -1.0867
 8234TIP3    H246194   0.964   2.204  15.517  1.5621  1.0504  1.3151
 8235TIP3   OH246195   2.541   5.651  13.868  0.1434  0.3115  0.4976
 8235TIP3    H146196   2.503   5.569  13.836  0.7921 -0.5338  1.8434
 8235TIP3    H246197   2.635   5.637  13.866  0.3124  1.5103 -0.4889
 8236TIP3   OH246198   5.498   2.879  11.555 -0.1012 -0.1609  0.0214
 8236TIP3    H146199   5.577   2.863  11.503 -0.4001 -2.1887  0.1586
 8236TIP3    H246200   5.531   2.917  11.637  0.7633 -1.1725  0.1573
 8237TIP3   OH246201   0.461   3.774   0.835  0.3348 -0.0288  0.0259
 8237TIP3    H146202   0.524   3.733   0.894  0.1577  2.4775  2.0434
 8237TIP3    H246203   0.385   3.715   0.837  1.5025 -1.5661 -0.1511
 8238TIP3   OH246204   5.811   5.476  12.398  0.3252  0.1002 -0.3805
 8238TIP3    H146205   5.755   5.540  12.353 -1.3185 -1.8733 -1.1843
 8238TIP3    H246206   5.828   5.408  12.333  0.6145 -1.1536  0.9870
 8239TIP3   OH246207   2.133   5.139  12.140  0.4543  0.1822 -0.5712
 8239TIP3    H146208   2.199   5.198  12.104  0.5849  0.5785  0.2918
 8239TIP3    H246209   2.085   5.192  12.204  1.6625 -1.0643  1.4443
 8240TIP3   OH246210   6.720   1.567  14.773  0.1299  0.0120  0.3620
 8240TIP3    H146211   6.690   1.548  14.684 -0.3615  2.5507 -0.0496
 8240TIP3    H246212   6.643   1.549  14.828 -0.4220  1.0409 -0.0547
 8241TIP3   OH246213   1.116   2.414  12.214 -0.0293  0.4806  0.4286
 8241TIP3    H146214   1.159   2.499  12.202  2.4395 -0.9322 -1.2941
 8241TIP3    H246215   1.148   2.382  12.298  0.6896  0.3502  0.1095
 8242TIP3   OH246216   3.100   1.182  10.766  0.3545  0.1879 -0.2274
 8242TIP3    H146217   3.161   1.151  10.699  0.2956  1.2647 -0.7921
 8242TIP3    H246218   3.123   1.275  10.777  0.5731 -0.0638  1.4705
 8243TIP3   OH246219   5.694   1.869  14.134  0.6655 -0.3760  0.1671
 8243TIP3    H146220   5.688   1.960  14.104  1.4449  0.5254  2.6591
 8243TIP3    H246221   5.725   1.821  14.057  0.0726  1.4307 -1.2348
 8244TIP3   OH246222   1.540   0.050  11.759  0.5315  0.0862  0.3939
 8244TIP3    H146223   1.497   0.054  11.673  1.3676 -0.5671 -0.0555
 8244TIP3    H246224   1.552   0.142  11.784  0.8162  0.2781 -0.4492
 8245TIP3   OH246225   1.237   3.019  16.377  0.6302 -0.0568 -0.1296
 8245TIP3    H146226   1.145   3.015  16.348  0.2295 -0.4341  1.1604
 8245TIP3    H246227   1.232   3.046  16.468  1.8584  0.6012 -0.2438
 8246TIP3   OH246228   1.468   4.568   0.479 -0.1232 -0.4573 -0.4605
 8246TIP3    H146229   1.409   4.576   0.404  1.3605  1.1863 -1.4991
 8246TIP3    H246230   1.547   4.614   0.451  0.1814  0.8150  2.4230
 8247TIP3   OH246231   4.937   1.207  13.390  0.2095  0.2027 -0.4594
 8247TIP3    H146232   5.022   1.182  13.351  0.0824  0.0831 -0.6635
 8247TIP3    H246233   4.931   1.154  13.470  1.2509  1.7133  0.6333
 8248TIP3   OH246234   3.694   4.368  15.509 -0.0557 -0.6962 -0.2718
 8248TIP3    H146235   3.722   4.453  15.544 -1.7067  0.2874 -1.2935
 8248TIP3    H246236   3.748   4.304  15.557  0.6757  0.8634  1.0527
 8249TIP3   OH246237   0.345   1.076  15.859  0.1592 -0.5689 -0.4650
 8249TIP3    H146238   0.271   1.073  15.920  1.0931  0.6628  0.7771
 8249TIP3    H246239   0.312   1.120  15.782  0.2865  2.4322  1.1384
 8250TIP3   OH246240   6.223   2.254  12.972  0.1644  0.1127 -0.1961
 8250TIP3    H146241   6.131   2.278  12.960  0.3630  0.0689 -1.8872
 8250TIP3    H246242   6.225   2.159  12.958  0.6018  0.2460 -1.0906
 8251TIP3   OH246243   0.788   1.933   5.748 -0.2738 -0.3627 -0.4062
 8251TIP3    H146244   0.730   1.960   5.819  1.3750  0.2147  0.7261
 8251TIP3    H246245   0.838   1.860   5.783  0.7207  0.0841 -0.8759
 8252TIP3   OH246246   5.017   5.203   4.549 -0.0520 -0.3184  0.7463
 8252TIP3    H146247   5.055   5.133   4.602 -1.0861  0.3095  2.3471
 8252TIP3    H246248   5.091   5.258   4.525  0.6281 -1.4030  0.3037
 8253TIP3   OH246249   5.057   2.889   0.483  0.4366 -0.4123 -0.0480
 8253TIP3    H146250   5.067   2.849   0.569  0.0184  0.5591  0.4599
 8253TIP3    H246251   5.072   2.983   0.498  1.8156 -0.4123 -1.2854
 8254TIP3   OH246252   3.275   5.716  11.936  0.5263 -0.3616  0.2173
 8254TIP3    H146253   3.228   5.651  11.988  0.5255 -0.9873 -0.5544
 8254TIP3    H246254   3.210   5.748  11.873  0.3044  0.9680  1.1033
 8255TIP3   OH246255   5.775   1.392   5.291 -0.2171 -0.5241 -0.0965
 8255TIP3    H146256   5.786   1.302   5.322 -2.3540 -0.2560  1.5714
 8255TIP3    H246257   5.687   1.416   5.319 -0.9263  0.9767 -3.3672
 8256TIP3   OH246258   2.761   1.425  12.485 -0.0216 -0.3128  0.2634
 8256TIP3    H146259   2.788   1.358  12.547 -0.9031 -0.6972  0.2431
 8256TIP3    H246260   2.841   1.449  12.439  0.2134 -1.7470 -0.1045
 8257TIP3   OH246261   2.131   5.935   5.687  0.0023 -0.2117  0.9353
 8257TIP3    H146262   2.182   5.945   5.767 -0.0610  1.6253  0.7669
 8257TIP3    H246263   2.040   5.932   5.717  0.0139 -0.1053  0.9834
 8258TIP3   OH246264   1.137   0.932   5.694  0.3785 -0.2228  0.4764
 8258TIP3    H146265   1.102   0.976   5.771  0.0250 -1.6312  1.1408
 8258TIP3    H246266   1.160   1.003   5.633 -1.7240  0.8002  0.8463
 8259TIP3   OH246267   1.509   0.571  11.336 -0.6438 -0.2240  0.0504
 8259TIP3    H146268   1.575   0.568  11.406  1.7801  0.2031 -2.1044
 8259TIP3    H246269   1.535   0.501  11.276 -1.8479  0.2937 -1.0963
 8260TIP3   OH246270   2.452   4.511   5.063  0.1832  0.4212 -0.3289
 8260TIP3    H146271   2.504   4.589   5.045 -0.8018  1.2359  0.3078
 8260TIP3    H246272   2.369   4.527   5.020 -0.1145 -0.1646  0.0179
 8261TIP3   OH246273   4.055   1.068   3.333  0.2745 -0.0815 -0.4833
 8261TIP3    H146274   4.103   0.986   3.320  2.3305  1.2966 -1.8021
 8261TIP3    H246275   4.093   1.105   3.413  0.1498  0.1473 -0.5301
 8262TIP3   OH246276   6.363   5.473  16.303  0.1653  0.3003 -0.5641
 8262TIP3    H146277   6.283   5.439  16.263 -0.8615  1.2300  0.6168
 8262TIP3    H246278   6.331   5.533  16.371  1.8624  0.1186  0.4193
 8263TIP3   OH246279   1.880   5.572   0.269 -0.1303 -0.1394  0.5220
 8263TIP3    H146280   1.815   5.607   0.209  1.2072 -0.2724 -1.0331
 8263TIP3    H246281   1.961   5.618   0.247  0.7392 -1.3025  1.1805
 8264TIP3   OH246282   5.365   4.700  13.060  0.3205  0.5981  0.2846
 8264TIP3    H146283   5.275   4.731  13.069 -0.3315 -0.5969 -1.6124
 8264TIP3    H246284   5.412   4.775  13.023 -0.3368  0.6554 -0.4728
 8265TIP3   OH246285   0.552   2.645   4.138 -0.7465  0.2399  0.1982
 8265TIP3    H146286   0.506   2.603   4.065  1.4236 -0.1071 -1.0170
 8265TIP3    H246287   0.640   2.607   4.136  0.2484  2.4048  1.1391
 8266TIP3   OH246288   5.057   5.149  12.472 -0.2251 -0.6162  0.1144
 8266TIP3    H146289   5.122   5.146  12.402 -0.2057 -0.1959  0.1126
 8266TIP3    H246290   5.085   5.222  12.527 -1.4263  0.3962 -0.6051
 8267TIP3   OH246291   2.565   4.838   0.395  0.6715 -0.1606 -0.3213
 8267TIP3    H146292   2.510   4.767   0.364  0.3993  0.0330 -0.2866
 8267TIP3    H246293   2.610   4.870   0.316 -0.0891  0.3932 -0.5369
 8268TIP3   OH246294   4.091   4.600  12.354  0.1255 -0.0764 -0.2320
 8268TIP3    H146295   4.147   4.623  12.281  2.0020  1.8268  1.7519
 8268TIP3    H246296   4.038   4.678  12.370  0.5386 -0.0663  1.1461
 8269TIP3   OH246297   5.092   0.134  14.863  0.0211  0.1329 -0.4563
 8269TIP3    H146298   5.084   0.127  14.767  0.1487  1.4657 -0.5669
 8269TIP3    H246299   5.011   0.176  14.891  0.0131 -0.1967  0.0312
 8270TIP3   OH246300   0.131   2.625   3.348 -0.5471 -0.1129 -0.2151
 8270TIP3    H146301   0.130   2.713   3.385  0.7035 -0.8874  1.7001
 8270TIP3    H246302   0.199   2.628   3.281 -0.5527  0.3887 -0.1983
 8271TIP3   OH246303   5.791   5.667   3.120  0.2926  0.4690 -0.4785
 8271TIP3    H146304   5.862   5.718   3.159 -1.2954  1.1700  1.6154
 8271TIP3    H246305   5.786   5.588   3.174 -0.4245  0.3435 -0.7240
 8272TIP3   OH246306   2.187   3.859  11.450 -0.1394 -0.5991 -0.0336
 8272TIP3    H146307   2.116   3.833  11.392  0.4153 -1.7417 -0.2071
 8272TIP3    H246308   2.266   3.822  11.411  0.4533 -0.0146  0.5869
 8273TIP3   OH246309   5.636   1.150   0.064  0.0189 -0.4506 -0.6650
 8273TIP3    H146310   5.660   1.106  -0.018  1.8060  1.7572 -1.3660
 8273TIP3    H246311   5.686   1.104   0.131 -0.0513 -1.0897 -1.0406
 8274TIP3   OH246312   0.246   6.786  15.909 -0.7903 -0.2196  0.8365
 8274TIP3    H146313   0.168   6.833  15.877 -0.0035 -1.3525 -3.0103
 8274TIP3    H246314   0.319   6.827  15.863  0.7586 -0.3551  3.0796
 8275TIP3   OH246315   5.580   2.955  17.183 -0.1969 -0.0412 -0.1636
 8275TIP3    H146316   5.511   2.989  17.125 -0.3263  1.6577  0.9461
 8275TIP3    H246317   5.616   3.033  17.225  0.8164 -1.1326  1.0346
 8276TIP3   OH246318   2.222   6.251   3.583  0.0333  0.0750 -0.3159
 8276TIP3    H146319   2.134   6.216   3.569 -0.1838  0.6054 -0.2882
 8276TIP3    H246320   2.280   6.184   3.547 -0.4308  0.3204 -1.5280
 8277TIP3   OH246321   3.832   2.178   2.411  0.1056  0.6876 -0.3232
 8277TIP3    H146322   3.920   2.186   2.449 -0.5035 -0.2968  1.3887
 8277TIP3    H246323   3.822   2.084   2.392 -1.0124  0.5664  0.7109
 8278TIP3   OH246324   0.130   0.672  17.145  0.4478  0.3139 -0.3791
 8278TIP3    H146325   0.189   0.607  17.183  0.8190  1.3685  0.9071
 8278TIP3    H246326   0.088   0.627  17.072  1.5048 -1.0187 -0.1898
 8279TIP3   OH246327   2.140   1.669  16.686  0.2041 -0.1421  0.5093
 8279TIP3    H146328   2.108   1.612  16.755  0.9521  0.4880  1.3997
 8279TIP3    H246329   2.224   1.632  16.661  0.2520  0.0222  0.4223
 8280TIP3   OH246330   4.588   0.281   5.786 -0.2265 -0.5868  0.1033
 8280TIP3    H146331   4.683   0.282   5.789 -0.2345  1.0651 -0.0934
 8280TIP3    H246332   4.564   0.197   5.827  1.2834 -0.8164  0.5422
 8281TIP3   OH246333   3.946   5.026  13.962 -0.4765 -0.0057 -0.1655
 8281TIP3    H146334   3.990   5.038  14.046  0.6957 -1.8074 -0.4932
 8281TIP3    H246335   3.945   4.932  13.949  0.9783  0.3180 -3.0139
 8282TIP3   OH246336   6.003   4.576  16.021  0.4778 -0.0044 -0.1779
 8282TIP3    H146337   5.945   4.645  15.988  0.0733 -0.3911 -0.2765
 8282TIP3    H246338   6.032   4.609  16.107 -0.1709  0.0289  0.0310
 8283TIP3   OH246339   6.161   4.312  16.513  0.4576  0.5441  0.1825
 8283TIP3    H146340   6.103   4.237  16.501 -0.8245  1.5002  0.4391
 8283TIP3    H246341   6.211   4.291  16.592  0.6749 -0.3889 -0.1844
 8284TIP3   OH246342   3.584   6.696  12.926  0.4326 -0.2784 -0.0115
 8284TIP3    H146343   3.554   6.780  12.891  1.0606  0.0520  0.2418
 8284TIP3    H246344   3.516   6.634  12.899 -1.9831  0.9548  2.9957
 8285TIP3   OH246345   0.720   0.922   3.617 -0.2061 -0.1689  0.1376
 8285TIP3    H146346   0.677   0.869   3.551  0.8053 -0.2189 -0.4910
 8285TIP3    H246347   0.649   0.960   3.668 -0.9547 -1.7146  0.2734
 8286TIP3   OH246348   6.179   0.126  11.266 -0.5475 -0.1829  0.0475
 8286TIP3    H146349   6.211   0.037  11.250  0.7171  0.3889 -0.6179
 8286TIP3    H246350   6.189   0.138  11.361 -1.5704 -1.0624  0.2814
 8287TIP3   OH246351   3.369   0.968   3.625 -0.0000  0.3179  0.2198
 8287TIP3    H146352   3.452   0.921   3.615 -0.3439 -0.2072 -0.2233
 8287TIP3    H246353   3.329   0.964   3.538 -0.2165  1.0912  0.2777
 8288TIP3   OH246354   0.468   4.160   1.482 -0.4008 -0.0407 -0.0121
 8288TIP3    H146355   0.545   4.104   1.492  0.9404  1.6634 -0.5285
 8288TIP3    H246356   0.428   4.161   1.569 -0.6684 -2.0697 -0.0750
 8289TIP3   OH246357   2.012   6.144   6.094 -0.2820  0.0546 -0.7140
 8289TIP3    H146358   1.924   6.173   6.070  0.2220  1.6520 -0.6984
 8289TIP3    H246359   2.066   6.161   6.017  0.4302  1.0191 -0.0137
 8290TIP3   OH246360   4.373   6.738   4.485 -1.0341 -0.1332  0.0123
 8290TIP3    H146361   4.439   6.698   4.429  1.7222  0.9903  2.3486
 8290TIP3    H246362   4.316   6.665   4.511  0.7684 -1.5984 -0.0324
 8291TIP3   OH246363   0.378   2.656  11.385  0.2854 -0.3453 -0.0170
 8291TIP3    H146364   0.405   2.705  11.462  0.0334 -1.9865  1.1345
 8291TIP3    H246365   0.302   2.705  11.352  1.3867  1.2797 -0.1992
 8292TIP3   OH246366   2.939   1.382  12.888 -0.1016 -0.0242  0.3350
 8292TIP3    H146367   2.929   1.342  12.974  1.6919  0.1442  0.6414
 8292TIP3    H246368   2.853   1.418  12.868 -1.4006 -2.7675  0.6730
 8293TIP3   OH246369   0.963   2.248   0.928  0.0474  0.2157  0.4673
 8293TIP3    H146370   1.012   2.170   0.953 -1.0319 -0.7939 -0.4864
 8293TIP3    H246371   0.968   2.251   0.832 -0.4843  0.9273  0.4532
 8294TIP3   OH246372   2.973   2.938  16.858 -0.2886 -0.3730  0.0816
 8294TIP3    H146373   3.044   2.920  16.796 -0.9818 -0.6506 -0.6264
 8294TIP3    H246374   2.928   2.855  16.868  1.0772 -0.8717  2.5810
 8295TIP3   OH246375   1.946   3.006  10.611 -0.6975 -0.0421 -0.6169
 8295TIP3    H146376   2.037   2.977  10.618 -0.0689  1.1648 -3.3200
 8295TIP3    H246377   1.903   2.966  10.687  1.7163 -1.9696 -0.1855
 8296TIP3   OH246378   6.297   2.526  15.841 -0.0390  0.1766 -0.4045
 8296TIP3    H146379   6.223   2.478  15.802  0.9168 -2.1413  0.5128
 8296TIP3    H246380   6.353   2.547  15.766  1.2688 -3.3319 -0.5271
 8297TIP3   OH246381   2.959   5.524   0.171 -0.7264  0.2104  0.3658
 8297TIP3    H146382   2.863   5.528   0.169 -0.6553  3.1166  0.0891
 8297TIP3    H246383   2.981   5.528   0.264 -0.8581  0.5304  0.3841
 8298TIP3   OH246384   0.273   3.915  15.407  0.0853 -0.1595  0.1937
 8298TIP3    H146385   0.364   3.888  15.423  0.0589 -0.1840  0.3045
 8298TIP3    H246386   0.273   4.010  15.422 -0.0694 -0.2749  0.9472
 8299TIP3   OH246387   5.335   4.259   1.397 -0.2588  0.7396  0.0254
 8299TIP3    H146388   5.248   4.284   1.366  0.2868  1.8448 -0.6516
 8299TIP3    H246389   5.380   4.227   1.319 -0.1804 -0.1768  0.4447
 8300TIP3   OH246390   2.206   5.637  12.047  0.0405  0.1573  0.5789
 8300TIP3    H146391   2.270   5.580  12.006  0.4030 -0.5973  2.1859
 8300TIP3    H246392   2.196   5.710  11.985 -0.5857 -1.7140 -1.5805
 8301TIP3   OH246393   3.113   3.308  14.007  0.1066 -0.3918  0.2742
 8301TIP3    H146394   3.139   3.361  13.933 -0.5391 -1.6318 -0.8668
 8301TIP3    H246395   3.057   3.240  13.970 -1.0519 -0.4526  2.0272
 8302TIP3   OH246396   1.831   6.381  15.654 -0.8109 -0.1018 -0.8048
 8302TIP3    H146397   1.817   6.304  15.600 -1.0842 -0.8443  0.3122
 8302TIP3    H246398   1.926   6.383  15.670 -0.8302 -0.3048 -0.6743
 8303TIP3   OH246399   5.586   3.098   3.437  0.0815  0.0309 -0.3392
 8303TIP3    H146400   5.501   3.058   3.418  0.4697 -1.1896  0.4124
 8303TIP3    H246401   5.566   3.176   3.489 -0.5871 -0.1312 -0.3542
 8304TIP3   OH246402   1.976   0.220   3.291  0.4238 -0.3940  0.2141
 8304TIP3    H146403   1.910   0.278   3.329  0.2004 -0.7863  0.4192
 8304TIP3    H246404   2.060   0.261   3.314  0.2417  0.6543 -0.9175
 8305TIP3   OH246405   2.183   2.082   1.647 -0.1968  0.0063  0.2457
 8305TIP3    H146406   2.250   2.052   1.585 -0.4713  1.2453 -0.6777
 8305TIP3    H246407   2.106   2.029   1.627  0.0687 -0.4049  0.3136
 8306TIP3   OH246408   1.065   6.414   3.170 -0.1822 -0.7297  0.3026
 8306TIP3    H146409   1.148   6.454   3.195  0.0499 -0.5254 -0.7423
 8306TIP3    H246410   1.000   6.483   3.182  0.1608 -0.1247 -1.1270
 8307TIP3   OH246411   0.203   3.589  16.554  0.0549 -0.6459 -0.2310
 8307TIP3    H146412   0.145   3.558  16.624  2.3312 -0.4993  1.7973
 8307TIP3    H246413   0.225   3.511  16.504 -1.7248 -0.7268 -0.8991
 8308TIP3   OH246414   6.167   5.082  13.998 -0.6700 -0.1498 -0.1435
 8308TIP3    H146415   6.128   5.163  14.031  1.7647  0.9038  0.2654
 8308TIP3    H246416   6.204   5.040  14.075  1.2041  0.1395 -0.8569
 8309TIP3   OH246417   4.806   5.131   5.626  0.6559 -0.5323  0.0594
 8309TIP3    H146418   4.834   5.206   5.678  1.8668 -1.8738  1.4029
 8309TIP3    H246419   4.883   5.074   5.622 -0.8205 -2.6487  0.8173
 8310TIP3   OH246420   0.599   3.958   5.421 -0.3220  0.3459 -0.1397
 8310TIP3    H146421   0.526   3.912   5.379 -1.6191  1.5962  0.6884
 8310TIP3    H246422   0.570   4.049   5.426  0.8359  0.6617  1.1873
 8311TIP3   OH246423   4.379   0.510   6.158  0.1721  0.1743 -0.3333
 8311TIP3    H146424   4.443   0.537   6.224  1.4050  2.2388 -2.2943
 8311TIP3    H246425   4.432   0.483   6.083 -1.2076 -2.2225 -0.5029
 8312TIP3   OH246426   1.465   4.104  15.821 -1.0877 -0.6004  0.2586
 8312TIP3    H146427   1.468   4.174  15.757  1.2623 -2.4891 -1.7887
 8312TIP3    H246428   1.525   4.132  15.890  0.2148 -0.8060 -0.7817
 8313TIP3   OH246429   3.383   5.500  11.416 -0.1828 -0.1513 -0.3010
 8313TIP3    H146430   3.362   5.493  11.323 -0.2351 -0.0053 -0.3006
 8313TIP3    H246431   3.451   5.567  11.421 -0.5244  0.1961 -0.1902
 8314TIP3   OH246432   2.313   5.001  14.583  0.7469  0.2616  0.2219
 8314TIP3    H146433   2.296   4.941  14.656  2.6801  0.3559  0.7840
 8314TIP3    H246434   2.228   5.041  14.565  0.0974 -0.2479  2.0003
 8315TIP3   OH246435   0.300   2.924  11.118 -0.2177  0.3321 -0.4117
 8315TIP3    H146436   0.249   2.954  11.043 -1.8676  0.0923  0.5831
 8315TIP3    H246437   0.244   2.858  11.160  1.0573 -0.1758  0.5274
 8316TIP3   OH246438   0.747   4.664  17.019  0.0237  0.4506  0.2959
 8316TIP3    H146439   0.752   4.730  17.088  1.6848 -0.7931  1.3981
 8316TIP3    H246440   0.712   4.586  17.063  1.5420 -0.4971 -0.1315
 8317TIP3   OH246441   6.017   3.543  14.148 -0.2193  0.0325 -0.0990
 8317TIP3    H146442   5.993   3.476  14.213  0.0936 -1.7109 -1.7470
 8317TIP3    H246443   6.112   3.553  14.158 -0.3042  0.4466  0.3321
 8318TIP3   OH246444   6.657   3.016  11.380 -0.0743 -0.4893 -0.0620
 8318TIP3    H146445   6.743   3.027  11.422  1.1501 -1.5984 -2.1474
 8318TIP3    H246446   6.624   2.934  11.417  1.3297 -1.8530 -1.7146
 8319TIP3   OH246447   0.436   1.655   5.411 -0.1230 -0.1284  0.6997
 8319TIP3    H146448   0.435   1.688   5.322 -0.0300 -0.8220  0.4404
 8319TIP3    H246449   0.354   1.687   5.450 -0.7479 -0.8638 -0.0097
 8320TIP3   OH246450   2.342   6.481   0.628  0.2413 -0.2678  0.2876
 8320TIP3    H146451   2.405   6.538   0.673 -2.1941  1.7561  1.2074
 8320TIP3    H246452   2.295   6.539   0.569 -1.0448 -1.6915 -0.1162
 8321TIP3   OH246453   0.221   0.704   4.193 -0.2606  0.9368 -0.5505
 8321TIP3    H146454   0.279   0.775   4.223  0.2459 -0.2008  1.2303
 8321TIP3    H246455   0.270   0.662   4.123  0.4910  0.8576  0.0124
 8322TIP3   OH246456   4.140   5.681  15.475  0.1993 -0.1012 -0.0613
 8322TIP3    H146457   4.086   5.627  15.532 -1.1215  2.1843  0.9428
 8322TIP3    H246458   4.110   5.771  15.491  2.1210  0.9272 -1.8602
 8323TIP3   OH246459   4.257   3.692   1.693  0.1033 -0.8185 -0.1309
 8323TIP3    H146460   4.310   3.665   1.617 -0.0361 -0.2700 -0.4237
 8323TIP3    H246461   4.321   3.722   1.757  0.0517  1.7600 -1.2396
 8324TIP3   OH246462   2.299   2.232  14.221  0.1729 -0.3421 -0.2401
 8324TIP3    H146463   2.336   2.313  14.187 -0.5557 -0.8813 -2.3842
 8324TIP3    H246464   2.321   2.233  14.315  0.0564  2.3779 -0.2028
 8325TIP3   OH246465   2.423   2.382   3.132 -0.7039 -0.2520 -0.1739
 8325TIP3    H146466   2.369   2.320   3.083  0.5131 -0.4694 -1.2804
 8325TIP3    H246467   2.371   2.461   3.138 -1.1809 -0.4950 -1.1343
 8326TIP3   OH246468   6.237   2.253  14.441 -0.2549 -0.4257 -0.4180
 8326TIP3    H146469   6.163   2.194  14.428 -0.1030 -0.7289  0.0826
 8326TIP3    H246470   6.307   2.197  14.475 -0.3093  0.1556  0.6639
 8327TIP3   OH246471   6.176   1.698   4.332 -0.0682  0.8563 -0.2031
 8327TIP3    H146472   6.253   1.718   4.386 -1.4368  2.6618  1.1441
 8327TIP3    H246473   6.193   1.610   4.299  0.4651 -0.6583  3.8125
 8328TIP3   OH246474   5.126   0.155  11.898 -0.4245 -0.2347 -0.0799
 8328TIP3    H146475   5.188   0.108  11.842  1.0800 -0.4079  1.6930
 8328TIP3    H246476   5.050   0.170  11.842  0.9697 -0.5632 -2.1133
 8329TIP3   OH246477   2.510   6.250   4.404 -0.4409  0.4088 -0.0748
 8329TIP3    H146478   2.451   6.322   4.382 -0.6721  0.2895  0.1470
 8329TIP3    H246479   2.455   6.188   4.452 -1.0774 -1.4736 -3.0810
 8330TIP3   OH246480   0.884   5.079  15.510 -0.6587  0.9066  0.2279
 8330TIP3    H146481   0.920   5.022  15.578 -0.5894 -0.4578 -0.9255
 8330TIP3    H246482   0.842   5.151  15.558 -0.0013  0.3419  1.6784
 8331TIP3   OH246483   3.650   5.330   3.513  0.0068 -0.0866 -0.1103
 8331TIP3    H146484   3.660   5.236   3.497 -2.6096 -0.5713  0.8860
 8331TIP3    H246485   3.573   5.355   3.462  1.1104  1.7257 -0.9857
 8332TIP3   OH246486   3.125   2.814   3.106 -0.0445  0.1482  0.2411
 8332TIP3    H146487   3.140   2.857   3.022 -0.6852  0.4411  0.2649
 8332TIP3    H246488   3.129   2.721   3.087 -0.1213  0.2138 -0.1069
 8333TIP3   OH246489   4.101   2.123  15.097 -0.1398  0.4858 -0.5645
 8333TIP3    H146490   4.166   2.183  15.060  0.2127  0.5833  0.1945
 8333TIP3    H246491   4.139   2.097  15.182 -1.1368  0.6250 -0.0698
 8334TIP3   OH246492   6.525   5.452  11.552  1.2815  0.3366 -0.3108
 8334TIP3    H146493   6.430   5.449  11.563  1.0603  2.0317 -1.5719
 8334TIP3    H246494   6.556   5.370  11.591 -0.7060 -0.3410 -0.0842
 8335TIP3   OH246495   2.042   0.279   0.993  0.3052  0.3462  0.4641
 8335TIP3    H146496   2.049   0.201   1.048  0.8351 -0.3211 -0.5350
 8335TIP3    H246497   2.083   0.253   0.911  0.8019  1.8012  0.2504
 8336TIP3   OH246498   6.684   4.629  14.971 -0.2639  0.4492  0.2878
 8336TIP3    H146499   6.697   4.660  14.882 -1.1323 -0.4935 -0.1718
 8336TIP3    H246500   6.608   4.572  14.966  0.2293 -0.3355  1.4588
 8337TIP3   OH246501   6.336   3.052  11.442 -0.3897 -0.3653 -0.3701
 8337TIP3    H146502   6.387   2.999  11.503 -0.8994  0.4838  0.8141
 8337TIP3    H246503   6.250   3.012  11.439 -0.5314 -0.0821 -0.1030
 8338TIP3   OH246504   3.345   5.663  16.903  0.0479  0.2156 -0.0957
 8338TIP3    H146505   3.429   5.628  16.935  0.9148  1.1555 -1.2804
 8338TIP3    H246506   3.330   5.741  16.957  0.2778  0.4124 -0.3120
 8339TIP3   OH246507   6.564   1.964  17.184 -0.3925 -0.1316  0.3609
 8339TIP3    H146508   6.602   2.051  17.197 -2.2867  1.1108 -2.1434
 8339TIP3    H246509   6.471   1.975  17.206 -0.9125 -1.1834 -1.2319
 8340TIP3   OH246510   6.655   3.903   1.459 -0.0625  0.2063  0.1309
 8340TIP3    H146511   6.729   3.885   1.400  0.5325  3.7602 -0.3228
 8340TIP3    H246512   6.692   3.890   1.547  0.8307  0.8694 -0.1278
 8341TIP3   OH246513   2.294   5.100  13.438  0.6404 -0.0146  0.3948
 8341TIP3    H146514   2.286   5.183  13.390  0.0319 -1.3171 -1.7951
 8341TIP3    H246515   2.384   5.072  13.421  0.4601 -0.4173  0.0962
 8342TIP3   OH246516   1.026   1.404  15.928  0.4230 -0.1666  0.6783
 8342TIP3    H146517   1.019   1.318  15.886 -0.0668  0.5047 -0.6229
 8342TIP3    H246518   1.067   1.460  15.863  3.4180 -0.0858  2.5258
 8343TIP3   OH246519   5.061   3.196   2.090 -0.4271  0.4956  0.4729
 8343TIP3    H146520   5.091   3.264   2.029  1.3001  0.7899  1.5906
 8343TIP3    H246521   5.084   3.231   2.176  0.9527 -1.7225  1.0489
 8344TIP3   OH246522   5.857   6.703   4.129  0.0196  0.0645 -0.2693
 8344TIP3    H146523   5.871   6.684   4.036  0.5170  0.6015 -0.3048
 8344TIP3    H246524   5.903   6.634   4.175  0.5729  0.3295 -0.4165
 8345TIP3   OH246525   0.456   5.057  15.911  0.0041 -0.0856  0.3403
 8345TIP3    H146526   0.500   4.997  15.972 -2.4128 -0.7298  1.4889
 8345TIP3    H246527   0.368   5.022  15.902 -0.4309  1.4488 -1.5810
 8346TIP3   OH246528   3.453   2.073  10.943 -0.2918 -0.0012 -0.1622
 8346TIP3    H146529   3.400   2.104  10.869  2.4844  1.0461 -1.8070
 8346TIP3    H246530   3.505   2.149  10.968  2.2766 -1.6603 -0.3147
 8347TIP3   OH246531   6.698   4.031   2.602  0.0979 -0.5776  0.3444
 8347TIP3    H146532   6.679   4.120   2.631 -0.9384 -0.5358 -0.4202
 8347TIP3    H246533   6.612   3.994   2.582  0.7608 -0.5282 -2.8652
 8348TIP3   OH246534   2.414   4.084  13.587 -0.3927 -0.0382  0.7003
 8348TIP3    H146535   2.441   4.172  13.561  0.2229  0.3104  2.5135
 8348TIP3    H246536   2.351   4.058  13.519  1.2381  0.8215 -1.1813
 8349TIP3   OH246537   4.812   3.359   2.522  0.0571 -0.1037  0.2432
 8349TIP3    H146538   4.801   3.450   2.492 -1.8115 -1.1091 -2.3343
 8349TIP3    H246539   4.732   3.340   2.571  0.4744 -0.3356  0.8326
 8350TIP3   OH246540   3.246   3.967  16.851  0.2227  0.1192  0.3317
 8350TIP3    H146541   3.156   3.951  16.823 -0.2174  0.9865  1.2238
 8350TIP3    H246542   3.238   4.029  16.924  1.5144 -0.1103  0.6788
 8351TIP3   OH246543   3.711   4.741  11.645  0.5423 -0.3744 -0.2398
 8351TIP3    H146544   3.794   4.693  11.645  0.5083 -0.4302  0.8785
 8351TIP3    H246545   3.670   4.719  11.728 -1.6106 -2.1118 -1.6860
 8352TIP3   OH246546   3.654   5.243  12.309  0.3757 -0.0223  0.1522
 8352TIP3    H146547   3.591   5.171  12.301  0.8391 -0.3264 -0.9085
 8352TIP3    H246548   3.607   5.311  12.358  0.0379 -1.1586  1.4502
 8353TIP3   OH246549   1.028   1.550   5.052  0.5998 -0.4378  0.8997
 8353TIP3    H146550   0.986   1.505   4.978 -0.8863 -0.7626  1.9306
 8353TIP3    H246551   1.012   1.493   5.127  0.0919  1.0350  1.9262
 8354TIP3   OH246552   5.619   1.746   0.789  0.5603  0.2266 -0.0876
 8354TIP3    H146553   5.592   1.688   0.718 -0.4930  1.8215 -1.0286
 8354TIP3    H246554   5.642   1.828   0.745 -0.2001  1.2732  1.4039
 8355TIP3   OH246555   2.075   4.248   4.752 -0.4194  0.1706  0.6961
 8355TIP3    H146556   2.005   4.183   4.747  1.1590 -1.3973 -2.9080
 8355TIP3    H246557   2.058   4.307   4.679  1.6564  0.1173  0.1438
 8356TIP3   OH246558   2.321   0.048  11.946  0.1305 -0.2397 -0.5281
 8356TIP3    H146559   2.404   0.074  11.907  0.4115  1.6908  1.2754
 8356TIP3    H246560   2.341   0.033  12.038 -1.2179 -1.2302 -0.3769
 8357TIP3   OH246561   4.506   0.858  13.889 -0.1996  0.4572 -0.4218
 8357TIP3    H146562   4.530   0.769  13.915 -0.8948  0.4991  0.3791
 8357TIP3    H246563   4.413   0.865  13.910  0.5946  2.4929  2.8547
 8358TIP3   OH246564   5.336   4.361  16.398  0.2696 -0.1938  0.4268
 8358TIP3    H146565   5.325   4.455  16.411  2.4571  0.2214 -0.5536
 8358TIP3    H246566   5.256   4.333  16.354 -0.4482  1.1659  0.8324
 8359TIP3   OH246567   0.638   4.614   0.026 -0.0339 -0.7524  0.2629
 8359TIP3    H146568   0.589   4.562  -0.038  0.8701  0.4595 -1.4563
 8359TIP3    H246569   0.711   4.557   0.051 -1.3577 -1.9079  1.5518
 8360TIP3   OH246570   0.423   5.405   5.242 -0.5644 -0.4325 -0.1623
 8360TIP3    H146571   0.451   5.369   5.158 -0.7668 -1.9093  0.3956
 8360TIP3    H246572   0.486   5.371   5.305 -0.3997  0.6895  0.2821
 8361TIP3   OH246573   5.787   6.470   4.815  0.1916  0.0407 -0.0486
 8361TIP3    H146574   5.730   6.532   4.770  0.3159 -0.5027 -0.9896
 8361TIP3    H246575   5.874   6.508   4.809  0.1284  0.2216  0.1922
 8362TIP3   OH246576   4.267   2.063  17.162 -0.2486  0.2832  0.4725
 8362TIP3    H146577   4.252   2.112  17.081 -0.1705 -1.1596 -0.4287
 8362TIP3    H246578   4.349   2.098  17.196 -0.4286  1.0961  0.0715
 8363TIP3   OH246579   5.892   0.858   2.075  0.9412  0.2814  0.1640
 8363TIP3    H146580   5.983   0.871   2.104  1.2011 -0.6846 -0.1958
 8363TIP3    H246581   5.894   0.774   2.029 -0.1135  0.3283  0.0362
 8364TIP3   OH246582   6.438   0.038   0.697  0.3348 -0.0344  0.3475
 8364TIP3    H146583   6.419   0.053   0.605 -3.3409 -0.1829  1.0187
 8364TIP3    H246584   6.434   0.125   0.737 -0.9831 -0.3215  0.8506
 8365TIP3   OH246585   3.782   4.917   0.521  0.1921  0.2804 -0.6650
 8365TIP3    H146586   3.808   4.911   0.429 -1.2141 -1.4618 -0.9729
 8365TIP3    H246587   3.705   4.861   0.528 -1.2213  2.3682  1.0453
 8366TIP3   OH246588   6.081   3.207  16.668 -0.0777 -0.5409  0.3712
 8366TIP3    H146589   6.125   3.171  16.746 -1.0201  1.9594  2.1055
 8366TIP3    H246590   6.142   3.270  16.633  0.1942 -1.4121 -0.7428
 8367TIP3   OH246591   1.207   2.516  15.424  0.4917  0.2178 -0.0426
 8367TIP3    H146592   1.124   2.536  15.468  0.5747  0.3299  0.0606
 8367TIP3    H246593   1.206   2.420  15.413  0.4680  0.1919  0.1924
 8368TIP3   OH246594   6.541   1.601   3.104 -0.5032  0.5274  0.3521
 8368TIP3    H146595   6.542   1.505   3.105  0.0082  0.5292  0.4323
 8368TIP3    H246596   6.451   1.625   3.125 -1.1212  0.0440 -1.6098
 8369TIP3   OH246597   4.456   5.542  14.520  0.2506 -0.0177 -0.1993
 8369TIP3    H146598   4.544   5.540  14.558  0.3294  0.5453 -0.3480
 8369TIP3    H246599   4.397   5.537  14.595  0.4088  0.4411 -0.0390
 8370TIP3   OH246600   3.309   3.684   1.003 -0.2920  0.0021  0.1397
 8370TIP3    H146601   3.241   3.700   1.069  1.7633 -0.1881  2.3982
 8370TIP3    H246602   3.375   3.632   1.050  0.1176 -2.2496 -2.7706
 8371TIP3   OH246603   3.571   4.995  12.384 -0.5084  0.1595 -0.3516
 8371TIP3    H146604   3.607   4.915  12.345  0.4037 -0.1555  1.0625
 8371TIP3    H246605   3.477   4.979  12.391 -0.3146 -0.8644  0.0399
 8372TIP3   OH246606   6.208   4.177   6.268 -0.0008  0.6132 -0.1057
 8372TIP3    H146607   6.205   4.205   6.359  1.2946 -1.3724  0.5774
 8372TIP3    H246608   6.136   4.225   6.226 -0.4786  1.7044  1.8959
 8373TIP3   OH246609   4.381   1.575  15.978  0.1868  0.3299  0.0988
 8373TIP3    H146610   4.460   1.536  15.940 -1.6262 -0.5131 -2.9259
 8373TIP3    H246611   4.324   1.591  15.904 -2.8728  0.1254  2.3153
 8374TIP3   OH246612   2.239   4.261  14.804  0.6808  0.5635  0.0353
 8374TIP3    H146613   2.143   4.265  14.796  0.4114 -1.1317  1.8753
 8374TIP3    H246614   2.260   4.325  14.872  0.7146  0.1289  0.4408
 8375TIP3   OH246615   3.688   2.085   1.689 -0.1194  0.5313  0.5369
 8375TIP3    H146616   3.607   2.135   1.697  0.6250  1.9815 -0.6475
 8375TIP3    H246617   3.660   1.993   1.689 -1.7287  1.0085  0.4351
 8376TIP3   OH246618   3.608   1.378  11.387 -0.0681  0.0374 -0.8251
 8376TIP3    H146619   3.659   1.433  11.446 -0.7180 -1.7027  1.4132
 8376TIP3    H246620   3.544   1.438  11.348  0.0566  1.1086  0.5800
 8377TIP3   OH246621   3.522   1.839   3.696 -0.3984 -0.5909 -0.3898
 8377TIP3    H146622   3.608   1.878   3.712 -1.2282  1.6212 -1.1687
 8377TIP3    H246623   3.461   1.894   3.745 -1.1438 -3.7577  2.4614
 8378TIP3   OH246624   5.063   3.872   2.094  0.2066 -0.1827  0.2584
 8378TIP3    H146625   5.078   3.916   2.010  0.4989  0.8833  0.8668
 8378TIP3    H246626   5.017   3.936   2.147  0.3829 -0.7120  1.0520
 8379TIP3   OH246627   3.034   5.536  16.682 -0.0014 -0.6413  0.4061
 8379TIP3    H146628   3.052   5.619  16.727 -2.8058  0.9090 -1.1649
 8379TIP3    H246629   3.103   5.529  16.616  0.6601  0.1009  1.0098
 8380TIP3   OH246630   2.488   0.122  16.113  0.1475 -0.2213  0.2384
 8380TIP3    H146631   2.579   0.093  16.113 -0.1263 -1.1080  1.0298
 8380TIP3    H246632   2.448   0.076  16.187 -0.5779  1.2807  0.8132
 8381TIP3   OH246633   4.890   4.226   2.916 -0.4766  0.2845  0.5301
 8381TIP3    H146634   4.915   4.154   2.974 -1.7248  0.7173  1.6176
 8381TIP3    H246635   4.875   4.183   2.831 -0.8062 -0.6877  1.0679
 8382TIP3   OH246636   3.743   1.783  14.192  0.3539  0.3331 -0.3517
 8382TIP3    H146637   3.749   1.856  14.254  2.0677 -0.6127  0.6166
 8382TIP3    H246638   3.756   1.824  14.107  1.6532  1.1271  0.2132
 8383TIP3   OH246639   1.674   2.329  15.859  0.5416 -0.1680  0.3072
 8383TIP3    H146640   1.684   2.409  15.806 -1.4048  0.1176  0.3441
 8383TIP3    H246641   1.616   2.273  15.808  0.7911 -1.0074  0.9281
 8384TIP3   OH246642   1.470   3.775  13.355  0.5008 -0.0942 -0.4578
 8384TIP3    H146643   1.553   3.753  13.398  0.8370  0.3549 -0.8690
 8384TIP3    H246644   1.449   3.698  13.303 -0.4018 -1.0226  1.2532
 8385TIP3   OH246645   0.791   1.241   2.950 -0.1753  0.2581  0.7201
 8385TIP3    H146646   0.764   1.172   3.011  0.3159  1.4706  2.3385
 8385TIP3    H246647   0.721   1.243   2.884 -1.6290  0.1163  2.2266
 8386TIP3   OH246648   5.399   5.407   3.455 -0.0953  0.4856 -0.0751
 8386TIP3    H146649   5.394   5.318   3.419  0.7084 -0.0043  0.9962
 8386TIP3    H246650   5.446   5.457   3.389 -0.6386  0.1392 -0.7315
 8387TIP3   OH246651   3.895   5.584   5.858 -0.8132 -0.1908 -0.4997
 8387TIP3    H146652   3.949   5.613   5.784  2.1137  0.0602  1.6139
 8387TIP3    H246653   3.863   5.665   5.897  1.9560 -0.0080  1.5270
 8388TIP3   OH246654   5.228   3.047  13.156  0.1905  0.1315 -0.0801
 8388TIP3    H146655   5.318   3.066  13.131  1.3052 -2.8136  1.5801
 8388TIP3    H246656   5.205   3.117  13.217  0.8631  1.6043 -1.4508
 8389TIP3   OH246657   1.522   4.117  15.064  0.3952 -0.3625 -0.0600
 8389TIP3    H146658   1.461   4.161  15.005  1.5645 -1.9630 -2.5744
 8389TIP3    H246659   1.472   4.044  15.100  0.2477 -0.5715 -0.6742
 8390TIP3   OH246660   4.627   4.767   3.389 -0.4054 -0.3511 -0.8325
 8390TIP3    H146661   4.686   4.750   3.315 -1.0156 -1.5966 -1.0447
 8390TIP3    H246662   4.632   4.688   3.442  0.2202  0.6445  0.6107
 8391TIP3   OH246663   2.627   5.743   2.165  0.2533 -0.4769  0.8741
 8391TIP3    H146664   2.581   5.788   2.236 -0.9567  1.7435 -1.2107
 8391TIP3    H246665   2.558   5.697   2.117  0.6313  0.2634 -0.4209
 8392TIP3   OH246666   6.128   4.814  16.726  0.3635  0.0426 -0.1099
 8392TIP3    H146667   6.178   4.783  16.651 -0.3322  1.0379 -1.0096
 8392TIP3    H246668   6.076   4.887  16.691 -0.0734  0.4229  1.3046
 8393TIP3   OH246669   4.900   3.293  16.894 -0.1832 -0.5111 -0.5614
 8393TIP3    H146670   4.809   3.314  16.916 -0.0593  2.6113 -2.8202
 8393TIP3    H246671   4.894   3.251  16.809  0.4629 -0.9432 -0.3925
 8394TIP3   OH246672   0.209   3.601  14.757 -1.1060  0.2727 -0.0143
 8394TIP3    H146673   0.130   3.567  14.715 -0.4038 -0.3013 -0.8773
 8394TIP3    H246674   0.183   3.687  14.790 -1.6122  0.8418 -1.8299
 8395TIP3   OH246675   6.745   0.920   6.322 -0.1258 -0.0826 -0.6150
 8395TIP3    H146676   6.798   0.845   6.350 -1.4061 -0.5955  0.4706
 8395TIP3    H246677   6.655   0.896   6.344 -0.5354  1.8852 -0.0159
 8396TIP3   OH246678   6.504   0.337  12.566 -0.2888  0.1738  0.1203
 8396TIP3    H146679   6.444   0.406  12.594  0.7412 -0.1786  3.3979
 8396TIP3    H246680   6.450   0.258  12.560 -1.2536  0.9774 -2.6216
 8397TIP3   OH246681   3.070   3.803  12.942  0.5852 -0.1129  0.2798
 8397TIP3    H146682   3.110   3.826  12.858  0.6196  1.1826  0.6330
 8397TIP3    H246683   3.001   3.740  12.920  1.1035 -0.3713 -0.6229
 8398TIP3   OH246684   3.168   0.872   5.602 -0.0779 -0.3659 -0.3100
 8398TIP3    H146685   3.148   0.852   5.511 -0.1714  1.2645 -0.6637
 8398TIP3    H246686   3.131   0.799   5.652 -0.8213 -0.8036 -1.5000
 8399TIP3   OH246687   2.515   3.687  11.649 -0.0770  0.0562 -0.2200
 8399TIP3    H146688   2.508   3.740  11.729  1.4592 -0.8550  0.5427
 8399TIP3    H246689   2.530   3.598  11.681  0.6463 -0.2973 -1.5213
 8400TIP3   OH246690   5.896   4.134  16.777 -0.5502  0.3274  0.8023
 8400TIP3    H146691   5.853   4.196  16.836 -2.0355 -3.3035  3.7603
 8400TIP3    H246692   5.981   4.118  16.818 -0.3066  0.1620  0.2345
 8401TIP3   OH246693   3.016   4.157  16.088 -0.8169 -0.3893  0.3247
 8401TIP3    H146694   3.023   4.063  16.101 -0.3892 -0.6088 -1.3699
 8401TIP3    H246695   3.074   4.195  16.153  0.3657 -1.3835 -0.1250
 8402TIP3   OH246696   2.621   2.345   4.881 -0.2504  0.4000 -0.3369
 8402TIP3    H146697   2.644   2.321   4.971 -3.3037 -2.2810 -0.2031
 8402TIP3    H246698   2.705   2.356   4.837  1.2812 -0.5890  2.2480
 8403TIP3   OH246699   4.513   5.282  15.508 -0.6329  0.3329 -0.1637
 8403TIP3    H146700   4.548   5.308  15.423  0.3024 -2.0665 -0.5663
 8403TIP3    H246701   4.499   5.364  15.555 -0.6293  1.6604 -2.4230
 8404TIP3   OH246702   6.709   4.003   1.749  0.0178  0.7133 -0.0407
 8404TIP3    H146703   6.721   3.924   1.802  1.1590  0.8781 -0.0291
 8404TIP3    H246704   6.615   4.010   1.737 -0.1355 -0.3063  0.4872
 8405TIP3   OH246705   1.313   4.380  13.321 -0.4507 -0.3301  0.3679
 8405TIP3    H146706   1.284   4.462  13.281 -0.5681 -0.3603  0.3904
 8405TIP3    H246707   1.384   4.349  13.265 -1.7351 -1.2490 -0.7948
 8406TIP3   OH246708   5.269   1.437   3.593  0.0068  0.6357  0.5508
 8406TIP3    H146709   5.254   1.531   3.593  0.0604  0.6436  0.0452
 8406TIP3    H246710   5.360   1.427   3.567 -0.6368  0.3403 -1.6680
 8407TIP3   OH246711   2.566   2.617  13.633  0.2259  0.8214  0.4416
 8407TIP3    H146712   2.655   2.608  13.598  0.7611 -0.4780  2.0928
 8407TIP3    H246713   2.536   2.701  13.599  1.8868  1.0468 -0.5485
 8408TIP3   OH246714   0.900   3.916   0.482 -0.5690 -1.0762 -0.5602
 8408TIP3    H146715   0.862   3.967   0.410 -2.8874 -3.9502 -1.4846
 8408TIP3    H246716   0.994   3.915   0.463 -0.4456  2.6548 -0.5601
 8409TIP3   OH246717   2.607   5.524  15.796  0.2630  0.1192  0.2768
 8409TIP3    H146718   2.636   5.584  15.726 -2.0188  1.8889  0.7761
 8409TIP3    H246719   2.570   5.449  15.750  1.4424 -0.0720 -0.3788
 8410TIP3   OH246720   2.741   4.253   0.557 -0.2365 -0.0219  0.6615
 8410TIP3    H146721   2.831   4.284   0.564  0.0155 -0.6334  0.0853
 8410TIP3    H246722   2.748   4.160   0.540 -0.9890 -0.1863  1.2093
 8411TIP3   OH246723   2.242   0.675  15.177 -0.0231  0.3566  0.3051
 8411TIP3    H146724   2.287   0.705  15.098  0.3687  0.5237  0.5882
 8411TIP3    H246725   2.282   0.726  15.248 -0.1920  0.0257  0.6399
 8412TIP3   OH246726   6.501   5.087   1.639 -0.3037 -1.0306 -0.3069
 8412TIP3    H146727   6.470   5.039   1.562  0.2515  0.3785 -1.4579
 8412TIP3    H246728   6.422   5.127   1.676 -0.2270  0.7659 -1.9586
 8413TIP3   OH246729   1.408   5.553   0.571  0.9596  0.4934  0.1326
 8413TIP3    H146730   1.324   5.530   0.531  0.1665 -0.8287  2.4196
 8413TIP3    H246731   1.419   5.646   0.554 -0.8734  0.6230 -0.3981
 8414TIP3   OH246732   4.635   0.744   3.554  0.3488  0.3952  0.0107
 8414TIP3    H146733   4.676   0.669   3.598 -0.1312  0.1917  0.1131
 8414TIP3    H246734   4.676   0.820   3.596  1.0274  0.1953 -0.2740
 8415TIP3   OH246735   4.005   4.643   0.970  0.6513 -0.2627  0.1953
 8415TIP3    H146736   3.977   4.734   0.969  0.1722 -0.4089  0.1321
 8415TIP3    H246737   4.099   4.646   0.988  0.3834  0.1832  1.5665
 8416TIP3   OH246738   4.672   6.118  11.589 -0.4302 -0.2191  0.2441
 8416TIP3    H146739   4.714   6.204  11.592 -0.9574  0.0098  1.5376
 8416TIP3    H246740   4.655   6.102  11.496  1.3335  0.2530 -0.1720
 8417TIP3   OH246741   4.674   3.427   0.813 -0.1287 -0.0377  0.3409
 8417TIP3    H146742   4.649   3.380   0.734 -0.7848  1.5376 -0.4202
 8417TIP3    H246743   4.591   3.450   0.855  0.1917 -0.0526  0.9905
 8418TIP3   OH246744   4.023   6.323   1.249 -0.2618  0.0882 -0.0173
 8418TIP3    H146745   4.116   6.333   1.229  0.0230  0.1588  1.2636
 8418TIP3    H246746   4.007   6.229   1.241  0.3521 -0.1635  1.4723
 8419TIP3   OH246747   0.197   2.810   4.160  0.0932  0.6393 -0.1253
 8419TIP3    H146748   0.212   2.888   4.106 -1.9059  1.2889  0.2125
 8419TIP3    H246749   0.180   2.740   4.097  3.5618  0.0409 -0.4947
 8420TIP3   OH246750   2.339   6.800   5.921  0.8694 -0.9997 -0.5105
 8420TIP3    H146751   2.324   6.755   6.005  0.4709  0.2720  0.1078
 8420TIP3    H246752   2.430   6.827   5.925  0.1276  1.4909  0.7295
 8421TIP3   OH246753   3.851   0.557   6.094 -0.3571  0.8425 -0.7096
 8421TIP3    H146754   3.817   0.646   6.108 -0.2809  0.4979  1.9455
 8421TIP3    H246755   3.940   0.560   6.128 -1.2453 -0.9111  1.8989
 8422TIP3   OH246756   6.133   1.043   0.909 -0.5564 -0.4636 -0.2947
 8422TIP3    H146757   6.066   0.987   0.948  0.6390 -0.8775  1.1868
 8422TIP3    H246758   6.216   1.005   0.936  0.3063  0.1439 -1.9774
 8423TIP3   OH246759   2.723   1.998   5.560 -0.3098 -0.3343  0.0914
 8423TIP3    H146760   2.799   1.945   5.537 -0.4732 -0.4956 -0.0839
 8423TIP3    H246761   2.730   2.077   5.506  0.5923  0.3864  1.2537
 8424TIP3   OH246762   0.589   2.422  13.381 -0.0596 -0.0233 -0.0344
 8424TIP3    H146763   0.665   2.398  13.327 -0.5110 -0.3024 -0.5592
 8424TIP3    H246764   0.547   2.493  13.332 -0.7541 -0.6197 -0.3079
 8425TIP3   OH246765   0.915   5.433  12.158  0.0007 -0.1171 -0.1237
 8425TIP3    H146766   0.878   5.419  12.071 -2.3270  3.6157  0.1522
 8425TIP3    H246767   1.010   5.437  12.143 -0.3355 -0.0005 -2.4194
 8426TIP3   OH246768   2.878   3.146  11.422  0.6271 -0.1987  0.4552
 8426TIP3    H146769   2.849   3.150  11.513 -0.3343  1.3383  0.0925
 8426TIP3    H246770   2.932   3.224  11.411  0.3291 -0.1189 -0.4375
 8427TIP3   OH246771   2.789   3.709   1.786 -0.5732 -0.1079  0.4963
 8427TIP3    H146772   2.764   3.632   1.837 -0.3064 -0.4675  0.0827
 8427TIP3    H246773   2.868   3.683   1.739 -1.1420  0.0226 -0.5583
 8428TIP3   OH246774   4.925   1.805   2.951  0.1129  0.0015 -0.0543
 8428TIP3    H146775   4.960   1.803   3.040  2.1889 -1.9795 -0.8566
 8428TIP3    H246776   4.830   1.816   2.962  0.3377 -0.3298  2.4039
 8429TIP3   OH246777   6.066   2.199   1.543 -0.7344  0.4823 -0.2208
 8429TIP3    H146778   6.078   2.278   1.491 -0.2190  0.1701 -0.5769
 8429TIP3    H246779   6.018   2.139   1.486 -0.7664  0.3883 -0.0966
 8430TIP3   OH246780   6.436   1.375   3.686 -0.4032 -0.0331 -0.1013
 8430TIP3    H146781   6.353   1.356   3.643 -2.8051  0.3864  4.0602
 8430TIP3    H246782   6.439   1.471   3.692  1.2167  0.0458 -1.6692
 8431TIP3   OH246783   6.663   6.522   4.247 -0.5419  0.2593 -0.3686
 8431TIP3    H146784   6.579   6.527   4.293 -0.2202  1.1839  0.1334
 8431TIP3    H246785   6.729   6.522   4.316 -0.0925  0.6259 -0.7887
 8432TIP3   OH246786   2.926   2.794   2.886  0.0639 -0.5473  0.0501
 8432TIP3    H146787   2.980   2.765   2.813 -0.4158  0.0381 -0.5384
 8432TIP3    H246788   2.985   2.790   2.962  1.0807  0.5486 -0.6635
 8433TIP3   OH246789   1.198   2.185   4.196 -0.0650 -1.3408  0.6183
 8433TIP3    H146790   1.196   2.257   4.133 -0.2263 -1.5237  0.4104
 8433TIP3    H246791   1.274   2.132   4.169  0.8185 -0.5513  1.5577
 8434TIP3   OH246792   4.652   3.642   3.701 -0.3196 -0.1478  0.2122
 8434TIP3    H146793   4.616   3.625   3.788  0.2410 -1.9249  0.1169
 8434TIP3    H246794   4.629   3.733   3.683 -0.5078  0.2170  2.1807
 8435TIP3   OH246795   2.941   1.892  12.403 -0.1741 -0.3147 -0.1078
 8435TIP3    H146796   2.869   1.866  12.461  0.2764 -0.1272  0.5482
 8435TIP3    H246797   3.020   1.872  12.454  0.2169  0.2662 -0.4899
 8436TIP3   OH246798   5.481   5.975   2.831 -0.1286  0.1974 -0.4807
 8436TIP3    H146799   5.571   6.009   2.831  0.7399 -1.9928 -1.7912
 8436TIP3    H246800   5.488   5.889   2.873 -1.9776  0.8004  1.1577
 8437TIP3   OH246801   3.579   5.233   0.839 -0.2332  0.9297 -0.1083
 8437TIP3    H146802   3.491   5.200   0.822 -0.2127  1.5122 -1.4403
 8437TIP3    H246803   3.636   5.174   0.789  0.3224 -0.6048  2.2413
 8438TIP3   OH246804   4.569   6.535   5.391 -0.1051  1.1616  0.0511
 8438TIP3    H146805   4.493   6.483   5.414  0.8688  0.2599  1.3041
 8438TIP3    H246806   4.596   6.576   5.473 -0.1885  2.7417 -0.6992
 8439TIP3   OH246807   6.101   1.996  14.501 -0.3283  0.3484  0.0565
 8439TIP3    H146808   6.135   1.927  14.444 -0.1058 -0.1795  0.8262
 8439TIP3    H246809   6.155   1.992  14.580 -0.3298  1.3900  0.1211
 8440TIP3   OH246810   5.638   1.899   3.885 -0.3387 -0.4383 -0.1530
 8440TIP3    H146811   5.593   1.818   3.860 -0.5164 -0.5070  0.3822
 8440TIP3    H246812   5.652   1.890   3.979 -1.2227  0.5761  0.0756
 8441TIP3   OH246813   5.615   4.321  17.237 -0.5726  0.4902 -0.0022
 8441TIP3    H146814   5.536   4.364  17.270  0.7907  2.6569  0.5207
 8441TIP3    H246815   5.656   4.284  17.315  0.6294  2.2679  0.2511
 8442TIP3   OH246816   0.593   3.215  16.647  0.7562 -0.0761 -0.3238
 8442TIP3    H146817   0.574   3.309  16.657 -0.1483 -0.1487 -1.2541
 8442TIP3    H246818   0.681   3.204  16.684  0.4614  0.9577  0.6880
 8443TIP3   OH246819   1.499   2.201   4.979  0.0746  0.6465 -0.0645
 8443TIP3    H146820   1.575   2.150   5.006 -1.4470 -1.0119  1.1959
 8443TIP3    H246821   1.498   2.193   4.883  0.5468 -0.7277  0.0314
 8444TIP3   OH246822   1.309   6.340  17.122 -0.1868 -0.3305  0.6348
 8444TIP3    H146823   1.260   6.406  17.073  2.2679  0.5589 -0.6948
 8444TIP3    H246824   1.295   6.259  17.072  4.1644  0.9974 -3.0687
 8445TIP3   OH246825   4.339   0.731   1.757 -1.0604  0.1020  0.3254
 8445TIP3    H146826   4.375   0.803   1.704  1.2838  0.3548  2.1810
 8445TIP3    H246827   4.281   0.775   1.820 -2.1340  0.0191 -0.5893
 8446TIP3   OH246828   5.693   1.443  14.712 -0.4218 -0.3511 -0.2970
 8446TIP3    H146829   5.761   1.459  14.778 -0.5521  0.9808 -0.4623
 8446TIP3    H246830   5.647   1.365  14.742  0.5255 -0.6536  0.3610
 8447TIP3   OH246831   1.643   4.618  11.497 -0.0486 -0.4772  0.4785
 8447TIP3    H146832   1.725   4.667  11.500 -1.1326  1.4909 -0.6923
 8447TIP3    H246833   1.620   4.605  11.589  0.4774  0.8901  0.8179
 8448TIP3   OH246834   6.390   4.230  11.352 -0.2386 -0.3738 -0.3042
 8448TIP3    H146835   6.299   4.256  11.337 -0.5756 -0.7582  1.0619
 8448TIP3    H246836   6.436   4.260  11.273 -1.1875  1.5159 -0.1776
 8449TIP3   OH246837   3.152   6.781   3.168  0.2502 -0.2063 -0.2755
 8449TIP3    H146838   3.237   6.745   3.141  0.4292 -0.7443  0.9632
 8449TIP3    H246839   3.173   6.862   3.214  0.0531 -0.0509 -0.4574
 8450TIP3   OH246840   4.599   2.293  15.590  0.1032  0.8517  0.2476
 8450TIP3    H146841   4.610   2.238  15.668  2.4036 -0.3281 -0.8704
 8450TIP3    H246842   4.550   2.239  15.529 -0.5867  1.3091  0.3907
 8451TIP3   OH246843   6.400   4.383  12.675 -0.4601  0.0983  0.4351
 8451TIP3    H146844   6.382   4.358  12.766  0.1974 -3.0049 -0.2114
 8451TIP3    H246845   6.494   4.402  12.674 -0.3329 -0.5260  0.2781
 8452TIP3   OH246846   2.726   5.043   0.683  0.0145 -0.3822 -0.3960
 8452TIP3    H146847   2.693   5.110   0.622  0.2100 -1.5239 -1.7814
 8452TIP3    H246848   2.770   4.980   0.627 -0.3261 -1.7778  0.8842
 8453TIP3   OH246849   0.005   4.802   4.491 -0.7794 -0.0790  0.3047
 8453TIP3    H146850  -0.037   4.776   4.408 -1.0148 -0.1148  0.4359
 8453TIP3    H246851  -0.067   4.830   4.547 -0.4774  1.4186 -0.0294
 8454TIP3   OH246852   3.683   2.780   4.218 -0.0182 -0.5357 -0.4276
 8454TIP3    H146853   3.736   2.704   4.243  1.3339  0.0242 -1.5382
 8454TIP3    H246854   3.729   2.855   4.255  0.0425 -0.0369 -1.4815
 8455TIP3   OH246855   6.769   0.504   3.150 -0.0149  0.1743 -0.1432
 8455TIP3    H146856   6.770   0.508   3.245  1.6331 -0.2640 -0.1315
 8455TIP3    H246857   6.807   0.588   3.122  1.9949 -0.7960 -0.3690
 8456TIP3   OH246858   5.675   2.241  13.150 -0.5998 -0.2932 -0.3815
 8456TIP3    H146859   5.609   2.311  13.151  0.0462  0.3118  0.8029
 8456TIP3    H246860   5.728   2.260  13.072 -0.9324  0.0564 -0.5276
 8457TIP3   OH246861   2.722   0.075   3.097 -0.3109 -0.3489  0.3798
 8457TIP3    H146862   2.662   0.149   3.094 -0.8807 -0.8558 -1.3186
 8457TIP3    H246863   2.785   0.092   3.026  0.3186 -0.8433  0.8157
 8458TIP3   OH246864   1.143   5.913   3.798  0.1904  0.6490  0.2059
 8458TIP3    H146865   1.192   5.837   3.768 -0.3687  0.7048 -0.8538
 8458TIP3    H246866   1.149   5.909   3.894 -3.1449 -2.9784  0.4051
 8459TIP3   OH246867   1.427   4.677   6.559  0.2567 -0.0702  0.0492
 8459TIP3    H146868   1.517   4.700   6.582  0.4160 -0.6430  0.0090
 8459TIP3    H246869   1.402   4.609   6.622 -0.4645  0.7220  0.6277
 8460TIP3   OH246870   2.774   5.799  14.363  0.4825  0.8381  0.1346
 8460TIP3    H146871   2.691   5.789  14.409  0.9474 -1.1280  0.5987
 8460TIP3    H246872   2.823   5.719  14.385  0.3725 -0.6230 -4.3799
 8461TIP3   OH246873   1.827   5.213   2.180  0.7800 -0.2614 -0.6685
 8461TIP3    H146874   1.786   5.181   2.260  2.6269 -0.7570  0.1137
 8461TIP3    H246875   1.823   5.309   2.188 -0.9051 -0.2809 -0.9950
 8462TIP3   OH246876   6.391   3.227   4.118 -0.0592 -0.7347  0.2183
 8462TIP3    H146877   6.336   3.227   4.039  0.8340 -0.0013 -0.4161
 8462TIP3    H246878   6.373   3.311   4.159  0.6495 -0.4609 -0.0336
 8463TIP3   OH246879   6.734   1.801  12.769 -0.1800  0.3133  0.1512
 8463TIP3    H146880   6.663   1.784  12.707 -0.5359 -0.7479  0.8314
 8463TIP3    H246881   6.697   1.780  12.855  1.1639 -0.9364  0.4455
 8464TIP3   OH246882   0.426   6.255  15.472 -0.4215  0.2077 -0.2906
 8464TIP3    H146883   0.448   6.187  15.536 -1.1428 -2.1535 -2.4600
 8464TIP3    H246884   0.344   6.292  15.505 -0.2328 -0.2455  0.7177
 8465TIP3   OH246885   6.069   0.226   5.930  0.0609  0.0934  0.4131
 8465TIP3    H146886   6.048   0.133   5.923  0.3210 -0.0747  1.7503
 8465TIP3    H246887   6.027   0.265   5.853  0.4514 -1.2007 -0.4840
 8466TIP3   OH246888   6.544   1.891   0.646  0.0247  0.3645  1.0496
 8466TIP3    H146889   6.626   1.914   0.689 -0.6143  0.4036  2.2994
 8466TIP3    H246890   6.536   1.954   0.574  0.7344  0.8322  1.3726
 8467TIP3   OH246891   0.190   0.681  16.184 -0.5607  0.1210 -0.4112
 8467TIP3    H146892   0.280   0.661  16.157 -0.8201 -1.3112 -0.2530
 8467TIP3    H246893   0.160   0.744  16.119  0.6960  0.9419 -0.2257
 8468TIP3   OH246894   4.479   0.174  17.224 -0.1317  0.1226  0.6908
 8468TIP3    H146895   4.456   0.120  17.299 -0.8134 -0.3907  0.1089
 8468TIP3    H246896   4.442   0.129  17.149 -2.1810  2.2611  0.3726
 8469TIP3   OH246897   4.238   4.229  10.887 -0.2273 -0.0667  0.5427
 8469TIP3    H146898   4.227   4.189  10.973  0.3634 -0.6313  0.3615
 8469TIP3    H246899   4.292   4.167  10.839 -2.6810 -0.9934 -1.1073
 8470TIP3   OH246900   1.965   1.111   5.042 -0.5978 -0.4569  0.0513
 8470TIP3    H146901   1.893   1.049   5.036  0.5085 -1.9217  1.2213
 8470TIP3    H246902   1.925   1.194   5.066 -1.9796 -1.0056 -0.3469
 8471TIP3   OH246903   2.460   0.810   3.249 -0.1957  0.0109 -0.1886
 8471TIP3    H146904   2.513   0.737   3.216  1.4417  0.7968  0.6714
 8471TIP3    H246905   2.372   0.791   3.216  0.4508 -1.6887 -1.0452
 8472TIP3   OH246906   5.439   0.382   3.881  0.2287  0.0698  0.0103
 8472TIP3    H146907   5.348   0.354   3.889  0.1078  0.6286  0.6212
 8472TIP3    H246908   5.489   0.301   3.871 -0.1359 -0.3506  1.5282
 8473TIP3   OH246909   3.098   1.759   3.424  0.1120  0.5478  0.2455
 8473TIP3    H146910   3.082   1.834   3.367 -0.7747 -2.1556 -3.1742
 8473TIP3    H246911   3.181   1.722   3.393 -0.8900 -1.5565 -0.0458
 8474TIP3   OH246912   6.490   5.145   0.796  0.1738 -0.2107 -0.0948
 8474TIP3    H146913   6.431   5.165   0.724  1.9102 -0.6892 -1.7127
 8474TIP3    H246914   6.536   5.066   0.767 -0.6202 -1.6914  2.4964
 8475TIP3   OH246915   4.126   6.708  11.153  0.4830 -0.1231  0.2224
 8475TIP3    H146916   4.164   6.632  11.110  2.3830  0.9267  0.0006
 8475TIP3    H246917   4.157   6.783  11.103 -2.2335  0.7873 -0.2189
 8476TIP3   OH246918   1.530   6.689   2.094 -0.1298 -0.1236  0.2884
 8476TIP3    H146919   1.534   6.594   2.102 -0.8142 -0.1917 -0.1315
 8476TIP3    H246920   1.437   6.710   2.104 -0.0066  0.4804  0.1818
 8477TIP3   OH246921   0.718   5.832  15.529  0.4874 -0.4168  0.4860
 8477TIP3    H146922   0.627   5.847  15.555  0.2730 -0.6988 -0.0925
 8477TIP3    H246923   0.759   5.918  15.536  0.2722 -0.3670  1.1337
 8478TIP3   OH246924   5.040   2.441   3.782  0.4645 -0.4433 -0.3475
 8478TIP3    H146925   5.117   2.464   3.730  0.4256 -2.5522 -1.3844
 8478TIP3    H246926   4.966   2.471   3.730  0.5183  0.5109  0.1025
 8479TIP3   OH246927   3.612   6.279  11.641 -0.5673  0.5552  0.5050
 8479TIP3    H146928   3.707   6.277  11.649 -0.6554  0.3625  1.5515
 8479TIP3    H246929   3.580   6.252  11.727 -1.5607 -1.6978 -0.5270
 8480TIP3   OH246930   3.923   5.585   4.002 -0.2365 -0.1473  0.2405
 8480TIP3    H146931   3.975   5.544   4.071  1.5261  1.6517  0.0373
 8480TIP3    H246932   3.857   5.636   4.048  0.7819  0.8490  0.6338
 8481TIP3   OH246933   1.794   2.600   2.938 -0.5126  0.4084 -0.5598
 8481TIP3    H146934   1.853   2.572   3.008  1.9520  1.4336 -2.1615
 8481TIP3    H246935   1.777   2.520   2.889  0.5968  0.3231 -0.8311
 8482TIP3   OH246936   2.352   4.726   4.031  0.2322  0.1520  0.1681
 8482TIP3    H146937   2.335   4.659   3.964  0.3381  0.6081 -0.3204
 8482TIP3    H246938   2.342   4.809   3.984  0.1286  0.4775  0.7634
 8483TIP3   OH246939   2.167   0.987   2.603  0.2656  0.2022 -0.0364
 8483TIP3    H146940   2.123   0.951   2.679 -0.5244  0.2427 -0.4690
 8483TIP3    H246941   2.211   0.912   2.563  0.6316  0.1711  0.4286
 8484TIP3   OH246942   1.732   1.796  11.347 -0.1566  0.7217  0.3046
 8484TIP3    H146943   1.766   1.880  11.377 -1.0561  0.4876  2.0241
 8484TIP3    H246944   1.689   1.816  11.264 -2.0599  2.3361  1.6284
 8485TIP3   OH246945   6.483   1.478   5.040  0.7580  0.4739  0.0744
 8485TIP3    H146946   6.499   1.490   5.134 -0.7578  1.2867  0.2582
 8485TIP3    H246947   6.434   1.396   5.035  2.0128 -0.2745 -0.1539
 8486TIP3   OH246948   3.691   6.511   4.338 -0.4744 -0.3219  0.1733
 8486TIP3    H146949   3.738   6.450   4.282  0.5988  0.8175 -0.1810
 8486TIP3    H246950   3.756   6.577   4.362 -1.9156  1.3142 -0.3775
 8487TIP3   OH246951   4.827   2.930  11.103 -0.2721  0.3803  0.2752
 8487TIP3    H146952   4.829   2.883  11.019  1.4756  0.5802  0.1788
 8487TIP3    H246953   4.862   3.017  11.082 -1.6132  1.0702  0.8494
 8488TIP3   OH246954   2.336   6.430   5.300  0.3150  0.5189  0.4788
 8488TIP3    H146955   2.426   6.438   5.269  0.3752  1.4474  0.8834
 8488TIP3    H246956   2.303   6.350   5.258  1.6891 -0.4469  1.2124
 8489TIP3   OH246957   1.974   5.990  14.113 -0.0762  0.4425  0.1470
 8489TIP3    H146958   2.049   6.049  14.125  0.1552 -0.0925  1.3842
 8489TIP3    H246959   1.900   6.039  14.148 -0.2505  0.8342 -0.7605
 8490TIP3   OH246960   4.495   0.805  16.882  0.3415 -0.0634 -0.1632
 8490TIP3    H146961   4.547   0.884  16.891  3.0340 -2.0501  2.7766
 8490TIP3    H246962   4.476   0.778  16.971 -0.6189 -2.6673 -1.1055
 8491TIP3   OH246963   1.744   5.722   3.206  0.2121 -0.1687 -0.4603
 8491TIP3    H146964   1.836   5.700   3.196  0.4894  0.6476  0.2603
 8491TIP3    H246965   1.727   5.712   3.300 -0.4538 -0.3800 -0.5995
 8492TIP3   OH246966   6.336   2.926  15.104  0.0818 -0.2620 -0.1395
 8492TIP3    H146967   6.328   2.833  15.085  1.1450 -0.4294  0.2479
 8492TIP3    H246968   6.392   2.931  15.182  0.1534  0.7029 -0.2419
 8493TIP3   OH246969   0.237   4.647   2.020  0.8099 -0.2080 -0.5706
 8493TIP3    H146970   0.170   4.659   2.089 -0.3181 -2.9775 -1.1253
 8493TIP3    H246971   0.229   4.555   1.995  4.4433 -0.4206 -1.1155
 8494TIP3   OH246972   4.199   6.268   0.932 -0.3844 -1.1202 -0.1176
 8494TIP3    H146973   4.136   6.322   0.980  0.5544 -0.5249  0.4688
 8494TIP3    H246974   4.246   6.220   1.001  0.1218 -1.2082 -0.5255
 8495TIP3   OH246975   1.129   4.103  10.598 -0.4637 -0.3111  0.3405
 8495TIP3    H146976   1.146   4.013  10.573  1.3001 -0.5026  2.0875
 8495TIP3    H246977   1.214   4.147  10.588 -0.7349  0.5810  1.7975
 8496TIP3   OH246978   0.553   0.360   2.485 -0.2324  0.2945 -0.0054
 8496TIP3    H146979   0.539   0.396   2.398  0.6213 -0.6281 -0.5324
 8496TIP3    H246980   0.648   0.356   2.495 -0.3039 -1.6465  0.0933
 8497TIP3   OH246981   5.452   4.622  15.330  0.4407 -0.2694 -0.1540
 8497TIP3    H146982   5.521   4.556  15.325  0.3852 -0.4950  1.5186
 8497TIP3    H246983   5.499   4.706  15.331  0.5548 -0.3122 -1.4262
 8498TIP3   OH246984   5.801   4.772  14.581  0.0443  0.6216  0.1155
 8498TIP3    H146985   5.877   4.760  14.525 -1.3199 -1.5063 -1.3745
 8498TIP3    H246986   5.726   4.775  14.521 -1.0974  2.2668  1.5641
 8499TIP3   OH246987   3.312   6.791  13.871 -0.2305  0.1273  0.0318
 8499TIP3    H146988   3.386   6.834  13.827  0.7542 -0.8248  0.7453
 8499TIP3    H246989   3.333   6.797  13.964 -0.8670 -0.4956  0.2160
 8500TIP3   OH246990   2.952   2.975  15.206 -0.8039 -0.2257 -0.0532
 8500TIP3    H146991   2.935   3.033  15.280 -0.9865 -0.8642  0.4133
 8500TIP3    H246992   3.047   2.965  15.204 -0.7487  0.3061 -0.3098
 8501TIP3   OH246993   6.385   5.782  13.179 -0.1840  0.0946 -0.0315
 8501TIP3    H146994   6.458   5.730  13.148  0.0903  1.5957 -2.0085
 8501TIP3    H246995   6.397   5.787  13.274  1.5446 -0.7563 -0.2002
 8502TIP3   OH246996   2.351   2.798  11.349  0.9618  0.2772  0.0153
 8502TIP3    H146997   2.379   2.719  11.303  1.7698  2.6973 -3.8547
 8502TIP3    H246998   2.264   2.817  11.315  0.7472  1.0302  0.9504
 8503TIP3   OH246999   0.678   2.197   0.969  0.4494  0.3079 -0.0696
 8503TIP3    H147000   0.768   2.230   0.974  0.4678  0.0430  1.6514
 8503TIP3    H247001   0.685   2.106   0.996 -0.1198 -0.1822 -1.4881
 8504TIP3   OH247002   4.748   3.047  17.003  0.2271 -0.5074 -0.0423
 8504TIP3    H147003   4.683   2.983  16.973  0.6904 -1.9535  1.8618
 8504TIP3    H247004   4.707   3.132  16.988 -0.6801 -1.2572 -2.0490
 8505TIP3   OH247005   1.631   5.984  15.063 -0.3623 -0.1584 -0.2491
 8505TIP3    H147006   1.612   6.053  15.127  1.1172 -1.0439  1.1715
 8505TIP3    H247007   1.550   5.975  15.013 -1.4861  0.6997  1.3705
 8506TIP3   OH247008   6.170   2.033  15.361 -0.0819 -0.9422 -0.3864
 8506TIP3    H147009   6.119   2.092  15.306  0.8103 -0.9336 -1.2245
 8506TIP3    H247010   6.160   2.068  15.449 -1.2843 -0.7793 -0.5766
 8507TIP3   OH247011   5.925   5.933  12.055  0.4227 -0.1432 -0.0636
 8507TIP3    H147012   5.918   5.987  12.134 -2.4553  0.6853 -0.8170
 8507TIP3    H247013   5.970   5.854  12.084  1.6189  1.1899  1.8442
 8508TIP3   OH247014   2.307   3.317   2.009  0.3125  0.3114  0.5156
 8508TIP3    H147015   2.327   3.337   2.100  1.6383  1.6290 -0.0278
 8508TIP3    H247016   2.347   3.390   1.960 -4.1620  2.0091 -0.8188
 8509TIP3   OH247017   2.628   6.267   4.735 -0.1331  0.9023 -0.2681
 8509TIP3    H147018   2.715   6.227   4.736 -0.7003 -0.3513  2.1455
 8509TIP3    H247019   2.569   6.195   4.713 -0.5892  1.7562 -1.9328
 8510TIP3   OH247020   1.339   2.587  11.218  0.2115  0.2444  0.1879
 8510TIP3    H147021   1.421   2.549  11.249  0.7518  1.1999 -0.0658
 8510TIP3    H247022   1.284   2.593  11.297 -0.0962 -1.5817  0.1314
 8511TIP3   OH247023   2.273   4.717  11.534  0.2269  0.2585 -0.1665
 8511TIP3    H147024   2.237   4.805  11.540  0.3058  0.3278 -0.7240
 8511TIP3    H247025   2.354   4.721  11.585  0.0096  0.3936  0.1670
 8512TIP3   OH247026   3.197   5.144   1.267 -0.3765  0.6167 -0.2383
 8512TIP3    H147027   3.110   5.185   1.262  0.9713  3.8451  1.3041
 8512TIP3    H247028   3.246   5.182   1.194 -0.4576 -1.8101 -1.5953
 8513TIP3   OH247029   3.004   3.357  15.180  0.1169 -0.2436 -0.3958
 8513TIP3    H147030   2.991   3.294  15.109 -1.3410  2.2593 -2.4604
 8513TIP3    H247031   2.922   3.355  15.230  0.1781 -0.1907 -0.2937
 8514TIP3   OH247032   0.549   4.100   0.568 -0.0949  0.1532 -0.0412
 8514TIP3    H147033   0.514   4.012   0.577 -0.9574  0.7469  2.9020
 8514TIP3    H247034   0.475   4.153   0.538 -0.3478  0.4263  1.0650
 8515TIP3   OH247035   3.437   5.683   0.277 -0.0485 -0.0827 -0.0198
 8515TIP3    H147036   3.409   5.592   0.290 -1.8360  0.1023 -2.1702
 8515TIP3    H247037   3.532   5.679   0.272 -0.1329 -1.9387 -0.6330
 8516TIP3   OH247038   4.865   4.916   1.307  0.6684 -0.1716 -0.3452
 8516TIP3    H147039   4.874   4.966   1.388  0.5961  1.7288 -1.4667
 8516TIP3    H247040   4.770   4.909   1.294  0.6772 -0.8953 -0.0137
 8517TIP3   OH247041   4.526   0.770   1.332 -1.0480 -0.0320 -0.0729
 8517TIP3    H147042   4.561   0.684   1.356 -1.1403  0.6855  2.8730
 8517TIP3    H247043   4.571   0.793   1.251  0.3408 -2.0389  0.1014
 8518TIP3   OH247044   6.199   5.356  11.412 -0.5814 -0.0663 -0.1809
 8518TIP3    H147045   6.113   5.315  11.424 -0.1184 -0.3840  2.3452
 8518TIP3    H247046   6.210   5.413  11.489  1.1917  0.4716 -0.7967
 8519TIP3   OH247047   2.061   6.685  15.663 -0.1279 -0.3910  0.2876
 8519TIP3    H147048   2.130   6.620  15.675  0.7659  0.5424  0.1710
 8519TIP3    H247049   2.039   6.712  15.752 -0.5291 -0.8618  0.3387
 8520TIP3   OH247050   0.816   0.679   5.675  0.2150  0.3547  0.2520
 8520TIP3    H147051   0.892   0.667   5.619  0.9684  1.1820  1.0798
 8520TIP3    H247052   0.790   0.590   5.700  2.5102  0.1469  2.0559
 8521TIP3   OH247053   1.190   6.418  11.507 -0.3298 -0.2990  0.4677
 8521TIP3    H147054   1.245   6.344  11.533  0.0526 -0.4138 -0.6497
 8521TIP3    H247055   1.251   6.490  11.495 -0.3634 -0.5257 -1.1589
 8522TIP3   OH247056   2.460   2.739  14.789  0.4691  0.0232 -0.0523
 8522TIP3    H147057   2.502   2.809  14.740  1.1440 -0.4639 -0.1818
 8522TIP3    H247058   2.390   2.707  14.731 -0.2361  0.9848  0.2569
 8523TIP3   OH247059   5.913   2.749   5.311  0.2126 -0.7852 -0.3931
 8523TIP3    H147060   5.924   2.841   5.287  0.7147 -0.5772  0.6230
 8523TIP3    H247061   5.987   2.705   5.269  0.0224 -0.7141 -0.8063
 8524TIP3   OH247062   3.994   1.682  11.495  0.5198  0.0695 -0.2944
 8524TIP3    H147063   3.969   1.669  11.404  0.5890 -2.1140 -0.0248
 8524TIP3    H247064   3.927   1.741  11.530 -1.9812 -2.5070 -0.6395
 8525TIP3   OH247065   4.766   4.104  11.556 -0.2589 -0.1320  0.0576
 8525TIP3    H147066   4.826   4.030  11.559  0.5113  0.5517  2.2381
 8525TIP3    H247067   4.724   4.098  11.470  1.3601 -1.8537 -0.6281
 8526TIP3   OH247068   0.396   1.706  15.055 -0.1222 -0.1702  0.1905
 8526TIP3    H147069   0.329   1.645  15.084 -1.2328  1.8843  2.1138
 8526TIP3    H247070   0.421   1.754  15.134  1.6955  0.9347 -1.0033
 8527TIP3   OH247071   4.467   2.263   2.966  0.4041  0.1635 -0.6794
 8527TIP3    H147072   4.400   2.197   2.979 -1.4012  2.1528  0.4907
 8527TIP3    H247073   4.420   2.346   2.966  2.9573  1.7063  1.2121
 8528TIP3   OH247074   3.336   4.868   3.634 -0.3431  0.0275 -0.1981
 8528TIP3    H147075   3.248   4.878   3.599 -0.4441 -0.1149  0.0114
 8528TIP3    H247076   3.325   4.807   3.708  0.0482 -0.5740 -0.6348
 8529TIP3   OH247077   3.949   6.123   4.729  0.2420  0.1441  0.1423
 8529TIP3    H147078   3.867   6.082   4.699  0.9578 -0.5140 -0.9469
 8529TIP3    H247079   4.005   6.125   4.651  0.7466  1.9101  0.5379
 8530TIP3   OH247080   3.418   6.063  10.987 -0.7339 -0.3192 -0.6595
 8530TIP3    H147081   3.336   6.112  10.975 -0.7336  0.4382  1.9952
 8530TIP3    H247082   3.486   6.122  10.955 -0.7687  1.3376  2.1597
 8531TIP3   OH247083   6.169   4.914   5.008 -0.5008 -0.1990 -1.0738
 8531TIP3    H147084   6.189   5.001   4.974  0.1799  0.3352  0.6493
 8531TIP3    H247085   6.245   4.891   5.062 -1.6168 -0.9577  0.1995
 8532TIP3   OH247086   1.378   5.067   4.611 -0.8697  0.3874 -0.1139
 8532TIP3    H147087   1.381   5.122   4.689  3.9034 -1.2482  1.0392
 8532TIP3    H247088   1.417   5.120   4.542  0.7209 -0.2987  0.2183
 8533TIP3   OH247089   3.416   1.063   2.336 -0.1506  0.4208  0.0083
 8533TIP3    H147090   3.328   1.027   2.319  0.6935 -1.2089 -1.0651
 8533TIP3    H247091   3.418   1.145   2.286 -1.0279  0.4254 -0.0368
 8534TIP3   OH247092   6.206   5.600   0.667  0.2442  0.4356  0.3437
 8534TIP3    H147093   6.258   5.642   0.598  0.4421  1.1508  0.9245
 8534TIP3    H247094   6.117   5.634   0.653 -0.5482 -2.4120 -1.9716
 8535TIP3   OH247095   1.284   4.094   1.759  0.4523  0.4417  0.0391
 8535TIP3    H147096   1.285   4.022   1.696  0.2030  0.5720 -0.1144
 8535TIP3    H247097   1.309   4.170   1.708  0.1845  0.5591  0.0804
 8536TIP3   OH247098   5.333   6.001   4.915  0.0628  0.4866 -0.1876
 8536TIP3    H147099   5.330   6.006   5.010  0.3311  2.0118 -0.2428
 8536TIP3    H247100   5.420   6.034   4.892 -0.2738  0.8406 -0.9873
 8537TIP3   OH247101   1.179   2.210  13.565 -0.1665  0.3079  0.0849
 8537TIP3    H147102   1.193   2.301  13.537  0.1528  0.5952  1.1454
 8537TIP3    H247103   1.224   2.158  13.499 -0.2136  0.9303 -0.4450
 8538TIP3   OH247104   3.997   4.149  11.709 -0.2670  0.3295  0.2540
 8538TIP3    H147105   4.046   4.212  11.761 -2.1287  1.5587  0.5628
 8538TIP3    H247106   4.057   4.124  11.639  0.6803  2.0856  0.4104
 8539TIP3   OH247107   2.791   6.593   5.906  0.4741  0.1667  0.4484
 8539TIP3    H147108   2.823   6.583   5.996  4.2528  2.6597 -0.4987
 8539TIP3    H247109   2.842   6.529   5.855 -1.4016 -0.9957 -0.0124
 8540TIP3   OH247110   4.600   6.804   4.707  0.5561 -0.2789 -0.4084
 8540TIP3    H147111   4.609   6.895   4.681 -0.0647 -0.8003 -2.5345
 8540TIP3    H247112   4.683   6.763   4.680  1.2347 -0.1727  1.4161
 8541TIP3   OH247113   4.606   0.740   1.067  0.6440  0.2855 -0.1068
 8541TIP3    H147114   4.557   0.738   0.985 -0.6192 -1.6130  0.6472
 8541TIP3    H247115   4.671   0.671   1.058 -0.8629 -1.3571  1.2643
 8542TIP3   OH247116   4.893   4.532  11.880 -0.0627  0.2798 -0.1335
 8542TIP3    H147117   4.913   4.621  11.907 -1.2979  0.8293 -0.9984
 8542TIP3    H247118   4.970   4.504  11.832  0.2463  0.9452 -0.0310
 8543TIP3   OH247119   1.859   1.486   2.530  0.6337  0.8474  0.4633
 8543TIP3    H147120   1.836   1.549   2.598  0.2058  0.8269  0.3386
 8543TIP3    H247121   1.778   1.439   2.512  1.2600 -0.7438  1.5742
 8544TIP3   OH247122   4.360   1.265  12.100 -0.3264 -0.8023 -0.1290
 8544TIP3    H147123   4.330   1.204  12.032 -0.3198  0.2861 -1.1308
 8544TIP3    H247124   4.402   1.336  12.051 -1.0043  0.3721  0.9709
 8545TIP3   OH247125   5.732   2.431  11.721  0.0523 -0.3497  0.5615
 8545TIP3    H147126   5.802   2.378  11.760 -0.0014  1.0601  2.6360
 8545TIP3    H247127   5.775   2.512  11.694 -0.4097 -0.2852  0.0015
 8546TIP3   OH247128   3.674   3.323  13.339 -0.2314  0.3196  0.3180
 8546TIP3    H147129   3.665   3.249  13.279  0.2822  0.2346  0.3343
 8546TIP3    H247130   3.769   3.331  13.351 -0.3572 -0.1959  1.7606
 8547TIP3   OH247131   5.701   6.728  11.216 -0.6836 -0.0571  0.2121
 8547TIP3    H147132   5.662   6.737  11.129 -0.0001 -0.7565 -0.1650
 8547TIP3    H247133   5.745   6.811  11.231  0.8866 -0.6586 -0.9479
 8548TIP3   OH247134   1.821   4.825   5.604 -0.0618  0.3069 -0.7834
 8548TIP3    H147135   1.772   4.895   5.562  1.0572  0.4863 -1.8399
 8548TIP3    H247136   1.899   4.815   5.549  1.6712  0.8476  1.5135
 8549TIP3   OH247137   0.242   0.693  11.465 -0.1494  0.2387 -0.0320
 8549TIP3    H147138   0.322   0.679  11.415 -0.8451 -0.2427 -1.0286
 8549TIP3    H247139   0.212   0.780  11.438  0.3644  0.6975  0.8260
 8550TIP3   OH247140   3.781   6.667  14.215  0.2522  0.1604  0.1715
 8550TIP3    H147141   3.731   6.733  14.167 -0.2889 -1.1694 -1.1663
 8550TIP3    H247142   3.872   6.681  14.188 -0.1666 -1.2971 -2.2574
 8551TIP3   OH247143   4.699   2.547   3.185  0.4609  0.4217  0.0879
 8551TIP3    H147144   4.723   2.613   3.250 -1.9345 -0.1901  1.6551
 8551TIP3    H247145   4.638   2.592   3.127 -2.9639 -0.9089  2.4735
 8552TIP3   OH247146   5.910   3.037  15.779 -0.5598  0.0065  0.0097
 8552TIP3    H147147   5.969   3.016  15.707 -0.0792 -0.6201  0.5709
 8552TIP3    H247148   5.924   3.130  15.797 -0.6773  0.1598 -0.6925
 8553TIP3   OH247149   5.683   3.172  13.333 -0.1272 -0.0272  0.2076
 8553TIP3    H147150   5.688   3.100  13.397 -0.6547  0.5166  0.8759
 8553TIP3    H247151   5.602   3.218  13.357 -1.3064 -0.8808 -1.9824
 8554TIP3   OH247152   2.744   2.853  10.820 -0.2105  0.1222 -0.1770
 8554TIP3    H147153   2.747   2.786  10.751  1.1678 -0.4703  0.4333
 8554TIP3    H247154   2.768   2.934  10.775 -0.7763  0.0053 -0.6975
 8555TIP3   OH247155   5.363   4.925   4.314  0.2581 -0.4965 -0.3997
 8555TIP3    H147156   5.383   4.846   4.365  0.5376  0.8538  1.6386
 8555TIP3    H247157   5.441   4.937   4.259  1.4287 -0.0771  1.3120
 8556TIP3   OH247158   1.375   4.161  16.628  0.2594 -0.1198  0.4616
 8556TIP3    H147159   1.368   4.235  16.688 -1.8431  0.8486 -0.9214
 8556TIP3    H247160   1.469   4.155  16.610  0.4083  2.8593 -0.1428
 8557TIP3   OH247161   0.100   6.500   2.865 -0.2402 -0.1382 -0.1151
 8557TIP3    H147162   0.080   6.579   2.914 -1.5458  0.4679 -1.5786
 8557TIP3    H247163   0.141   6.531   2.784 -0.9438 -0.9161 -0.7896
 8558TIP3   OH247164   4.654   0.561  17.228  0.1068 -0.1801 -0.3354
 8558TIP3    H147165   4.583   0.567  17.164  0.5455 -1.1085 -0.9204
 8558TIP3    H247166   4.651   0.644  17.276 -3.1058 -1.2872  1.4814
 8559TIP3   OH247167   0.336   6.160   0.469  0.1075  0.0388  0.1075
 8559TIP3    H147168   0.383   6.134   0.390 -0.4493 -1.5407  0.2862
 8559TIP3    H247169   0.344   6.256   0.472 -0.1097  0.1304 -2.0062
 8560TIP3   OH247170   3.561   3.621   4.036  0.4939  0.6423 -0.6867
 8560TIP3    H147171   3.474   3.628   3.997  1.5512  1.0868 -3.0667
 8560TIP3    H247172   3.549   3.565   4.112 -2.1394  1.9059 -0.1140
 8561TIP3   OH247173   0.358   3.862  11.226  0.2426  0.3853 -0.0948
 8561TIP3    H147174   0.382   3.783  11.179 -0.1242  0.5716 -0.6000
 8561TIP3    H247175   0.421   3.867  11.298  0.2674 -0.3596 -0.0611
 8562TIP3   OH247176   3.874   3.508   2.758  0.4936 -0.0946 -0.2209
 8562TIP3    H147177   3.805   3.560   2.799  0.2387  0.5430 -1.4162
 8562TIP3    H247178   3.956   3.548   2.788  0.3210 -0.0218  0.1535
 8563TIP3   OH247179   2.446   4.408  15.446  0.1664 -0.6739  0.4967
 8563TIP3    H147180   2.502   4.342  15.404 -0.2652 -0.2186 -0.8247
 8563TIP3    H247181   2.357   4.377  15.431 -0.0295  0.0858  0.0565
 8564TIP3   OH247182   3.937   4.199  16.805 -0.2164  0.2963 -0.4697
 8564TIP3    H147183   3.997   4.233  16.738 -2.0601 -0.4625 -2.5476
 8564TIP3    H247184   3.962   4.107  16.815 -0.7372  0.0865 -1.0414
 8565TIP3   OH247185   6.451   1.890  16.365  0.2675 -0.0038 -0.1021
 8565TIP3    H147186   6.437   1.980  16.392 -0.3787 -0.3077  0.6043
 8565TIP3    H247187   6.485   1.846  16.444  3.4559  0.2774 -1.2346
 8566TIP3   OH247188   2.068   3.443   1.261 -0.0727  0.1501 -0.3352
 8566TIP3    H147189   2.138   3.436   1.327  0.1352  2.4803 -0.2421
 8566TIP3    H247190   2.100   3.393   1.187  0.3260 -1.3531  0.8339
 8567TIP3   OH247191   3.174   4.302  14.908 -0.6624 -0.0867 -0.2134
 8567TIP3    H147192   3.163   4.207  14.910 -0.2658 -0.1141  2.5985
 8567TIP3    H247193   3.159   4.330  14.998 -1.9239  2.6649 -1.2184
 8568TIP3   OH247194   3.108   5.608  11.490  0.2612  0.0136 -0.6571
 8568TIP3    H147195   3.171   5.541  11.463 -0.0420 -0.6191  0.1469
 8568TIP3    H247196   3.026   5.560  11.503  0.1959  0.4230  0.5395
 8569TIP3   OH247197   2.992   0.766   5.161  0.2609  0.0166 -0.1680
 8569TIP3    H147198   2.908   0.803   5.135  0.1925  0.6147  0.8727
 8569TIP3    H247199   3.021   0.717   5.084 -1.8958 -1.7309  0.0686
 8570TIP3   OH247200   1.718   1.373  17.146 -0.1296 -0.2367  0.3364
 8570TIP3    H147201   1.720   1.448  17.206 -1.0587  0.0776 -0.0070
 8570TIP3    H247202   1.642   1.390  17.090  0.6267 -0.6066 -0.8276
 8571TIP3   OH247203   1.169   0.899  14.567 -0.2376  0.2063  0.0707
 8571TIP3    H147204   1.223   0.942  14.633 -0.0721 -0.0461  0.0977
 8571TIP3    H247205   1.187   0.946  14.486 -0.5008  0.5687  0.2229
 8572TIP3   OH247206   6.186   4.223   4.800 -0.1172 -0.6327 -0.0309
 8572TIP3    H147207   6.221   4.312   4.799  0.1967 -0.7246  1.4316
 8572TIP3    H247208   6.262   4.168   4.823 -0.7060 -1.0649  0.9357
 8573TIP3   OH247209   3.784   5.363   3.002  0.1993  0.0679  0.0121
 8573TIP3    H147210   3.829   5.320   3.074  1.0236  0.0303 -0.5198
 8573TIP3    H247211   3.800   5.307   2.926 -1.2300 -0.2463 -0.0744
 8574TIP3   OH247212   2.967   3.270   5.530  0.2099 -0.5278 -0.4004
 8574TIP3    H147213   3.044   3.306   5.486 -0.7513  0.9213 -0.9482
 8574TIP3    H247214   2.943   3.194   5.477  1.0230 -0.7538 -0.4512
 8575TIP3   OH247215   3.288   4.634   5.979 -0.3905  0.1243 -0.2438
 8575TIP3    H147216   3.206   4.679   5.961 -1.5757 -2.0040 -0.3214
 8575TIP3    H247217   3.318   4.603   5.893 -1.2850 -2.0266  0.1810
 8576TIP3   OH247218   2.092   0.181   2.176  0.3185  0.0926 -0.4430
 8576TIP3    H147219   2.168   0.232   2.203 -0.2156 -0.1433  1.5966
 8576TIP3    H247220   2.119   0.090   2.187 -0.0193 -0.0038 -0.4086
 8577TIP3   OH247221   4.030   1.171   3.029 -0.1176  0.3116  0.7328
 8577TIP3    H147222   3.951   1.142   3.074 -0.0605  0.1357  0.7179
 8577TIP3    H247223   3.997   1.212   2.948 -0.2295  0.7923  1.0180
 8578TIP3   OH247224   6.470   6.773  11.405  0.5662 -0.0467  0.3711
 8578TIP3    H147225   6.388   6.727  11.388  0.5709 -0.6720  1.9545
 8578TIP3    H247226   6.539   6.714  11.374  0.4139  0.8869 -1.8521
 8579TIP3   OH247227   4.479   4.151   5.067  0.0054  0.0358  0.5027
 8579TIP3    H147228   4.460   4.134   4.975 -0.0397 -0.6647  0.6438
 8579TIP3    H247229   4.508   4.067   5.102 -0.1035  0.2708  1.1596
 8580TIP3   OH247230   0.696   2.695   1.726 -0.6285  0.0981 -0.0334
 8580TIP3    H147231   0.694   2.640   1.648 -1.1312  0.1479 -0.0587
 8580TIP3    H247232   0.766   2.658   1.780 -0.1587  0.1690 -0.5805
 8581TIP3   OH247233   6.801   0.545   3.935 -0.1762 -0.5028  0.2614
 8581TIP3    H147234   6.873   0.594   3.895  1.1503 -1.2451  1.6898
 8581TIP3    H247235   6.747   0.613   3.977 -0.0056 -0.0051 -0.3084
 8582TIP3   OH247236   0.694   1.253  11.909  0.2864  0.0042  0.1412
 8582TIP3    H147237   0.761   1.215  11.851  2.5314  0.5865  2.2839
 8582TIP3    H247238   0.686   1.190  11.981  0.5277  1.2618  1.2732
 8583TIP3   OH247239   4.207   3.651   4.358 -0.0305 -0.3020 -0.0558
 8583TIP3    H147240   4.186   3.559   4.378  3.0473 -0.7896  1.2391
 8583TIP3    H247241   4.295   3.647   4.321  0.2999  2.1874  0.3982
 8584TIP3   OH247242   5.507   1.837  15.240  0.0768 -0.1869  0.1390
 8584TIP3    H147243   5.473   1.865  15.324 -0.4139 -0.0503 -0.1050
 8584TIP3    H247244   5.598   1.867  15.240  0.1281 -0.3439  0.6899
 8585TIP3   OH247245   6.059   3.019   2.996  0.3741 -0.7225  0.2386
 8585TIP3    H147246   5.987   3.043   2.938 -0.2044  1.9934  1.9901
 8585TIP3    H247247   6.033   2.935   3.033 -0.2042 -1.4809 -1.8133
 8586TIP3   OH247248   1.911   5.500  17.177  0.0681 -0.0059  0.0406
 8586TIP3    H147249   1.921   5.574  17.116 -0.2023 -0.0049 -0.0040
 8586TIP3    H247250   1.822   5.509  17.211 -0.1023 -0.5432 -0.2637
 8587TIP3   OH247251   3.851   2.867  16.387  0.0218  0.0551 -0.3069
 8587TIP3    H147252   3.881   2.810  16.317  2.6804 -2.0193  2.3810
 8587TIP3    H247253   3.888   2.953  16.366  0.0091 -0.3179 -1.8990
 8588TIP3   OH247254   1.570   3.369   1.785  0.3248 -0.0853 -0.0152
 8588TIP3    H147255   1.607   3.457   1.787 -1.4551  0.6737  0.9199
 8588TIP3    H247256   1.608   3.325   1.861  0.0251  0.4043  0.4261
 8589TIP3   OH247257   1.186   2.189  14.394 -0.5172  0.0385  0.1751
 8589TIP3    H147258   1.275   2.202  14.360 -0.6480  0.8103  0.1258
 8589TIP3    H247259   1.199   2.168  14.487 -0.1798 -1.7615 -0.2466
 8590TIP3   OH247260   1.914   3.649   1.180 -0.2055  0.0348 -0.0888
 8590TIP3    H147261   1.965   3.583   1.227  0.1119  0.2083 -0.1864
 8590TIP3    H247262   1.968   3.728   1.185  0.5809 -0.3350 -2.0892
 8591TIP3   OH247263   2.063   4.486   1.684  0.5369  0.4399 -0.3819
 8591TIP3    H147264   1.991   4.481   1.622  0.1215  1.7406 -0.0172
 8591TIP3    H247265   2.030   4.542   1.755  1.4382 -0.0150  0.4158
 8592TIP3   OH247266   2.523   0.521   3.517  0.1802 -0.2162  0.3995
 8592TIP3    H147267   2.577   0.467   3.573 -0.6505  0.8146  2.2532
 8592TIP3    H247268   2.447   0.466   3.495  1.0671 -1.0234 -0.7110
 8593TIP3   OH247269   1.966   3.223  12.835 -0.3800  0.7330  0.6757
 8593TIP3    H147270   1.959   3.138  12.792 -0.3777  0.9268  0.2874
 8593TIP3    H247271   1.910   3.217  12.912  1.7334 -0.5669  2.1747
 8594TIP3   OH247272   4.655   2.775   2.556 -0.5393 -0.2767 -0.1043
 8594TIP3    H147273   4.666   2.738   2.468 -3.1473  1.6908 -1.3057
 8594TIP3    H247274   4.740   2.815   2.576  0.1572 -0.9592 -1.6098
 8595TIP3   OH247275   4.649   3.534   6.019 -0.3291 -0.3782  0.3746
 8595TIP3    H147276   4.618   3.485   6.094 -0.5043 -4.4242 -2.1853
 8595TIP3    H247277   4.674   3.467   5.955 -0.2987  2.8851 -3.2252
 8596TIP3   OH247278   4.061   1.603  14.286 -0.0097 -0.0073  0.6100
 8596TIP3    H147279   3.970   1.612  14.314 -1.2868 -2.6490 -2.4479
 8596TIP3    H247280   4.073   1.674  14.222 -1.2333 -2.1022 -2.0231
 8597TIP3   OH247281   5.031   2.194  13.504  0.3841  0.0382 -0.4181
 8597TIP3    H147282   5.006   2.137  13.576  1.0060  2.1878  1.5645
 8597TIP3    H247283   4.952   2.204  13.452 -0.4966 -0.2472  0.8579
 8598TIP3   OH247284   3.702   4.457  16.128 -0.3489  0.3824  0.1485
 8598TIP3    H147285   3.661   4.542  16.147  2.1211  1.5453  0.5064
 8598TIP3    H247286   3.694   4.447  16.033  0.7696  1.8068 -0.1197
 8599TIP3   OH247287   3.409   4.812  12.665  0.2314 -0.6333  0.3503
 8599TIP3    H147288   3.361   4.879  12.714 -0.8188 -1.6635  0.7641
 8599TIP3    H247289   3.343   4.775  12.605  1.0420 -0.6313 -0.5532
 8600TIP3   OH247290   6.630   0.780   5.141  0.5596 -0.3074  0.6416
 8600TIP3    H147291   6.686   0.735   5.078 -2.3057 -1.5089 -1.1614
 8600TIP3    H247292   6.601   0.859   5.096  0.6925  0.2474  1.5177
 8601TIP3   OH247293   6.494   0.044   4.709 -0.1108 -0.8107  0.2723
 8601TIP3    H147294   6.401   0.025   4.726  0.1991 -0.4846  2.4869
 8601TIP3    H247295   6.495   0.138   4.687 -0.3408 -0.8575  0.0600
 8602TIP3   OH247296   4.715   1.875   1.440  0.2968  0.0518  0.1625
 8602TIP3    H147297   4.728   1.900   1.532  0.6355 -0.1082  0.1615
 8602TIP3    H247298   4.791   1.913   1.394  0.0570  0.2466 -0.0728
 8603TIP3   OH247299   3.667   1.017  16.288 -0.3217 -0.5644  0.0785
 8603TIP3    H147300   3.583   1.013  16.334 -0.6904 -2.1920 -0.6947
 8603TIP3    H247301   3.727   1.055  16.352 -1.7428  1.1428  0.4618
 8604TIP3   OH247302   5.778   3.283  12.241 -0.2849  0.6363 -0.8178
 8604TIP3    H147303   5.783   3.327  12.326  1.5792  1.0545 -1.1192
 8604TIP3    H247304   5.798   3.191  12.261 -1.5857  0.3998 -0.5644
 8605TIP3   OH247305   4.024   4.928  15.854  0.2049  0.0153 -0.6195
 8605TIP3    H147306   3.941   4.976  15.851 -0.1610 -0.6363 -0.9682
 8605TIP3    H247307   4.058   4.945  15.941 -0.3260  0.2438 -0.4530
 8606TIP3   OH247308   5.478   6.673   0.631 -0.5392  0.4652  0.5180
 8606TIP3    H147309   5.557   6.674   0.684 -0.2622  0.7127  0.0999
 8606TIP3    H247310   5.433   6.755   0.654 -1.3159 -0.2766  1.7125
 8607TIP3   OH247311   0.764   6.246  16.683  0.6697 -0.1074 -0.3039
 8607TIP3    H147312   0.708   6.264  16.608  1.1967  1.9762 -0.2338
 8607TIP3    H247313   0.748   6.319  16.743 -0.0005 -1.9050  1.7824
 8608TIP3   OH247314   4.902   3.414   0.438 -0.7702 -0.0637 -0.2843
 8608TIP3    H147315   4.817   3.370   0.447 -0.2917 -1.1731 -1.1179
 8608TIP3    H247316   4.956   3.376   0.508 -0.4975 -0.4984 -0.7212
 8609TIP3   OH247317   1.492   5.980  15.654 -0.3919 -0.0536 -0.0010
 8609TIP3    H147318   1.432   5.953  15.584  0.2416 -2.8226  0.5036
 8609TIP3    H247319   1.558   5.912  15.658  0.9534  1.2955  1.7046
 8610TIP3   OH247320   6.725   3.255  16.669 -0.2193 -0.0993 -0.6570
 8610TIP3    H147321   6.757   3.313  16.737 -2.8520  1.9573 -1.0863
 8610TIP3    H247322   6.793   3.188  16.660  0.1644 -0.4589  3.9763
 8611TIP3   OH247323   1.785   3.294  10.925  0.0291  0.2924 -0.4830
 8611TIP3    H147324   1.791   3.273  10.832  0.4340  0.5617 -0.5195
 8611TIP3    H247325   1.744   3.381  10.927 -0.6212 -0.0176 -0.3810
 8612TIP3   OH247326   0.317   4.440  15.699 -0.0957  0.2566  0.1800
 8612TIP3    H147327   0.345   4.525  15.733 -0.5338  0.5554 -0.1782
 8612TIP3    H247328   0.285   4.460  15.611  1.5384 -0.5852 -0.6264
 8613TIP3   OH247329   0.140   1.877  15.001 -0.3423  0.0933 -0.7448
 8613TIP3    H147330   0.051   1.845  14.987 -0.9763  1.4805  0.0383
 8613TIP3    H247331   0.173   1.827  15.076 -1.4867  1.5260  0.7537
 8614TIP3   OH247332   1.321   5.491  10.609 -0.2392 -0.3717 -0.4315
 8614TIP3    H147333   1.374   5.571  10.604  2.1264 -1.9670 -1.4696
 8614TIP3    H247334   1.237   5.521  10.644  0.5710  2.5824 -0.8597
 8615TIP3   OH247335   3.189   0.374   1.057 -0.3335  0.1963  0.4204
 8615TIP3    H147336   3.191   0.331   0.971 -1.4696  0.9688 -0.0105
 8615TIP3    H247337   3.207   0.466   1.039 -0.9800  0.4326  0.9517
 8616TIP3   OH247338   5.188   5.130  17.259 -0.1429  0.3319 -0.1054
 8616TIP3    H147339   5.180   5.098  17.169 -2.0278 -2.7722  1.0985
 8616TIP3    H247340   5.105   5.106  17.300  0.9594  1.0987  2.6646
 8617TIP3   OH247341   4.096   6.316  14.152  0.5303 -0.2272  0.2855
 8617TIP3    H147342   4.172   6.273  14.112  1.5586 -0.5085  2.4837
 8617TIP3    H247343   4.100   6.290  14.244 -2.3569 -0.3986  0.3976
 8618TIP3   OH247344   3.252   3.014   0.735  0.2778 -0.1719 -0.2493
 8618TIP3    H147345   3.309   2.974   0.670 -0.1360  1.0333 -1.3782
 8618TIP3    H247346   3.289   3.101   0.749 -0.7382  0.2730 -0.2896
 8619TIP3   OH247347   3.001   6.430  14.322  0.6653  0.7321 -0.3235
 8619TIP3    H147348   3.038   6.492  14.386 -0.8792 -0.8456  2.1907
 8619TIP3    H247349   3.078   6.385  14.287  1.4314 -0.2901  2.4815
 8620TIP3   OH247350   2.013   5.906   5.178  0.7439 -0.2498 -0.4811
 8620TIP3    H147351   2.060   5.835   5.223  1.9084  0.6296 -0.2938
 8620TIP3    H247352   2.049   5.908   5.090  0.0349 -0.5056 -0.7834
 8621TIP3   OH247353   4.573   6.423  10.982  0.0151  0.4090  0.6227
 8621TIP3    H147354   4.593   6.332  10.961 -1.3777  0.1807  0.2777
 8621TIP3    H247355   4.618   6.438  11.065  2.5993  0.2741 -0.6974
 8622TIP3   OH247356   2.888   5.063  11.567  0.2550 -0.0161  0.1365
 8622TIP3    H147357   2.927   5.128  11.625  1.3435 -0.6487  0.1273
 8622TIP3    H247358   2.959   5.002  11.549 -0.8766 -1.4614  0.5033
 8623TIP3   OH247359   4.613   3.675   1.330  0.0589 -0.0419 -0.4988
 8623TIP3    H147360   4.703   3.707   1.321  0.9183 -2.7184 -1.8926
 8623TIP3    H247361   4.575   3.685   1.243 -1.0212  1.0740  0.0828
 8624TIP3   OH247362   3.856   1.004   3.696 -0.1257  0.3126  0.1042
 8624TIP3    H147363   3.784   0.993   3.758 -0.2300  0.9028  0.0884
 8624TIP3    H247364   3.928   0.954   3.735 -1.6187 -3.4350 -1.7174
 8625TIP3   OH247365   1.951   0.334   5.395  0.5861  0.9685  0.0783
 8625TIP3    H147366   1.912   0.301   5.476 -0.4747  0.7066 -0.5309
 8625TIP3    H247367   1.985   0.255   5.352 -0.5478  0.8665 -0.6315
 8626TIP3   OH247368   2.942   0.706  10.756 -0.8723  0.7955 -0.1885
 8626TIP3    H147369   2.912   0.665  10.837  0.5624  1.7128  0.8464
 8626TIP3    H247370   3.036   0.687  10.753 -0.5125  2.5037 -0.5803
 8627TIP3   OH247371   6.153   2.620   0.577  0.5515 -0.2175  0.1256
 8627TIP3    H147372   6.128   2.527   0.580  1.0753 -0.3236  2.2781
 8627TIP3    H247373   6.229   2.626   0.635  1.3696  1.3213 -1.0731
 8628TIP3   OH247374   5.278   2.039   0.599  0.2929  0.1166 -1.1155
 8628TIP3    H147375   5.211   2.100   0.567 -1.1334 -0.7897  0.0774
 8628TIP3    H247376   5.352   2.095   0.621 -0.5235  1.2786 -1.2481
 8629TIP3   OH247377   1.111   2.861  15.072  0.7138 -0.4577  0.9746
 8629TIP3    H147378   1.099   2.951  15.044 -0.0450 -1.4835 -2.1520
 8629TIP3    H247379   1.061   2.855  15.154 -0.6338  1.5104  0.3339
 8630TIP3   OH247380   2.937   2.373  13.374  0.1956 -0.3257 -0.3134
 8630TIP3    H147381   3.001   2.318  13.420  1.2514 -0.2041 -1.6089
 8630TIP3    H247382   2.857   2.320  13.372  0.1370 -0.3620  1.5873
 8631TIP3   OH247383   4.078   1.645  15.802  0.5976 -0.1776  0.0010
 8631TIP3    H147384   4.153   1.652  15.743  0.5702 -0.2590 -0.0433
 8631TIP3    H247385   4.045   1.556  15.788 -0.0882  0.1758 -0.6827
 8632TIP3   OH247386   0.213   6.722  11.415 -0.1366  0.7135  0.7215
 8632TIP3    H147387   0.219   6.633  11.450  1.7487  0.7193  0.4392
 8632TIP3    H247388   0.171   6.711  11.330  0.0587  0.0979  0.7057
 8633TIP3   OH247389   0.958   6.024  16.772  0.7938  0.0265  0.4354
 8633TIP3    H147390   0.900   6.085  16.727  1.1581  0.1629  0.1411
 8633TIP3    H247391   0.931   6.028  16.864  0.1200 -0.1669  0.2515
 8634TIP3   OH247392   1.526   6.076  10.683  0.5897  0.2310 -0.3794
 8634TIP3    H147393   1.570   6.014  10.625  0.7433  1.1984 -1.3119
 8634TIP3    H247394   1.551   6.162  10.650 -0.8323  0.7976 -0.0323
 8635TIP3   OH247395   1.061   6.796  15.052  0.4318  0.1130 -0.5568
 8635TIP3    H147396   1.146   6.752  15.049  0.1569 -0.6200  1.8539
 8635TIP3    H247397   1.027   6.787  14.963  1.1956 -2.9337 -0.5859
 8636TIP3   OH247398   2.163   6.063  16.267 -0.2235  0.8731  0.4576
 8636TIP3    H147399   2.219   5.993  16.232 -0.3671  0.3561  1.2390
 8636TIP3    H247400   2.084   6.017  16.296  0.3466  1.1367  2.4575
 8637TIP3   OH247401   5.658   0.458  15.288  0.2328  0.3651 -0.1700
 8637TIP3    H147402   5.612   0.382  15.324  0.5437  0.4741  0.4575
 8637TIP3    H247403   5.733   0.421  15.241  0.8642  0.3279  0.8516
 8638TIP3   OH247404   2.604   5.348  10.977 -0.1231 -0.3205 -0.4961
 8638TIP3    H147405   2.643   5.261  10.988  0.3154 -0.0108  0.5258
 8638TIP3    H247406   2.620   5.391  11.061  1.5342  1.4799 -1.6922
 8639TIP3   OH247407   6.236   5.163  15.378 -0.4438  0.3347  0.1365
 8639TIP3    H147408   6.315   5.137  15.331  1.2660  1.5643  2.2340
 8639TIP3    H247409   6.208   5.083  15.424  1.9604  0.8426  2.6241
 8640TIP3   OH247410   3.602   1.011   2.555  0.0162  0.2008 -0.7106
 8640TIP3    H147411   3.668   1.080   2.547  1.0850 -0.5913  1.0510
 8640TIP3    H247412   3.524   1.048   2.515  1.0757  1.7481 -1.4120
 8641TIP3   OH247413   2.993   5.375   5.085 -0.3268  0.3004 -0.1311
 8641TIP3    H147414   2.921   5.401   5.028  0.2168  0.2640 -0.8409
 8641TIP3    H247415   3.036   5.457   5.109  2.0915  0.0705 -3.2973
 8642TIP3   OH247416   6.700   5.707  14.144 -0.0256  0.5440 -0.2092
 8642TIP3    H147417   6.696   5.795  14.106  0.6217  1.0622  0.8849
 8642TIP3    H247418   6.756   5.717  14.221  1.0064 -1.0695 -0.7323
 8643TIP3   OH247419   2.316   6.171   1.370  0.3192  0.2087 -0.1925
 8643TIP3    H147420   2.300   6.154   1.463  2.2858  0.3731  0.1995
 8643TIP3    H247421   2.330   6.265   1.364 -1.4921  0.4496 -0.9418
 8644TIP3   OH247422   1.503   2.552   5.131  0.2973  0.3456 -0.2908
 8644TIP3    H147423   1.467   2.639   5.149 -1.4856 -0.8075  1.9533
 8644TIP3    H247424   1.454   2.521   5.055  0.2647  0.9253 -0.5088
 8645TIP3   OH247425   0.154   1.289  13.002  0.5190  0.0374  0.1942
 8645TIP3    H147426   0.169   1.309  12.910  0.6904  0.0481  0.2261
 8645TIP3    H247427   0.226   1.331  13.048 -0.5900  1.6371  0.5143
 8646TIP3   OH247428   4.685   2.926  15.200 -0.7674 -0.0169  0.3223
 8646TIP3    H147429   4.630   2.850  15.179 -3.2021  1.8665 -0.3416
 8646TIP3    H247430   4.705   2.965  15.115 -0.5352  0.7567  0.7307
 8647TIP3   OH247431   5.010   6.037   0.881  0.8517  0.8807  0.6469
 8647TIP3    H147432   5.042   6.024   0.792  0.0584  0.8266  0.3644
 8647TIP3    H247433   4.967   6.122   0.879  0.3875  0.6519  0.8494
 8648TIP3   OH247434   2.100   6.745   5.806 -0.1611 -0.0547  0.3631
 8648TIP3    H147435   2.076   6.662   5.846  1.1452 -0.3359  0.5551
 8648TIP3    H247436   2.181   6.771   5.849  0.3123  0.5102 -0.8544
 8649TIP3   OH247437   1.169   3.916  11.599 -0.1126 -0.0027  0.1280
 8649TIP3    H147438   1.190   3.887  11.510  0.6665  2.0465 -0.3834
 8649TIP3    H247439   1.100   3.981  11.586 -0.2597  0.0312  1.0752
 8650TIP3   OH247440   2.105   5.774   3.642  0.4893 -0.0595 -0.5069
 8650TIP3    H147441   2.171   5.838   3.668 -0.7687  1.6106 -1.3688
 8650TIP3    H247442   2.125   5.697   3.695  1.7602  1.1778  0.8642
 8651TIP3   OH247443   5.684   5.870  14.927  0.5676  0.0310 -0.5162
 8651TIP3    H147444   5.612   5.818  14.892 -0.3596  0.1369  1.1580
 8651TIP3    H247445   5.715   5.819  15.002 -0.9049  2.2607  1.6723
 8652TIP3   OH247446   6.281   4.499   5.431 -0.5733  0.0824 -0.2292
 8652TIP3    H147447   6.196   4.460   5.410 -0.9790  1.0499 -0.3909
 8652TIP3    H247448   6.322   4.436   5.490 -1.5230 -0.2508  0.0860
 8653TIP3   OH247449   5.520   0.636   1.773  0.5709  0.4634  0.8634
 8653TIP3    H147450   5.552   0.631   1.683 -2.5819 -0.2854 -0.2980
 8653TIP3    H247451   5.541   0.725   1.802  0.8755  0.9862 -0.9229
 8654TIP3   OH247452   2.010   1.819   3.091  0.3377 -0.2666  0.1108
 8654TIP3    H147453   2.053   1.855   3.013 -1.7352  2.1290  0.0292
 8654TIP3    H247454   2.052   1.734   3.103  3.8385  1.2013 -0.9919
 8655TIP3   OH247455   4.529   4.785  11.360  0.4238  0.1498  0.0186
 8655TIP3    H147456   4.528   4.881  11.358 -3.0009  0.2384  2.3681
 8655TIP3    H247457   4.562   4.763  11.447  0.8896 -0.8192 -0.3960
 8656TIP3   OH247458   0.004   2.832   0.695  0.0117 -0.6972  0.7113
 8656TIP3    H147459  -0.048   2.879   0.760 -0.3180  1.1041 -0.8212
 8656TIP3    H247460  -0.002   2.740   0.721 -1.9642 -0.2473  1.9331
 8657TIP3   OH247461   1.432   6.212  11.537 -0.3028  0.0476  0.1775
 8657TIP3    H147462   1.379   6.136  11.516 -0.6763  0.1811  0.6333
 8657TIP3    H247463   1.414   6.230  11.629 -1.6081  1.7870 -0.3900
 8658TIP3   OH247464   3.613   1.015  14.462 -0.5422 -0.3096  1.1477
 8658TIP3    H147465   3.627   0.924  14.434 -1.0202 -0.0864  0.1978
 8658TIP3    H247466   3.688   1.063  14.426 -1.1786 -0.0150  0.2261
 8659TIP3   OH247467   1.241   5.390   4.657  0.1892  0.1818 -0.1102
 8659TIP3    H147468   1.182   5.316   4.640  0.6658 -0.5408  1.2868
 8659TIP3    H247469   1.237   5.442   4.576 -0.9789 -0.7917 -0.7139
 8660TIP3   OH247470   5.506   5.247  10.735 -0.4833  0.2385 -0.2076
 8660TIP3    H147471   5.462   5.161  10.735 -1.2703  0.6358 -0.3938
 8660TIP3    H247472   5.543   5.255  10.648  0.3578 -0.3008  0.0990
 8661TIP3   OH247473   4.903   3.743   1.386 -0.5930 -0.0578 -0.3848
 8661TIP3    H147474   4.878   3.834   1.369 -0.6523 -0.2650 -1.4628
 8661TIP3    H247475   4.992   3.748   1.419 -0.4533  0.3684 -0.8139
 8662TIP3   OH247476   3.890   2.625  14.639 -0.1181  0.1040  0.1140
 8662TIP3    H147477   3.912   2.617  14.732 -1.0695  1.9894  0.5463
 8662TIP3    H247478   3.799   2.655  14.639 -0.6815 -1.5358 -1.4822
 8663TIP3   OH247479   3.433   1.908   5.744 -0.1243  0.2437 -0.0571
 8663TIP3    H147480   3.407   2.000   5.755  1.0072  0.6635 -0.8046
 8663TIP3    H247481   3.501   1.911   5.676 -1.4071 -1.3528 -1.4572
 8664TIP3   OH247482   4.538   4.057   0.641  0.2317  0.3745 -0.0453
 8664TIP3    H147483   4.597   4.108   0.586 -0.6619  1.6506  0.1337
 8664TIP3    H247484   4.499   4.122   0.701 -0.7310 -0.5626  0.3684
 8665TIP3   OH247485   3.364   2.587   1.260  0.3279  0.7318  0.0603
 8665TIP3    H147486   3.355   2.669   1.310 -0.6993  0.2435  0.6907
 8665TIP3    H247487   3.275   2.566   1.233  0.6006 -0.1587 -0.1579
 8666TIP3   OH247488   1.784   4.262   6.132  0.6599 -0.4622  0.0571
 8666TIP3    H147489   1.715   4.238   6.195  1.6173 -1.3918  0.7718
 8666TIP3    H247490   1.816   4.346   6.162 -0.3790  0.1289 -0.4645
 8667TIP3   OH247491   5.091   0.763  13.836  0.1600 -0.4104  0.6412
 8667TIP3    H147492   5.055   0.768  13.747  0.3183  1.2245  0.6579
 8667TIP3    H247493   5.165   0.823  13.835 -0.9373  1.0163  2.3849
 8668TIP3   OH247494   0.012   2.697   6.379  0.0760  0.0776 -0.7736
 8668TIP3    H147495  -0.038   2.767   6.422 -1.0579 -0.0972 -1.7928
 8668TIP3    H247496  -0.045   2.621   6.383  0.5525 -0.3089 -1.3220
 8669TIP3   OH247497   1.733   1.139  14.220  0.0075 -0.4518 -0.3605
 8669TIP3    H147498   1.761   1.204  14.284 -1.9738  0.3658 -0.2806
 8669TIP3    H247499   1.783   1.061  14.242 -0.3126 -0.0540  1.9321
 8670TIP3   OH247500   5.142   2.478  16.588 -0.2290 -0.0773 -0.3007
 8670TIP3    H147501   5.185   2.459  16.504 -0.2180 -1.3472 -0.0317
 8670TIP3    H247502   5.215   2.491  16.649 -0.2218  2.4559 -0.8031
 8671TIP3   OH247503   4.808   1.785   5.319 -0.3443  0.3556 -0.4062
 8671TIP3    H147504   4.893   1.818   5.346 -0.1950  0.0282 -0.4803
 8671TIP3    H247505   4.827   1.715   5.256 -0.6481 -0.2907  0.2105
 8672TIP3   OH247506   1.633   0.845   0.950 -0.2892  0.6064 -0.6671
 8672TIP3    H147507   1.592   0.900   1.017 -1.2010  0.7547 -1.3450
 8672TIP3    H247508   1.610   0.755   0.976  1.2247  0.5307  0.4556
 8673TIP3   OH247509   3.183   5.978   0.355  0.5344  0.6829  0.0793
 8673TIP3    H147510   3.123   5.957   0.426  1.0255  3.0457  1.2582
 8673TIP3    H247511   3.269   5.981   0.397  1.1599 -0.3789 -1.1237
 8674TIP3   OH247512   2.890   3.388   4.454  0.4195 -0.1547  0.2409
 8674TIP3    H147513   2.952   3.461   4.465  0.1987 -0.0171  0.6266
 8674TIP3    H247514   2.934   3.327   4.396  0.4678  0.4527 -0.3660
 8675TIP3   OH247515   0.835   1.745  15.655 -0.0441 -0.2754  0.0113
 8675TIP3    H147516   0.919   1.788  15.639 -1.2286  2.4486  0.8558
 8675TIP3    H247517   0.799   1.729  15.568 -0.1850  1.6779 -0.3040
 8676TIP3   OH247518   0.932   4.324   4.826  0.5639 -0.1176  0.5338
 8676TIP3    H147519   1.006   4.373   4.863  0.5010 -1.9705  3.1988
 8676TIP3    H247520   0.971   4.241   4.798 -0.1018 -0.1985 -0.1518
 8677TIP3   OH247521   1.955   0.952   6.229 -0.0458 -0.3035 -0.0880
 8677TIP3    H147522   1.995   0.964   6.315 -0.2939  0.3792 -0.0659
 8677TIP3    H247523   1.866   0.988   6.239  0.6613  1.8499 -1.2590
 8678TIP3   OH247524   4.924   1.198  16.487  0.2153  0.3870  0.4998
 8678TIP3    H147525   4.876   1.132  16.437 -1.7930  1.0161  1.5374
 8678TIP3    H247526   4.980   1.148  16.546  1.4204 -0.3594 -1.2225
 8679TIP3   OH247527   5.150   6.352   0.873  0.0530 -0.3251 -0.3949
 8679TIP3    H147528   5.088   6.336   0.802 -0.7207  1.4930 -0.1518
 8679TIP3    H247529   5.220   6.404   0.833 -0.9046  1.5974  0.4083
 8680TIP3   OH247530   5.290   1.454  15.044 -0.5942  0.0270  0.5997
 8680TIP3    H147531   5.368   1.399  15.046  0.0339  0.8353 -0.9057
 8680TIP3    H247532   5.217   1.392  15.033  0.0603 -0.5498 -0.5832
 8681TIP3   OH247533   0.580   6.462  11.920  0.4339  0.2485 -0.1789
 8681TIP3    H147534   0.639   6.388  11.929 -1.2219 -1.6148 -3.7416
 8681TIP3    H247535   0.586   6.487  11.828 -4.9277 -0.6450 -0.9781
 8682TIP3   OH247536   2.958   3.042   6.360 -0.0894  0.5880  0.6093
 8682TIP3    H147537   3.016   2.969   6.341 -0.0051  0.6275  0.7219
 8682TIP3    H247538   2.948   3.042   6.455 -0.8274  0.1475  0.5420
 8683TIP3   OH247539   3.641   5.373   5.979  0.1097  0.2536  0.3073
 8683TIP3    H147540   3.724   5.401   6.018 -0.1077  0.1811  0.8258
 8683TIP3    H247541   3.592   5.453   5.965  0.3879  0.3287 -0.2978
 8684TIP3   OH247542   5.311   6.254  10.887 -0.3754 -0.3035  0.2910
 8684TIP3    H147543   5.325   6.345  10.913 -1.3370 -0.1615  0.3431
 8684TIP3    H247544   5.216   6.247  10.876 -0.5780 -1.9558  2.7862
 8685TIP3   OH247545   3.414   3.946  12.448 -0.3177  0.1042  0.3274
 8685TIP3    H147546   3.340   3.998  12.415 -0.4874 -1.6339 -2.1305
 8685TIP3    H247547   3.375   3.887  12.512 -0.2480  2.3903  2.5669
 8686TIP3   OH247548   1.766   5.543  15.265  0.2629 -0.4578 -0.2668
 8686TIP3    H147549   1.746   5.617  15.208 -2.4836 -0.9859 -0.0324
 8686TIP3    H247550   1.779   5.582  15.351  1.9836  0.0693 -0.7404
 8687TIP3   OH247551   5.735   0.334  13.252  0.4479  0.1538  0.5096
 8687TIP3    H147552   5.800   0.358  13.186 -1.3644  3.1641 -0.2651
 8687TIP3    H247553   5.736   0.238  13.252  0.6367  0.0466 -3.7428
 8688TIP3   OH247554   3.494   4.273   4.508  0.1951 -0.2130 -0.3488
 8688TIP3    H147555   3.404   4.285   4.479  0.4999  1.2435 -0.7656
 8688TIP3    H247556   3.488   4.213   4.583 -1.2291  0.6267  0.2296
 8689TIP3   OH247557   3.639   6.502   2.811  0.1468 -0.1400 -0.4034
 8689TIP3    H147558   3.580   6.459   2.750  0.6226 -1.6288  0.1730
 8689TIP3    H247559   3.640   6.594   2.783 -2.6666 -0.0168 -0.2469
 8690TIP3   OH247560   2.853   4.245  11.127  0.5274 -0.4195 -0.3861
 8690TIP3    H147561   2.817   4.286  11.049  1.1079  0.8446 -0.0122
 8690TIP3    H247562   2.948   4.259  11.120  0.4178  1.5019  1.5134
 8691TIP3   OH247563   6.272   1.081  15.063  0.2367 -0.0423 -0.0668
 8691TIP3    H147564   6.323   1.010  15.103 -1.1703 -0.8206  0.3765
 8691TIP3    H247565   6.189   1.041  15.039 -0.5939  1.4690  0.2141
 8692TIP3   OH247566   4.401   1.735   4.851  0.2068  0.5131  0.3022
 8692TIP3    H147567   4.470   1.794   4.883  2.4717  0.1331 -3.4955
 8692TIP3    H247568   4.352   1.787   4.787 -1.8225  0.1756  1.5500
 8693TIP3   OH247569   1.284   2.122   1.047  0.5330  0.3876  0.1487
 8693TIP3    H147570   1.317   2.036   1.070 -0.6306  0.4739  2.2002
 8693TIP3    H247571   1.239   2.109   0.963 -0.9192 -1.3185  1.1648
 8694TIP3   OH247572   0.076   1.050   0.006  0.1616 -0.2753 -0.6122
 8694TIP3    H147573   0.097   1.041   0.098  0.6130  0.1682 -0.6714
 8694TIP3    H247574   0.159   1.070  -0.037  0.0535 -1.0271 -1.1953
 8695TIP3   OH247575   1.563   2.760  13.431  0.1625  0.4630 -0.5254
 8695TIP3    H147576   1.472   2.745  13.456 -0.4217  0.4215 -2.5899
 8695TIP3    H247577   1.595   2.825  13.494 -1.4416  0.8576 -0.0919
 8696TIP3   OH247578   5.379   3.959  15.586  0.5913  0.5619  0.0453
 8696TIP3    H147579   5.400   4.024  15.652  1.3662  0.5593 -0.1933
 8696TIP3    H247580   5.464   3.921  15.562  0.2443  0.1080 -0.4739
 8697TIP3   OH247581   3.884   0.126   0.802 -0.1002  0.5675 -0.6380
 8697TIP3    H147582   3.791   0.146   0.811 -0.1492  0.9707 -1.9409
 8697TIP3    H247583   3.926   0.211   0.787  0.3395  0.2700 -1.1292
 8698TIP3   OH247584   6.537   1.575   6.285 -0.1833  0.1472  0.1645
 8698TIP3    H147585   6.564   1.493   6.246  1.2919  0.4426  0.5500
 8698TIP3    H247586   6.480   1.550   6.357 -1.6344 -0.4470 -1.1483
 8699TIP3   OH247587   5.671   6.141   0.773 -0.9305 -0.3126  0.1644
 8699TIP3    H147588   5.578   6.134   0.793 -0.8242 -2.6951 -0.0505
 8699TIP3    H247589   5.688   6.070   0.711  0.9517  0.3419 -0.1130
 8700TIP3   OH247590   2.512   4.247  12.011 -0.3433 -0.3123 -0.0215
 8700TIP3    H147591   2.578   4.195  12.057 -0.0120  0.5491  0.4874
 8700TIP3    H247592   2.434   4.240  12.065 -0.4848 -0.7873 -0.2805
 8701TIP3   OH247593   1.652   5.297  15.206  0.3464  0.2371 -0.5424
 8701TIP3    H147594   1.717   5.363  15.231  0.2732  0.1340 -0.0763
 8701TIP3    H247595   1.569   5.332  15.237  0.1178  0.5663 -1.5188
 8702TIP3   OH247596   1.221   5.992  14.551  0.2702  0.2480  0.4249
 8702TIP3    H147597   1.193   5.949  14.632 -1.4729  0.5117 -0.0169
 8702TIP3    H247598   1.160   6.065  14.541  1.5000  1.1869 -0.2744
 8703TIP3   OH247599   1.826   6.725   0.658  0.5240  0.2314  0.5240
 8703TIP3    H147600   1.888   6.791   0.686  0.0896  0.2623  1.4463
 8703TIP3    H247601   1.768   6.712   0.734  0.0104 -0.4957  0.0255
 8704TIP3   OH247602   1.948   1.270   0.940  0.0574  0.4571 -0.0618
 8704TIP3    H147603   1.904   1.354   0.954 -0.9746 -0.1027  0.1325
 8704TIP3    H247604   2.041   1.293   0.931  0.2999  1.3063  3.5480
 8705TIP3   OH247605   2.211   5.569  15.968  0.4368  0.0822 -0.2177
 8705TIP3    H147606   2.209   5.539  15.877  1.2849 -2.0556  0.4176
 8705TIP3    H247607   2.181   5.493  16.018  0.2454  1.1476  1.3170
 8706TIP3   OH247608   2.790   4.895   4.632 -0.5173  0.0787  0.0554
 8706TIP3    H147609   2.726   4.966   4.645 -1.0747 -0.4513  0.2231
 8706TIP3    H247610   2.786   4.844   4.713 -0.6777 -0.5872 -0.3686
 8707TIP3   OH247611   1.724   2.090   5.109  0.2651 -0.7090 -0.1520
 8707TIP3    H147612   1.742   2.003   5.146  1.0845  0.0095  1.1721
 8707TIP3    H247613   1.802   2.110   5.057  0.5073 -0.3512  0.3456
 8708TIP3   OH247614   2.777   2.087   3.498  0.0407 -0.8402 -0.0783
 8708TIP3    H147615   2.791   2.122   3.410  2.6812 -1.5147  0.0154
 8708TIP3    H247616   2.740   2.160   3.548  1.1112  0.3889 -1.0579
 8709TIP3   OH247617   6.685   1.320   5.808 -0.1566 -0.2821  0.5310
 8709TIP3    H147618   6.614   1.374   5.843 -1.1230 -0.0627 -1.7092
 8709TIP3    H247619   6.674   1.235   5.850 -1.6565 -0.2039  0.3101
 8710TIP3   OH247620   6.717   3.036  13.503  0.2454 -0.2298  0.3066
 8710TIP3    H147621   6.713   2.947  13.538 -1.2683 -0.3251 -0.0696
 8710TIP3    H247622   6.730   3.024  13.409 -0.5817 -0.0774  0.1666
 8711TIP3   OH247623   6.230   4.687  14.935 -0.3457  0.3881  0.2341
 8711TIP3    H147624   6.194   4.749  14.872  2.1865  1.9141  0.2103
 8711TIP3    H247625   6.247   4.739  15.013  1.0354 -0.4374  0.5071
 8712TIP3   OH247626   1.243   3.407  15.663  0.3358  0.5058  0.4166
 8712TIP3    H147627   1.210   3.497  15.673  0.0370  0.5318 -0.7309
 8712TIP3    H247628   1.295   3.410  15.582  1.1247 -0.1315  0.8961
 8713TIP3   OH247629   2.049   2.034  14.583 -0.1155  0.2475 -0.1847
 8713TIP3    H147630   2.012   1.960  14.632 -1.1541  0.9018  0.0263
 8713TIP3    H247631   2.104   1.993  14.517  0.7623 -0.6742  1.0908
 8714TIP3   OH247632   0.495   0.232  14.876  0.1450  0.3461 -0.4516
 8714TIP3    H147633   0.449   0.214  14.794 -0.2172  0.8500 -0.3576
 8714TIP3    H247634   0.576   0.180  14.869 -0.3791 -0.4582 -0.6585
 8715TIP3   OH247635   6.164   2.381   3.745  0.4470 -0.8145  0.3213
 8715TIP3    H147636   6.139   2.312   3.806  1.7635 -1.4216  0.1822
 8715TIP3    H247637   6.217   2.441   3.797 -1.1333  0.3938  0.5805
 8716TIP3   OH247638   5.877   0.141  12.148  0.4785  0.4270 -0.1931
 8716TIP3    H147639   5.921   0.198  12.085 -0.0131  1.9523  0.8377
 8716TIP3    H247640   5.785   0.144  12.123  0.1531  1.7123  1.1005
 8717TIP3   OH247641   0.712   5.629   3.182 -0.1132  0.0734  0.7331
 8717TIP3    H147642   0.675   5.641   3.269 -0.4142 -2.2090  0.9335
 8717TIP3    H247643   0.803   5.605   3.197  0.4772  1.9202  0.3263
 8718TIP3   OH247644   1.520   3.610  11.935 -0.3251  0.0243 -0.7259
 8718TIP3    H147645   1.607   3.571  11.947  0.0147  0.6829 -1.0077
 8718TIP3    H247646   1.472   3.546  11.882  0.4919  0.3394 -1.8779
 8719TIP3   OH247647   1.291   4.859   0.191 -0.5342 -0.3052 -0.0083
 8719TIP3    H147648   1.348   4.937   0.193 -0.5389 -0.2497 -1.4635
 8719TIP3    H247649   1.204   4.893   0.214 -0.3196 -0.0792  0.4803
 8720TIP3   OH247650   2.870   6.169   1.995  0.2529 -0.4968 -0.1595
 8720TIP3    H147651   2.853   6.235   2.062  1.5791 -0.7696  0.4611
 8720TIP3    H247652   2.868   6.086   2.042 -1.0007 -0.8902 -0.8642
 8721TIP3   OH247653   2.880   4.379   5.972 -0.0425 -0.4115  0.1640
 8721TIP3    H147654   2.865   4.464   6.014 -1.7970 -0.3179 -0.6208
 8721TIP3    H247655   2.865   4.316   6.042  2.8111 -0.0737  1.1739
 8722TIP3   OH247656   0.238   2.405   5.025  0.1604 -0.3137 -0.4047
 8722TIP3    H147657   0.327   2.428   5.052 -0.0208  0.9191 -0.7887
 8722TIP3    H247658   0.248   2.375   4.934 -0.0030  1.3380 -0.9872
 8723TIP3   OH247659   5.477   0.811  11.244 -0.7184  0.0192  0.1405
 8723TIP3    H147660   5.519   0.879  11.192 -0.7175  0.0766  0.2159
 8723TIP3    H247661   5.406   0.778  11.189 -1.8190  1.2796  0.7993
 8724TIP3   OH247662   0.232   6.815  14.357 -0.6092  0.0835 -0.3568
 8724TIP3    H147663   0.318   6.857  14.362 -0.1877 -0.8293  0.0880
 8724TIP3    H247664   0.243   6.745  14.292 -0.4330 -1.3875  1.2238
 8725TIP3   OH247665   5.525   6.240   5.711 -1.0073  0.1798 -0.3688
 8725TIP3    H147666   5.572   6.322   5.695 -2.2317  0.6653 -1.5635
 8725TIP3    H247667   5.452   6.266   5.769 -0.4110 -0.3860  0.6544
 8726TIP3   OH247668   0.147   3.127   5.882  0.4220 -0.4137 -0.3092
 8726TIP3    H147669   0.083   3.090   5.942  0.4165 -1.9897 -1.2558
 8726TIP3    H247670   0.226   3.138   5.934  0.1427 -0.8930  0.2198
 8727TIP3   OH247671   4.660   3.367  16.439 -0.0417  0.0336  0.1538
 8727TIP3    H147672   4.579   3.337  16.398  0.3813  0.5756 -1.1076
 8727TIP3    H247673   4.729   3.325  16.387  0.5169  1.3408 -0.1773
 8728TIP3   OH247674   2.838   2.031   1.122 -0.0242  0.9540 -0.0848
 8728TIP3    H147675   2.908   2.095   1.117 -0.8642  1.8978  0.0510
 8728TIP3    H247676   2.840   1.986   1.038  1.1334  0.5448  0.1511
 8729TIP3   OH247677   5.866   3.751  15.326  0.0449 -0.4498  0.3516
 8729TIP3    H147678   5.869   3.678  15.388 -0.1944  0.7714  1.8377
 8729TIP3    H247679   5.853   3.710  15.241 -0.6914 -2.1003  1.2428
 8730TIP3   OH247680   3.062   2.324   0.910 -0.2310  0.2580  0.1739
 8730TIP3    H147681   3.092   2.282   0.991  0.5802 -0.0629 -0.2906
 8730TIP3    H247682   3.129   2.302   0.845 -1.5503 -0.6059 -0.9222
 8731TIP3   OH247683   6.448   4.448  14.948 -0.0112 -0.7994 -0.8259
 8731TIP3    H147684   6.393   4.489  14.881  0.4999  0.8151 -0.2653
 8731TIP3    H247685   6.388   4.390  14.995 -0.9389 -0.0736 -1.0869
 8732TIP3   OH247686   2.652   4.167  16.423  0.1197  0.3290 -0.1616
 8732TIP3    H147687   2.699   4.185  16.504 -1.2146 -0.0703  0.7183
 8732TIP3    H247688   2.708   4.203  16.354  1.1705  0.8463  0.9440
 8733TIP3   OH247689   1.776   2.467   1.260 -0.2561 -0.2712 -0.5206
 8733TIP3    H147690   1.743   2.557   1.267 -1.2923 -0.7131  0.4424
 8733TIP3    H247691   1.698   2.414   1.243  0.2236 -1.1069 -0.1563
 8734TIP3   OH247692   1.631   3.643  16.381  0.6698 -0.3314  0.0709
 8734TIP3    H147693   1.668   3.717  16.429 -1.6205 -0.2971  1.8765
 8734TIP3    H247694   1.638   3.570  16.442 -0.9204 -0.6197 -0.0805
 8735TIP3   OH247695   4.352   0.219   2.710 -0.1847  0.0293 -0.1334
 8735TIP3    H147696   4.297   0.168   2.770  0.4597  0.0188  0.4441
 8735TIP3    H247697   4.370   0.300   2.757 -1.0970  0.7509 -1.0021
 8736TIP3   OH247698   0.628   1.409   3.185  0.2200 -0.2152  0.1700
 8736TIP3    H147699   0.576   1.332   3.162  1.1167  0.3202 -4.2219
 8736TIP3    H247700   0.718   1.376   3.193  0.3981  0.1413 -0.3317
 8737TIP3   OH247701   1.124   3.394   2.476  0.1297  0.3802 -0.2310
 8737TIP3    H147702   1.168   3.309   2.470 -0.7700 -0.2373  1.3921
 8737TIP3    H247703   1.160   3.434   2.555 -1.6212  0.1715  0.7092
 8738TIP3   OH247704   5.158   5.245   3.664  0.5794  0.3643  0.1544
 8738TIP3    H147705   5.196   5.240   3.577 -0.4969  1.0685 -0.3641
 8738TIP3    H247706   5.233   5.257   3.723  1.1006  2.9447 -0.9557
 8739TIP3   OH247707   2.109   1.465  16.867 -0.3971 -0.0335 -0.1620
 8739TIP3    H147708   2.191   1.416  16.857 -0.1986  0.4774 -1.1670
 8739TIP3    H247709   2.109   1.495  16.958 -0.4118 -1.6883  0.3847
 8740TIP3   OH247710   3.354   0.890   4.652  0.3195  0.3997  0.0658
 8740TIP3    H147711   3.283   0.954   4.655  0.1539  0.2574 -0.6944
 8740TIP3    H247712   3.402   0.904   4.734 -0.5908  0.4826  0.5944
 8741TIP3   OH247713   0.862   6.561   2.332  0.0512  0.2743  0.3259
 8741TIP3    H147714   0.871   6.655   2.316 -1.6589  0.6282  1.3679
 8741TIP3    H247715   0.818   6.528   2.254 -1.7972  0.8129  1.1047
 8742TIP3   OH247716   2.691   6.401   6.166  0.3824 -0.0891 -0.0813
 8742TIP3    H147717   2.645   6.439   6.092  1.2929  0.6197 -0.2987
 8742TIP3    H247718   2.650   6.441   6.243 -0.9824 -1.3016 -0.1611
 8743TIP3   OH247719   6.561   2.292   2.400 -0.0307 -0.1401 -0.4417
 8743TIP3    H147720   6.557   2.209   2.447  2.3233 -0.2714 -0.3978
 8743TIP3    H247721   6.610   2.271   2.320 -1.3483  0.7368 -1.4847
 8744TIP3   OH247722   4.726   6.081  13.632 -0.3144  0.2917 -0.0730
 8744TIP3    H147723   4.681   6.120  13.707 -1.0481 -0.5518 -0.0629
 8744TIP3    H247724   4.751   5.993  13.662 -0.1021  0.1589 -0.6270
 8745TIP3   OH247725   1.664   6.064  13.950  0.1674  0.1685  0.0285
 8745TIP3    H147726   1.708   5.992  13.904 -0.4577 -0.2188  0.0442
 8745TIP3    H247727   1.713   6.074  14.031  0.6862  0.2240 -0.2842
 8746TIP3   OH247728   0.498   2.297  16.178  0.2514 -0.4182 -0.5775
 8746TIP3    H147729   0.592   2.278  16.180  0.9704  2.9742  0.3590
 8746TIP3    H247730   0.468   2.273  16.266  1.2794  3.0801  0.8134
 8747TIP3   OH247731   3.667   3.016   4.039 -0.3642 -0.1263  0.1266
 8747TIP3    H147732   3.572   3.014   4.029 -0.4884  1.3426  0.8546
 8747TIP3    H247733   3.690   2.929   4.072 -1.3530 -0.7682 -0.8712
 8748TIP3   OH247734   3.033   4.088  11.628 -0.3479 -0.7381  0.2525
 8748TIP3    H147735   3.033   4.085  11.532  1.0217 -0.5914  0.2284
 8748TIP3    H247736   3.126   4.098  11.651 -0.7993  0.8263  1.5327
 8749TIP3   OH247737   2.857   1.685  16.520 -0.4347  0.4375  0.0918
 8749TIP3    H147738   2.852   1.692  16.616  1.3358  0.7642  0.1694
 8749TIP3    H247739   2.788   1.744  16.489 -0.4784  0.9627  1.1464
 8750TIP3   OH247740   0.253   5.391  11.426 -0.8361 -0.1327 -0.0734
 8750TIP3    H147741   0.231   5.314  11.477  0.2695  0.3967  1.2279
 8750TIP3    H247742   0.247   5.464  11.488  2.7315  0.2505 -0.0697
 8751TIP3   OH247743   0.088   1.636  16.688 -0.0656  0.1824 -0.4308
 8751TIP3    H147744   0.070   1.542  16.689 -2.9561  0.6878  0.4944
 8751TIP3    H247745   0.182   1.643  16.706  0.0182 -2.4835  0.3929
 8752TIP3   OH247746   6.664   1.918  12.110 -0.7961  0.2814 -0.4085
 8752TIP3    H147747   6.722   1.863  12.163 -2.3909  1.1593  2.3114
 8752TIP3    H247748   6.723   1.974  12.060  0.7735  2.0795  3.2900
 8753TIP3   OH247749   5.077   5.931  10.932  0.7742  0.0436 -1.0720
 8753TIP3    H147750   5.140   5.908  11.001  2.6133  1.8952 -2.0604
 8753TIP3    H247751   5.083   5.859  10.870 -0.0987 -1.1107  0.1515
 8754TIP3   OH247752   4.297   2.252  13.972  0.6838 -0.1460 -0.4180
 8754TIP3    H147753   4.230   2.270  14.038  1.3566  0.3726  0.1367
 8754TIP3    H247754   4.248   2.245  13.890 -0.0911 -0.1494  0.0354
 8755TIP3   OH247755   4.897   4.854   5.477  0.7734  0.0086  0.2925
 8755TIP3    H147756   4.838   4.922   5.446  0.8499 -0.2885 -0.5302
 8755TIP3    H247757   4.959   4.841   5.405  1.6797  0.1349  1.0366
 8756TIP3   OH247758   4.671   3.972   2.492  0.3588  0.4929 -0.3944
 8756TIP3    H147759   4.598   3.970   2.430 -0.9600  1.6360  1.0816
 8756TIP3    H247760   4.745   3.938   2.442 -1.0644 -0.2785 -2.0660
 8757TIP3   OH247761   0.190   0.100   0.373  0.0942 -0.1924 -0.0880
 8757TIP3    H147762   0.198   0.005   0.371 -0.5721 -0.2432 -0.3709
 8757TIP3    H247763   0.254   0.128   0.438  0.2486 -0.8355  0.0407
 8758TIP3   OH247764   2.126   0.733  16.439 -0.4040  0.3471  0.1012
 8758TIP3    H147765   2.085   0.770  16.361  1.7616  0.2270 -1.1355
 8758TIP3    H247766   2.117   0.801  16.506 -3.6461 -0.1625  0.2155
 8759TIP3   OH247767   2.610   0.380   5.510  0.6152  0.3871  0.2785
 8759TIP3    H147768   2.607   0.289   5.542  0.6566  0.3903  0.2924
 8759TIP3    H247769   2.648   0.373   5.422  2.9487  0.6451  1.2460
 8760TIP3   OH247770   6.374   5.678  14.710  0.1030  0.0655 -0.0511
 8760TIP3    H147771   6.377   5.758  14.761 -1.5799  0.3254 -0.3347
 8760TIP3    H247772   6.385   5.707  14.619 -0.9562  0.0383 -0.1965
 8761TIP3   OH247773   1.979   0.954  16.590  0.2743  0.5519 -0.3220
 8761TIP3    H147774   1.905   0.993  16.544  0.0736  0.4211 -0.1075
 8761TIP3    H247775   1.940   0.891  16.651  0.6532 -0.6509 -1.3056
 8762TIP3   OH247776   5.528   4.778  16.985 -0.1745  0.4379  0.6486
 8762TIP3    H147777   5.509   4.801  16.894  0.5127  0.2501  0.4536
 8762TIP3    H247778   5.464   4.828  17.036 -1.7999 -0.8814 -0.0419
 8763TIP3   OH247779   0.253   2.255  10.336 -0.0864  0.3385 -0.2582
 8763TIP3    H147780   0.292   2.305  10.407  1.4133  2.2058 -2.3211
 8763TIP3    H247781   0.326   2.208  10.296 -1.1565 -1.9386  0.3688
 8764TIP3   OH247782   0.777   2.225   1.493  0.3530 -0.1484  0.0147
 8764TIP3    H147783   0.802   2.169   1.566  0.1815  1.0402  1.0005
 8764TIP3    H247784   0.859   2.242   1.447  1.3039  2.9315  2.6698
 8765TIP3   OH247785   2.973   0.158   5.352  0.2082 -0.3890  0.1298
 8765TIP3    H147786   2.883   0.185   5.334 -0.0178 -1.6380 -0.6835
 8765TIP3    H247787   2.985   0.177   5.445 -0.2025  1.6884 -0.2317
 8766TIP3   OH247788   0.789   0.666  14.383 -0.1065 -0.0123  0.6498
 8766TIP3    H147789   0.832   0.750  14.366  0.9834 -0.5515  0.6916
 8766TIP3    H247790   0.806   0.649  14.476 -0.4786 -0.1913  0.6836
 8767TIP3   OH247791   5.857   4.328   3.853  0.4064 -0.4120  0.2498
 8767TIP3    H147792   5.770   4.366   3.839  0.1152 -1.5024 -1.0160
 8767TIP3    H247793   5.896   4.382   3.921 -0.6704  1.0479 -0.2711
 8768TIP3   OH247794   6.743   3.423  14.017  0.1931 -0.6391  0.4881
 8768TIP3    H147795   6.679   3.362  14.053 -0.2115 -0.5968 -0.1550
 8768TIP3    H247796   6.772   3.383  13.935 -0.9923  0.6157 -0.5687
 8769TIP3   OH247797   5.687   0.870   2.441  0.0862  0.1957  0.4344
 8769TIP3    H147798   5.627   0.942   2.422 -1.4568 -0.5845  2.2015
 8769TIP3    H247799   5.773   0.904   2.418 -0.4966  2.9932  2.1837
 8770TIP3   OH247800   5.573   5.947  16.675  0.2990 -0.1969 -0.0079
 8770TIP3    H147801   5.525   5.973  16.754 -1.0461  0.2813 -0.9655
 8770TIP3    H247802   5.642   5.889  16.707  1.3984  2.0469  1.8113
 8771TIP3   OH247803   1.082   2.486  16.596  0.4524  0.2400  0.1564
 8771TIP3    H147804   1.025   2.417  16.629 -0.6464  1.4813  0.8694
 8771TIP3    H247805   1.064   2.489  16.502 -0.9786  0.9045  0.4395
 8772TIP3   OH247806   1.482   5.853  12.204 -0.4013  0.0724  0.2559
 8772TIP3    H147807   1.400   5.810  12.231 -0.7971  0.4198 -0.3815
 8772TIP3    H247808   1.540   5.780  12.181 -0.0088 -0.2309  2.1812
 8773TIP3   OH247809   4.775   2.863   4.500 -0.5907 -0.4967  0.4071
 8773TIP3    H147810   4.793   2.810   4.422 -2.2270 -1.0922  0.4168
 8773TIP3    H247811   4.832   2.827   4.567  0.0155 -0.7054 -0.2109
 8774TIP3   OH247812   4.733   4.681  14.252 -0.3329  0.4488 -0.5462
 8774TIP3    H147813   4.761   4.589  14.248  1.1871  0.7695  1.7991
 8774TIP3    H247814   4.739   4.704  14.344 -0.4971  2.9801 -1.1221
 8775TIP3   OH247815   2.781   1.061   3.830  0.2650 -0.0239  0.1728
 8775TIP3    H147816   2.810   1.152   3.829  0.4647 -0.0394  2.0943
 8775TIP3    H247817   2.685   1.066   3.826  0.2218  0.3263  1.4249
 8776TIP3   OH247818   5.506   1.698  14.951  0.2178 -0.4553 -0.1091
 8776TIP3    H147819   5.559   1.620  14.933  0.4784 -0.3655  0.2728
 8776TIP3    H247820   5.514   1.711  15.046 -1.8586 -1.4562  0.2533
 8777TIP3   OH247821   6.468   4.851   4.932  0.3002 -0.2372  0.0358
 8777TIP3    H147822   6.542   4.907   4.908  0.0965 -0.2413 -0.6011
 8777TIP3    H247823   6.415   4.846   4.853 -0.0581 -0.7455  0.3076
 8778TIP3   OH247824   4.183   6.788   4.876  0.7504 -0.1062  0.5563
 8778TIP3    H147825   4.135   6.777   4.958  1.7200 -1.0398  1.0077
 8778TIP3    H247826   4.140   6.863   4.833 -2.1458 -1.8980  0.1944
 8779TIP3   OH247827   5.275   0.834  17.093 -0.1507  0.4820 -0.1650
 8779TIP3    H147828   5.264   0.744  17.124 -1.0824  0.4918 -0.4537
 8779TIP3    H247829   5.301   0.884  17.170 -0.0388  0.0398  0.0786
 8780TIP3   OH247830   4.077   3.553   1.443  0.0015  0.0527 -0.2589
 8780TIP3    H147831   4.090   3.641   1.408  0.7527  0.0771  0.0606
 8780TIP3    H247832   4.160   3.509   1.427 -0.3266 -0.5529 -0.2865
 8781TIP3   OH247833   3.454   3.525  13.417 -0.2001 -0.3889 -0.5537
 8781TIP3    H147834   3.499   3.443  13.396  3.0737  1.3659 -0.7099
 8781TIP3    H247835   3.438   3.521  13.511  1.0204 -0.7081 -0.3585
 8782TIP3   OH247836   6.475   1.519  14.899  0.0362 -0.1263  0.3342
 8782TIP3    H147837   6.457   1.426  14.890  2.1244 -0.7039  1.7463
 8782TIP3    H247838   6.494   1.532  14.992  2.3586  1.1876 -0.2709
 8783TIP3   OH247839   3.310   4.172  16.614  0.3269  0.9009 -0.9367
 8783TIP3    H147840   3.299   4.124  16.532  1.1921 -0.7134 -0.1355
 8783TIP3    H247841   3.224   4.168  16.656 -0.0483  1.5063 -1.6420
 8784TIP3   OH247842   5.168   2.704   5.395  0.2754  0.4473 -0.0269
 8784TIP3    H147843   5.102   2.704   5.464 -0.0776 -0.2195 -0.3617
 8784TIP3    H247844   5.203   2.615   5.394 -0.8869 -0.0139 -1.7948
 8785TIP3   OH247845   1.525   4.807  13.265  0.3451 -0.0773 -0.4234
 8785TIP3    H147846   1.540   4.880  13.205  0.2197 -0.3411 -0.7761
 8785TIP3    H247847   1.592   4.743  13.242  1.4215  0.5414  0.8789
 8786TIP3   OH247848   3.403   2.306   1.198 -0.6293  0.8837  0.6399
 8786TIP3    H147849   3.418   2.394   1.232  1.4503  1.0121 -0.5423
 8786TIP3    H247850   3.453   2.249   1.258  0.6504  0.8367 -0.4468
 8787TIP3   OH247851   0.343   4.784  13.777  0.3903 -0.2323 -0.1917
 8787TIP3    H147852   0.394   4.823  13.849 -0.2582 -1.1770  0.7873
 8787TIP3    H247853   0.271   4.738  13.821 -0.6799  0.1628 -1.5150
 8788TIP3   OH247854   5.971   1.710   1.055  0.3878  0.4073 -0.3274
 8788TIP3    H147855   5.956   1.763   0.977 -2.6961 -1.9532 -1.4888
 8788TIP3    H247856   5.971   1.620   1.023  1.5910 -0.5074  2.0903
 8789TIP3   OH247857   5.377   3.156   5.066 -0.6908  0.1654  0.8031
 8789TIP3    H147858   5.471   3.143   5.082 -0.3350 -0.7421 -1.7574
 8789TIP3    H247859   5.342   3.068   5.056 -1.4318  0.5597 -0.1598
 8790TIP3   OH247860   5.136   5.780  15.313  0.8112  0.2652 -0.8487
 8790TIP3    H147861   5.196   5.833  15.365  1.5899 -0.5215 -0.9409
 8790TIP3    H247862   5.182   5.697  15.300 -0.1046 -0.1768 -1.3052
 8791TIP3   OH247863   2.059   5.069   1.798 -0.7715  0.3357  0.2086
 8791TIP3    H147864   1.994   5.040   1.862 -0.6664 -1.3431 -0.4155
 8791TIP3    H247865   2.016   5.140   1.750 -1.6989  0.0404  0.5913
 8792TIP3   OH247866   4.461   4.567  16.715  0.1585  0.2288  0.1312
 8792TIP3    H147867   4.455   4.556  16.620  1.9519 -0.4660  0.0856
 8792TIP3    H247868   4.373   4.546  16.747 -0.6245  1.0674 -1.4220
 8793TIP3   OH247869   6.584   0.504  14.719  0.2729  0.2877 -0.2140
 8793TIP3    H147870   6.628   0.589  14.714  0.2211  0.2769 -0.8405
 8793TIP3    H247871   6.506   0.514  14.665 -0.6293  0.3768  1.0552
 8794TIP3   OH247872   2.228   6.374  12.372 -0.3869  0.5651 -0.4271
 8794TIP3    H147873   2.149   6.350  12.420 -0.4024  1.3937 -0.0216
 8794TIP3    H247874   2.196   6.399  12.285 -0.4192 -0.4091 -0.6934
 8795TIP3   OH247875   3.168   1.716   5.207 -0.3198 -0.3433 -0.0873
 8795TIP3    H147876   3.237   1.754   5.153 -0.2988 -1.0640 -0.5678
 8795TIP3    H247877   3.088   1.761   5.179 -0.5436 -1.7405 -1.7490
 8796TIP3   OH247878   3.778   4.200   4.491 -0.2575 -0.0766 -0.1199
 8796TIP3    H147879   3.683   4.204   4.484 -0.3991 -1.9352  0.4419
 8796TIP3    H247880   3.794   4.168   4.580  0.8289 -1.4458 -0.7935
 8797TIP3   OH247881   3.415   1.285  15.151  0.3186  0.5749 -0.1490
 8797TIP3    H147882   3.488   1.314  15.096  1.0029 -0.5601  0.1504
 8797TIP3    H247883   3.373   1.366  15.179  0.7368  1.2048 -1.2882
 8798TIP3   OH247884   5.345   6.811   1.339  0.1840  0.1287  0.0800
 8798TIP3    H147885   5.331   6.721   1.310 -0.1363 -0.1674  1.1652
 8798TIP3    H247886   5.439   6.823   1.334  0.3747 -0.7519  1.3634
 8799TIP3   OH247887   3.549   6.604   3.837  0.4930  0.2178  0.4143
 8799TIP3    H147888   3.593   6.604   3.752 -1.0554  1.0143 -0.3929
 8799TIP3    H247889   3.599   6.666   3.890  1.2285  0.0102 -0.0287
 8800TIP3   OH247890   2.626   1.071  11.488  0.2871 -0.2079 -0.0352
 8800TIP3    H147891   2.719   1.078  11.510 -0.1212  3.5322  0.9133
 8800TIP3    H247892   2.603   1.157  11.452 -2.9280 -0.8479  0.2862
 8801TIP3   OH247893   0.150   0.921  10.425  0.3837 -0.4693  0.1970
 8801TIP3    H147894   0.130   1.000  10.374 -2.2018 -0.0586  1.7649
 8801TIP3    H247895   0.117   0.849  10.372 -3.3278  0.0381  1.7076
 8802TIP3   OH247896   4.840   5.661  12.700  0.0096 -0.0590  0.3203
 8802TIP3    H147897   4.906   5.729  12.713  0.1418 -0.0844 -0.2051
 8802TIP3    H247898   4.879   5.601  12.636 -0.6458  0.0918 -0.2317
 8803TIP3   OH247899   2.094   5.931   1.188  0.2270  0.1792 -0.4772
 8803TIP3    H147900   2.137   5.968   1.111 -0.0458 -1.4154 -1.4138
 8803TIP3    H247901   2.126   5.985   1.261 -2.3874  4.1090 -2.0888
 8804TIP3   OH247902   1.773   6.076  16.663  0.6496 -0.4700  0.5088
 8804TIP3    H147903   1.756   5.997  16.713  2.0263 -1.3858 -0.4250
 8804TIP3    H247904   1.698   6.084  16.604  0.6918 -1.3040  0.3344
 8805TIP3   OH247905   5.963   2.296  16.129  0.2916 -0.0136 -0.4932
 8805TIP3    H147906   5.904   2.308  16.203  0.1441 -0.6519 -0.4992
 8805TIP3    H247907   5.908   2.256  16.061  0.2138  1.3795 -1.2572
 8806TIP3   OH247908   2.270   4.338   3.502 -0.0333  0.8748  0.1352
 8806TIP3    H147909   2.343   4.297   3.456 -1.3184 -0.1683 -0.9853
 8806TIP3    H247910   2.278   4.306   3.592  0.5304  0.2632 -0.1268
 8807TIP3   OH247911   5.283   5.682   1.382  0.1184 -0.3713 -0.4032
 8807TIP3    H147912   5.208   5.624   1.368 -0.4757  0.2903  0.0262
 8807TIP3    H247913   5.258   5.736   1.457  1.4538 -0.8596  0.4108
 8808TIP3   OH247914   2.361   5.745   1.388 -0.5124 -0.5775  0.4886
 8808TIP3    H147915   2.294   5.790   1.440  0.2919 -0.8706  1.8152
 8808TIP3    H247916   2.399   5.814   1.333 -2.3012 -0.5243 -0.7405
 8809TIP3   OH247917   0.984   1.080  11.798 -0.0082  0.3321 -0.3478
 8809TIP3    H147918   0.956   1.063  11.708 -2.1733  0.7237  0.2214
 8809TIP3    H247919   0.996   0.993  11.836  1.1442  0.1629 -1.0540
 8810TIP3   OH247920   2.015   3.452   4.551 -0.2240 -0.1029  0.1716
 8810TIP3    H147921   1.942   3.391   4.548 -0.6334  0.3698  0.4086
 8810TIP3    H247922   2.093   3.398   4.539 -0.5120 -0.8015  1.4450
 8811TIP3   OH247923   6.115   4.068   2.185  1.2735  1.3676 -0.7118
 8811TIP3    H147924   6.124   4.136   2.118 -0.4328  0.5169 -1.8519
 8811TIP3    H247925   6.144   3.988   2.143  1.5431  1.0671  0.0384
 8812TIP3   OH247926   4.340   6.213  14.013  0.2079 -0.0628 -0.1856
 8812TIP3    H147927   4.394   6.134  14.007 -0.2165 -0.2507 -1.7019
 8812TIP3    H247928   4.403   6.285  14.012  0.4360 -0.2322 -3.1580
 8813TIP3   OH247929   0.831   6.105   3.162  0.0581 -0.4558 -0.2332
 8813TIP3    H147930   0.833   6.181   3.103 -1.3528 -1.2689 -1.3720
 8813TIP3    H247931   0.908   6.054   3.136  0.0673 -0.2576 -0.6163
 8814TIP3   OH247932   1.075   5.656   2.041  0.3152  0.4026 -0.0160
 8814TIP3    H147933   1.078   5.736   2.092  1.9427  0.2867  0.0980
 8814TIP3    H247934   1.068   5.586   2.106  1.7546  0.2929  0.0363
 8815TIP3   OH247935   1.096   2.932   5.686 -0.4703 -0.2954  0.5173
 8815TIP3    H147936   1.091   2.851   5.738  0.6829 -0.6661  0.0853
 8815TIP3    H247937   1.163   2.913   5.620 -0.3561  0.9378  0.2704
 8816TIP3   OH247938   5.404   4.209   6.101  0.7765 -0.3953  0.2140
 8816TIP3    H147939   5.380   4.139   6.162 -0.4188  0.4126  0.6736
 8816TIP3    H247940   5.439   4.279   6.156 -2.2790  1.1865  0.2073
 8817TIP3   OH247941   4.029   4.433   4.420 -0.4190 -0.2754  0.1735
 8817TIP3    H147942   4.030   4.348   4.376  0.8299 -0.6036  0.8405
 8817TIP3    H247943   4.120   4.463   4.419 -0.7439  0.7564  0.5244
 8818TIP3   OH247944   3.814   0.357   3.854 -0.0486  0.1954  0.1513
 8818TIP3    H147945   3.769   0.332   3.935  0.1972 -1.4253 -0.1931
 8818TIP3    H247946   3.802   0.282   3.796  2.5905 -0.0158 -0.1598
 8819TIP3   OH247947   1.250   5.707   3.423  0.3870 -0.3372 -0.0093
 8819TIP3    H147948   1.206   5.791   3.407  0.3670 -0.2919  0.2956
 8819TIP3    H247949   1.263   5.704   3.517  1.3480 -0.1951 -0.1333
 8820TIP3   OH247950   5.736   5.643  15.682 -0.2762 -0.2664  0.6429
 8820TIP3    H147951   5.819   5.662  15.638 -1.0988 -0.9822 -1.2950
 8820TIP3    H247952   5.761   5.604  15.765  1.3321  0.1246  0.3583
 8821TIP3   OH247953   6.418   3.972  12.684  0.0168  0.2751  0.0073
 8821TIP3    H147954   6.362   4.025  12.741  0.4043 -0.5876  1.2064
 8821TIP3    H247955   6.368   3.892  12.670  0.1839  0.2398 -0.3734
 8822TIP3   OH247956   0.000   1.708  12.256  0.6606 -0.2021 -0.0217
 8822TIP3    H147957   0.005   1.635  12.194 -0.9405 -0.8779  0.6339
 8822TIP3    H247958   0.086   1.708  12.299  1.7708  0.2306 -2.1495
 8823TIP3   OH247959   6.600   1.194  12.788 -0.3628  0.4660  0.0652
 8823TIP3    H147960   6.634   1.125  12.732 -3.0577 -1.0629  0.2335
 8823TIP3    H247961   6.529   1.234  12.737  0.8815  2.8640  0.1337
 8824TIP3   OH247962   2.942   6.116  16.765  0.5603 -0.2354  0.5484
 8824TIP3    H147963   3.011   6.080  16.708  0.9682 -1.5366  1.8186
 8824TIP3    H247964   2.989   6.171  16.827 -0.1378  3.1727 -1.8153
 8825TIP3   OH247965   1.593   5.518   4.404 -0.1205  0.6124  0.0230
 8825TIP3    H147966   1.566   5.429   4.427  0.9462  0.6374  1.4119
 8825TIP3    H247967   1.557   5.573   4.474 -2.1439  1.5151 -1.6530
 8826TIP3   OH247968   1.923   5.122   3.477 -0.0608  0.4971  0.4166
 8826TIP3    H147969   1.847   5.159   3.432 -0.7408 -0.6611  0.5960
 8826TIP3    H247970   1.979   5.089   3.407 -1.4937 -2.0322  0.4052
 8827TIP3   OH247971   1.432   4.380   2.206  0.4245 -0.2419  0.6144
 8827TIP3    H147972   1.342   4.375   2.237  0.4469 -1.2233  0.5524
 8827TIP3    H247973   1.484   4.393   2.286  0.3436 -1.0982  0.8133
 8828TIP3   OH247974   4.618   1.207  11.780  0.3954 -0.1816  0.0434
 8828TIP3    H147975   4.642   1.277  11.841  2.3974  0.6882 -1.6904
 8828TIP3    H247976   4.700   1.163  11.761 -0.6614 -2.2270  0.1127
 8829TIP3   OH247977   6.017   4.044   4.678 -0.1339 -0.3506  0.2968
 8829TIP3    H147978   6.025   4.027   4.584 -1.4992 -0.4706  0.1991
 8829TIP3    H247979   6.059   4.129   4.691  1.6940 -1.1646 -0.1196
 8830TIP3   OH247980   5.837   5.106   3.273  0.1020  0.0650 -0.1125
 8830TIP3    H147981   5.898   5.100   3.346  0.3512 -2.1835 -0.4707
 8830TIP3    H247982   5.762   5.053   3.299  0.6432 -1.6414 -1.9083
 8831TIP3   OH247983   5.924   5.698  13.636 -0.3001  0.3575  0.3064
 8831TIP3    H147984   5.879   5.655  13.709  0.4376 -0.9633  0.0001
 8831TIP3    H247985   5.857   5.708  13.569 -0.8156  0.9701  0.9004
 8832TIP3   OH247986   4.637   2.530   1.621 -0.7105 -0.5294  0.3181
 8832TIP3    H147987   4.697   2.529   1.695  3.0927 -3.0376 -2.5796
 8832TIP3    H247988   4.576   2.458   1.638 -2.2035  1.2553  2.7062
 8833TIP3   OH247989   1.630   6.065   4.432  0.0377 -0.0087 -0.4371
 8833TIP3    H147990   1.604   6.066   4.340 -2.1551 -0.1470  0.1587
 8833TIP3    H247991   1.639   6.158   4.455 -0.5147  0.0580 -0.4853
 8834TIP3   OH247992   3.717   6.736   4.012 -0.8443 -0.1641  0.7907
 8834TIP3    H147993   3.758   6.711   4.095 -0.3051 -1.5279  0.1157
 8834TIP3    H247994   3.790   6.754   3.953 -1.2269  0.5780  0.5334
 8835TIP3   OH247995   4.652   3.230   5.005 -0.0275 -0.1703  0.3761
 8835TIP3    H147996   4.721   3.298   5.007 -1.0195  0.8353  1.0116
 8835TIP3    H247997   4.570   3.279   5.000 -0.7528 -1.3460  0.5778
 8836TIP3   OH247998   2.306   1.250   5.303 -0.1771 -0.0478 -0.2565
 8836TIP3    H147999   2.336   1.170   5.346  0.5607 -0.2352 -1.1064
 8836TIP3    H248000   2.220   1.268   5.343  0.3872 -0.3293  1.1259
 8837TIP3   OH248001   3.184   2.031   3.073  0.1929  0.1099 -0.1032
 8837TIP3    H148002   3.206   2.065   3.160  1.8037 -0.3783 -0.2889
 8837TIP3    H248003   3.139   2.103   3.030  1.4744  1.1910  0.3213
 8838TIP3   OH248004   0.485   4.761  12.246 -0.1258  0.1242  0.4446
 8838TIP3    H148005   0.468   4.676  12.285 -0.7600 -0.5728 -1.3421
 8838TIP3    H248006   0.576   4.780  12.271  0.0280 -1.0656  0.8319
 8839TIP3   OH248007   2.229   3.570  16.785 -0.3936 -0.0760  0.3096
 8839TIP3    H148008   2.242   3.505  16.854 -0.0831  0.2377  0.5474
 8839TIP3    H248009   2.188   3.521  16.713  0.1130 -0.5962  0.3758
 8840TIP3   OH248010   0.212   2.016  11.193  0.0365  0.6260  0.3672
 8840TIP3    H148011   0.131   2.056  11.225 -0.5854 -0.3866  0.0767
 8840TIP3    H248012   0.225   1.940  11.251 -0.9195 -1.0259 -1.5234
 8841TIP3   OH248013   1.699   6.315   2.752  0.2451 -0.0432 -0.7469
 8841TIP3    H148014   1.727   6.262   2.827  2.1010  1.9215 -0.0015
 8841TIP3    H248015   1.751   6.281   2.679 -0.0051 -0.5481 -0.6924
 8842TIP3   OH248016   2.251   1.721   0.345 -0.0320 -0.1044 -0.4612
 8842TIP3    H148017   2.248   1.678   0.259  0.2277 -0.5278 -0.2611
 8842TIP3    H248018   2.336   1.766   0.346  0.2781 -0.6997 -0.1391
 8843TIP3   OH248019   0.947   2.547  15.495  0.1412 -0.7515 -0.0046
 8843TIP3    H148020   0.860   2.578  15.471 -0.0515 -1.7227 -0.5710
 8843TIP3    H248021   0.937   2.453  15.507  1.0401 -0.8202  0.2651
 8844TIP3   OH248022   0.604   6.429   5.532  0.1599  0.5073  0.1053
 8844TIP3    H148023   0.527   6.405   5.584 -0.4865  1.8513 -0.2007
 8844TIP3    H248024   0.595   6.379   5.451 -1.3668  2.0149 -0.6801
 8845TIP3   OH248025   4.560   4.828   1.759 -0.0837 -0.3219  0.5132
 8845TIP3    H148026   4.629   4.774   1.720  0.3606 -0.1152  1.0135
 8845TIP3    H248027   4.528   4.882   1.687 -1.4817 -2.2043 -0.3416
 8846TIP3   OH248028   6.101   6.109  14.134 -0.2193  0.0775  0.3775
 8846TIP3    H148029   6.147   6.163  14.070 -0.8704  1.1976  0.8522
 8846TIP3    H248030   6.070   6.034  14.084  0.5285  0.2254 -0.3180
 8847TIP3   OH248031   6.731   4.848  10.905 -0.3011 -0.3391 -0.3604
 8847TIP3    H148032   6.679   4.779  10.865  0.7568 -1.2628 -0.1513
 8847TIP3    H248033   6.681   4.873  10.983 -0.6601 -0.8899 -0.4143
 8848TIP3   OH248034   4.253   5.030   3.852 -0.3816 -0.2124 -0.3509
 8848TIP3    H148035   4.235   5.121   3.829  2.5634  0.6493  0.6493
 8848TIP3    H248036   4.242   5.026   3.947  0.8719 -0.5814 -0.2207
 8849TIP3   OH248037   1.750   2.824   5.591 -0.2988  0.4529  0.3676
 8849TIP3    H148038   1.672   2.791   5.634 -0.4446 -0.9187 -0.9039
 8849TIP3    H248039   1.813   2.752   5.596  1.0562  1.6766  1.7389
 8850TIP3   OH248040   3.031   4.408   2.083  0.0739  0.1851  0.6849
 8850TIP3    H148041   3.049   4.480   2.143  0.3607  0.2404  0.5351
 8850TIP3    H248042   2.964   4.356   2.127 -0.8987  1.1179  0.3460
 8851TIP3   OH248043   3.976   5.433  11.989 -0.0776  0.4354  0.0934
 8851TIP3    H148044   4.035   5.381  11.935 -1.5825 -1.1855 -0.0221
 8851TIP3    H248045   3.963   5.514  11.940  2.6282  1.1659  0.4798
 8852TIP3   OH248046   4.605   2.429  11.916  0.0895 -0.2695  0.7055
 8852TIP3    H148047   4.646   2.502  11.963  0.0518 -0.6238  1.2971
 8852TIP3    H248048   4.538   2.470  11.862  1.8573  0.4477 -1.0427
 8853TIP3   OH248049   5.767   1.468  11.279 -0.3370  0.4236  0.2933
 8853TIP3    H148050   5.725   1.403  11.336 -0.2994 -0.0993 -0.2634
 8853TIP3    H248051   5.745   1.439  11.190  1.0106  0.2618 -0.0009
 8854TIP3   OH248052   6.295   5.410  12.885 -0.0155 -0.0837 -0.2089
 8854TIP3    H148053   6.297   5.331  12.939  0.4304 -0.1326 -0.3042
 8854TIP3    H248054   6.264   5.478  12.946  2.8214  0.3763  0.7701
 8855TIP3   OH248055   0.151   1.690  11.112  0.6055 -0.0007 -0.0097
 8855TIP3    H148056   0.113   1.749  11.177  0.8209  0.5230 -0.3535
 8855TIP3    H248057   0.179   1.748  11.041 -0.2227 -0.6259 -0.8614
 8856TIP3   OH248058   1.552   1.991   3.181 -0.0988  0.1246 -0.2567
 8856TIP3    H148059   1.583   2.000   3.091  1.1134  0.8550  0.2287
 8856TIP3    H248060   1.555   1.896   3.197  3.3868  0.2705  0.2804
 8857TIP3   OH248061   0.626   6.531   3.837 -0.1834  0.2879 -0.3572
 8857TIP3    H148062   0.678   6.478   3.776  0.6907 -0.8436  1.3336
 8857TIP3    H248063   0.552   6.475   3.859  1.0390 -0.5259  1.8826
 8858TIP3   OH248064   5.248   3.573   1.945  0.0310 -0.4266 -0.0362
 8858TIP3    H148065   5.230   3.600   1.855 -2.3735  0.9302  0.8102
 8858TIP3    H248066   5.164   3.537   1.976  0.3999  0.5488  2.1412
 8859TIP3   OH248067   4.111   6.699  11.786 -0.0984  0.3232 -0.7826
 8859TIP3    H148068   4.108   6.621  11.730  1.0586 -1.0807  1.0502
 8859TIP3    H248069   4.024   6.701  11.828  0.3374 -0.8213  0.2254
 8860TIP3   OH248070   5.424   3.765   5.600 -0.2169  0.6320  0.5545
 8860TIP3    H148071   5.515   3.781   5.624 -0.1922  2.7850 -0.8274
 8860TIP3    H248072   5.376   3.771   5.682  1.0835 -2.7006  1.6687
 8861TIP3   OH248073   5.691   2.733   6.417  0.1383 -0.4569 -0.0565
 8861TIP3    H148074   5.741   2.743   6.336  2.0492  0.3004  1.1619
 8861TIP3    H248075   5.662   2.642   6.417  1.3725 -0.8638 -0.9229
 8862TIP3   OH248076   2.413   3.904  10.572 -0.0702 -0.0176 -0.3029
 8862TIP3    H148077   2.445   3.821  10.537  0.4947 -0.2566  0.7528
 8862TIP3    H248078   2.334   3.881  10.621 -1.0126  0.3542 -1.6239
 8863TIP3   OH248079   0.326   6.765  13.252 -0.2985 -0.0941  0.6129
 8863TIP3    H148080   0.290   6.686  13.294  0.1637  0.3560  1.9008
 8863TIP3    H248081   0.344   6.738  13.162 -0.7734 -1.2693  0.8533
 8864TIP3   OH248082   3.955   0.765  14.035  0.0456  0.6393  0.0345
 8864TIP3    H148083   3.893   0.828  13.997  1.1368  1.0862 -1.0163
 8864TIP3    H248084   3.903   0.686  14.050 -1.9787  2.5183  3.6445
 8865TIP3   OH248085   1.999   2.526   1.393  0.6225  0.0373 -0.0913
 8865TIP3    H148086   2.005   2.485   1.479 -0.6858 -0.1599 -0.0812
 8865TIP3    H248087   1.919   2.490   1.354  1.0739  0.3005 -1.2968
 8866TIP3   OH248088   0.492   5.738  16.168 -0.1349 -0.0962  0.2453
 8866TIP3    H148089   0.495   5.694  16.253 -0.6390 -1.9090 -0.6452
 8866TIP3    H248090   0.575   5.715  16.126 -0.4890 -0.3776 -0.3102
 8867TIP3   OH248091   6.044   4.387   3.281  0.5485  0.0132  0.0891
 8867TIP3    H148092   6.097   4.412   3.357  0.6747 -2.8044  0.9693
 8867TIP3    H248093   6.096   4.415   3.206  2.2776 -0.7108  0.9823
 8868TIP3   OH248094   2.235   3.434   6.150 -0.2582  0.0416 -0.3335
 8868TIP3    H148095   2.161   3.445   6.210 -0.0254  1.8014 -0.3479
 8868TIP3    H248096   2.195   3.411   6.067 -0.6527 -1.2853  0.2146
 8869TIP3   OH248097   0.727   2.725   0.030  0.1245 -0.5416 -0.1136
 8869TIP3    H148098   0.785   2.757   0.098  0.4138 -0.6103 -0.3257
 8869TIP3    H248099   0.640   2.730   0.068  0.1316  0.7695 -0.2525
 8870TIP3   OH248100   1.935   3.110   0.508 -0.2718 -0.3768 -0.2726
 8870TIP3    H148101   1.909   3.200   0.490  0.0274 -0.0395  0.9680
 8870TIP3    H248102   1.875   3.081   0.576 -1.2730 -1.5952 -1.6300
 8871TIP3   OH248103   1.447   5.499   4.016 -0.2890 -0.3735 -0.2638
 8871TIP3    H148104   1.414   5.474   3.929 -1.2154  0.8770 -0.2963
 8871TIP3    H248105   1.454   5.416   4.064  2.2681 -1.3248 -2.1932
 8872TIP3   OH248106   4.868   5.921  11.606  0.4697  0.1134  0.2550
 8872TIP3    H148107   4.786   5.969  11.621  0.4375  0.2509 -0.3788
 8872TIP3    H248108   4.930   5.959  11.668  0.2096  0.3821  0.3527
 8873TIP3   OH248109   2.553   0.917   2.044  0.5630  0.4904 -0.5957
 8873TIP3    H148110   2.619   0.908   2.113  0.8429  2.6115 -0.5580
 8873TIP3    H248111   2.514   1.003   2.059 -0.9547  0.0275 -1.7298
 8874TIP3   OH248112   5.560   4.164   2.687 -0.2341  0.1574  0.2444
 8874TIP3    H148113   5.556   4.247   2.640 -0.7562  0.2449  0.4314
 8874TIP3    H248114   5.554   4.189   2.780  1.7694  0.0609  0.4209
 8875TIP3   OH248115   0.910   1.095   4.078  1.0315  0.3075 -0.3008
 8875TIP3    H148116   0.968   1.125   4.009  0.3707 -0.3734 -1.1566
 8875TIP3    H248117   0.907   1.167   4.141  3.0610  0.2099 -0.0784
 8876TIP3   OH248118   0.309   1.125   5.058 -0.2765 -0.4183 -0.1709
 8876TIP3    H148119   0.384   1.099   5.004 -1.5676 -1.8068 -1.3332
 8876TIP3    H248120   0.235   1.129   4.998 -1.6683 -1.5946  1.3910
 8877TIP3   OH248121   6.445   3.941   0.320 -0.0535  0.6353 -0.2234
 8877TIP3    H148122   6.520   3.987   0.358 -1.2362  2.3953  0.0605
 8877TIP3    H248123   6.458   3.949   0.226  0.5182  0.2441 -0.1810
 8878TIP3   OH248124   2.990   6.150  11.584 -0.4676  0.1385  0.1164
 8878TIP3    H148125   2.943   6.196  11.514 -1.6684 -0.4314  0.5317
 8878TIP3    H248126   3.069   6.115  11.541  0.4290  2.4795 -0.2187
 8879TIP3   OH248127   3.131   5.167  16.540 -0.4580 -0.0011 -0.5745
 8879TIP3    H148128   3.094   5.082  16.565  0.4574 -0.0725  0.5713
 8879TIP3    H248129   3.059   5.212  16.494 -1.3881 -0.8308  0.0529
 8880TIP3   OH248130   2.502   5.067  11.656 -0.5316  0.4014 -0.0377
 8880TIP3    H148131   2.443   5.141  11.642 -1.8548 -0.7503 -0.6647
 8880TIP3    H248132   2.467   5.022  11.733  0.7086  0.8460  0.7950
 8881TIP3   OH248133   5.712   0.602  11.830 -0.2172  0.2987  0.5397
 8881TIP3    H148134   5.623   0.577  11.855  0.4317 -0.1699  2.4675
 8881TIP3    H248135   5.753   0.520  11.803 -0.6764  0.6842 -1.4067
 8882TIP3   OH248136   6.137   0.663  17.251  0.3485  0.1197 -0.3695
 8882TIP3    H148137   6.113   0.742  17.300  0.6673  0.1253 -0.2170
 8882TIP3    H248138   6.112   0.682  17.160 -0.3267  0.0739 -0.1941
 8883TIP3   OH248139   4.953   3.222   1.453  0.3438 -0.2262 -0.0130
 8883TIP3    H148140   4.931   3.309   1.486 -0.2395 -0.2704 -0.2818
 8883TIP3    H248141   4.968   3.169   1.531  0.2374 -0.0048  0.1572
 8884TIP3   OH248142   3.219   2.147  16.422 -0.4094  0.3095  0.2540
 8884TIP3    H148143   3.175   2.067  16.391 -0.9141  0.7498 -0.1672
 8884TIP3    H248144   3.263   2.181  16.344  0.9533 -0.3036  0.7476
 8885TIP3   OH248145   3.514   5.978  15.572  0.0461 -0.0208 -0.0155
 8885TIP3    H148146   3.600   5.978  15.531 -0.8400  0.1613 -1.9037
 8885TIP3    H248147   3.466   6.047  15.526 -0.7115  0.7403  1.8775
 8886TIP3   OH248148   4.189   3.677  14.660 -0.3782 -0.2160 -0.2046
 8886TIP3    H148149   4.227   3.614  14.600 -0.3558 -0.2418 -0.1652
 8886TIP3    H248150   4.099   3.648  14.673 -0.0239 -0.9262  0.7393
 8887TIP3   OH248151   2.112   3.721  13.106  0.6317 -0.5672  0.1726
 8887TIP3    H148152   2.071   3.679  13.031 -0.6395  1.0043 -0.0195
 8887TIP3    H248153   2.204   3.732  13.080  0.5482 -1.4648 -0.5151
 8888TIP3   OH248154   0.708   2.020  10.988  0.3226  0.2269 -0.3058
 8888TIP3    H148155   0.719   1.953  10.920 -0.4465 -2.0259  1.7421
 8888TIP3    H248156   0.668   2.094  10.942 -0.9517 -1.5440 -2.1568
 8889TIP3   OH248157   0.700   1.782   4.934 -0.2026 -0.2508 -0.3853
 8889TIP3    H148158   0.606   1.763   4.937 -0.3573 -0.0822 -2.9277
 8889TIP3    H248159   0.742   1.703   4.969 -1.1782 -1.8457 -2.7059
 8890TIP3   OH248160   3.659   3.584  16.054 -0.1994  0.6586 -0.2379
 8890TIP3    H148161   3.570   3.554  16.033 -0.1483  0.7286 -0.5530
 8890TIP3    H248162   3.671   3.663  16.002  1.0776 -0.8870 -2.3974
 8891TIP3   OH248163   0.854   5.533  14.494 -0.4396  0.3797  0.0934
 8891TIP3    H148164   0.760   5.524  14.514 -0.5332 -0.2837 -0.6250
 8891TIP3    H248165   0.856   5.597  14.422 -0.4332 -0.3932 -0.6087
 8892TIP3   OH248166   0.217   1.148  11.163  0.2219 -0.1028  0.0537
 8892TIP3    H148167   0.157   1.209  11.206  1.3035  0.6342  0.5342
 8892TIP3    H248168   0.190   1.062  11.196 -0.8675  0.1676 -0.0998
 8893TIP3   OH248169   2.617   3.901  13.613 -0.0150 -0.1277  0.0335
 8893TIP3    H148170   2.552   3.970  13.624  0.1814 -0.1382  1.2801
 8893TIP3    H248171   2.577   3.841  13.550 -0.7470  0.4345 -0.0458
 8894TIP3   OH248172   0.068   4.111   4.105 -0.3864  0.2940  0.1323
 8894TIP3    H148173   0.055   4.199   4.072  0.5638 -0.0948 -1.3630
 8894TIP3    H248174   0.006   4.057   4.056 -0.8171  0.1016  0.8862
 8895TIP3   OH248175   0.512   6.146  14.918 -0.3820  0.0651 -0.4330
 8895TIP3    H148176   0.523   6.188  14.833  0.2478 -2.3620 -1.5893
 8895TIP3    H248177   0.418   6.155  14.938 -0.5160  0.6815 -1.3413
 8896TIP3   OH248178   1.226   5.180  13.783 -0.3833  1.1133  0.2923
 8896TIP3    H148179   1.251   5.104  13.836  0.9131  3.0684  2.6300
 8896TIP3    H248180   1.301   5.240  13.791 -1.2226  2.5032 -1.7639
 8897TIP3   OH248181   4.056   1.535  16.582  0.1652  0.0037 -0.5678
 8897TIP3    H148182   4.018   1.544  16.495 -0.6632  0.4009 -0.1745
 8897TIP3    H248183   4.076   1.625  16.609  1.2818 -0.1957 -0.7220
 8898TIP3   OH248184   3.374   0.414  16.599 -0.1303 -0.0419 -0.1058
 8898TIP3    H148185   3.302   0.385  16.655  0.5250 -0.5131  0.5207
 8898TIP3    H248186   3.404   0.334  16.556  1.5466 -0.2972  1.4656
 8899TIP3   OH248187   6.432   2.285  14.131 -0.1341 -0.2539 -0.2036
 8899TIP3    H148188   6.444   2.304  14.038 -0.5014  1.7075  0.1216
 8899TIP3    H248189   6.517   2.304  14.170 -0.5770  1.0082  0.1669
 8900TIP3   OH248190   1.529   6.009   1.492  0.1820 -0.2138  0.2909
 8900TIP3    H148191   1.438   6.036   1.479  1.2749  3.3591 -0.4793
 8900TIP3    H248192   1.559   5.983   1.406 -0.0372 -1.2798  0.5249
 8901TIP3   OH248193   2.323   4.061  12.914  0.0767 -0.1775 -0.2243
 8901TIP3    H148194   2.272   4.140  12.931 -0.5230  0.0627 -2.8655
 8901TIP3    H248195   2.290   3.997  12.977 -0.2407  1.3348  1.1751
 8902TIP3   OH248196   1.340   2.467  16.363 -0.7491  0.6004  0.1054
 8902TIP3    H148197   1.267   2.482  16.303 -1.0521 -0.3148  0.2307
 8902TIP3    H248198   1.323   2.380  16.399 -0.3664  0.9824  1.2240
 8903TIP3   OH248199   5.866   2.060  16.937  0.2219 -0.6614  0.5827
 8903TIP3    H148200   5.795   2.038  16.998 -1.4037 -0.2071 -1.0946
 8903TIP3    H248201   5.861   2.156  16.930  0.4092 -0.7125 -0.2359
 8904TIP3   OH248202   4.221   3.243   4.763  0.1455  0.0669  0.2759
 8904TIP3    H148203   4.256   3.308   4.701  2.2799  0.0957  1.4653
 8904TIP3    H248204   4.148   3.288   4.806  1.8256  1.8378  1.3504
 8905TIP3   OH248205   4.154   1.237  16.827 -0.5255 -0.1490  0.1192
 8905TIP3    H148206   4.104   1.236  16.746 -1.4251  0.1294  0.6636
 8905TIP3    H248207   4.096   1.196  16.891  1.0017 -2.3549  0.1496
 8906TIP3   OH248208   2.096   1.422   3.816  0.0507 -0.0433  0.0646
 8906TIP3    H148209   2.072   1.490   3.754  0.8560 -0.0145 -0.2071
 8906TIP3    H248210   2.180   1.389   3.786  0.9524  0.6808  1.7186
 8907TIP3   OH248211   5.523   1.400   4.141  0.2488 -0.0433 -0.2157
 8907TIP3    H148212   5.604   1.357   4.169  1.5758  1.7919 -1.1717
 8907TIP3    H248213   5.453   1.349   4.183  2.0107  0.7373  3.8884
 8908TIP3   OH248214   2.980   5.373  12.692 -0.8958  0.0511  0.0343
 8908TIP3    H148215   2.932   5.402  12.615  0.2470  2.0438  0.0525
 8908TIP3    H248216   3.058   5.330  12.657 -0.7698  0.2566  0.0599
 8909TIP3   OH248217   0.217   3.984   1.977 -0.2858 -0.5334 -0.2023
 8909TIP3    H148218   0.228   3.999   2.071 -0.6018 -1.2470 -0.0532
 8909TIP3    H248219   0.297   3.937   1.951  0.6266  1.2179 -0.6381
 8910TIP3   OH248220   0.941   2.030  15.167 -0.1886  0.3570  0.2573
 8910TIP3    H148221   1.032   2.000  15.172 -0.3149 -0.3492 -1.1884
 8910TIP3    H248222   0.921   2.062  15.254  1.8310  1.6210  0.2878
 8911TIP3   OH248223   5.471   5.410   2.505 -0.0254  0.3269 -0.1300
 8911TIP3    H148224   5.384   5.439   2.531  0.0235 -0.3338  0.8053
 8911TIP3    H248225   5.476   5.319   2.533  0.9183  0.3272 -0.2611
 8912TIP3   OH248226   1.276   6.478  15.277 -0.1262 -1.0167  0.0264
 8912TIP3    H148227   1.295   6.551  15.218  1.4899 -0.3538  1.3242
 8912TIP3    H248228   1.202   6.509  15.330  1.0421  0.0038  1.0898
 8913TIP3   OH248229   4.725   2.202   0.083 -0.0064  0.1324 -0.2073
 8913TIP3    H148230   4.687   2.114   0.095 -0.5861  0.6162  1.6920
 8913TIP3    H248231   4.687   2.254   0.154 -0.0196  2.0470 -1.5963
 8914TIP3   OH248232   3.688   3.694  16.337 -0.0669  0.0237 -0.3584
 8914TIP3    H148233   3.743   3.628  16.294  0.6802  0.8545 -0.6816
 8914TIP3    H248234   3.614   3.644  16.371  0.4428 -0.9745 -0.6872
 8915TIP3   OH248235   6.429   2.065   6.209  0.5105  0.0881 -0.0982
 8915TIP3    H148236   6.458   2.069   6.300  0.0253  0.3043  0.0451
 8915TIP3    H248237   6.334   2.053   6.214  0.6326 -1.1668 -0.5636
 8916TIP3   OH248238   5.943   2.618   4.938  0.2483 -0.2831 -0.3295
 8916TIP3    H148239   5.992   2.699   4.921  1.6772 -0.9293  0.6261
 8916TIP3    H248240   5.992   2.550   4.892 -0.5268 -0.7341 -0.4983
 8917TIP3   OH248241   3.280   0.633  13.124 -0.3173  0.3753 -0.1540
 8917TIP3    H148242   3.192   0.620  13.159 -0.1925  0.2861  0.1301
 8917TIP3    H248243   3.335   0.574  13.177 -0.3334 -0.7551 -1.3740
 8918TIP3   OH248244   3.539   5.029   3.126 -0.0466 -0.6817 -0.8098
 8918TIP3    H148245   3.634   5.043   3.130 -0.1822  0.1108 -0.1339
 8918TIP3    H248246   3.529   4.938   3.101  0.8995 -0.7950 -0.8008
 8919TIP3   OH248247   4.204   6.047   1.118 -0.0046  0.0613 -0.1089
 8919TIP3    H148248   4.128   6.045   1.176 -0.6832  0.0742 -0.9790
 8919TIP3    H248249   4.210   5.958   1.083 -0.2027  0.3012 -0.7693
 8920TIP3   OH248250   3.157   6.392   1.262  0.0324  0.0883  0.2008
 8920TIP3    H148251   3.111   6.309   1.269 -0.7980  0.6134  1.1894
 8920TIP3    H248252   3.107   6.443   1.199  0.8607 -0.3584 -0.8289
 8921TIP3   OH248253   0.081   4.551   0.151  0.0275 -0.1796 -0.0789
 8921TIP3    H148254   0.124   4.472   0.186  0.4682 -0.6872 -1.7157
 8921TIP3    H248255   0.151   4.616   0.148 -0.0890 -0.0353  0.2709
 8922TIP3   OH248256   3.213   1.443   3.885 -0.4634 -0.2880 -0.7230
 8922TIP3    H148257   3.271   1.379   3.927 -0.9737  0.2687  0.8513
 8922TIP3    H248258   3.201   1.410   3.796  2.8394 -0.0283 -1.3039
 8923TIP3   OH248259   1.275   2.006   3.301 -0.7229 -0.1461 -0.0636
 8923TIP3    H148260   1.359   2.004   3.254 -0.5687  0.1127  0.2016
 8923TIP3    H248261   1.210   2.015   3.232 -0.2975  3.9315 -0.0285
 8924TIP3   OH248262   1.618   5.746  15.684 -0.0622 -0.1679  0.2631
 8924TIP3    H148263   1.566   5.671  15.656  1.7976 -0.7372 -1.6947
 8924TIP3    H248264   1.706   5.712  15.698  0.7585  1.5901 -0.4287
 8925TIP3   OH248265   0.371   2.249  16.920 -0.4656  0.5142  0.2545
 8925TIP3    H148266   0.442   2.281  16.976  0.1787  0.0995 -0.3129
 8925TIP3    H248267   0.415   2.195  16.855 -1.1310  1.6916 -1.1807
 8926TIP3   OH248268   3.073   2.514  17.190 -0.0833  0.0599  0.0401
 8926TIP3    H148269   3.052   2.487  17.279 -0.3980  1.2881  0.3421
 8926TIP3    H248270   3.042   2.604  17.184  2.7355  1.0431 -0.3377
 8927TIP3   OH248271   4.433   4.580   3.238  0.0485  0.4489 -0.1471
 8927TIP3    H148272   4.483   4.577   3.320 -1.4409 -3.2423  0.7467
 8927TIP3    H248273   4.367   4.648   3.253 -0.9984 -1.0117  2.2842
 8928TIP3   OH248274   1.908   4.191  11.590 -0.7664 -0.2956  0.0429
 8928TIP3    H148275   1.991   4.214  11.633 -1.0553 -0.6768  0.8232
 8928TIP3    H248276   1.891   4.101  11.617 -1.5172 -0.1664  0.0216
 8929TIP3   OH248277   0.271   0.184  15.464  0.3775 -0.1904 -0.2944
 8929TIP3    H148278   0.293   0.191  15.557 -0.0935  1.6356 -0.3128
 8929TIP3    H248279   0.317   0.105  15.434  3.7925  1.3913  0.5571
 8930TIP3   OH248280   0.752   0.137   3.405 -0.1801  0.4627  0.1161
 8930TIP3    H148281   0.784   0.067   3.462  0.6152  1.1401  0.5155
 8930TIP3    H248282   0.782   0.218   3.446  0.1148  0.9795 -1.0784
 8931TIP3   OH248283   4.056   3.606  16.432 -0.4437 -0.6033  0.5211
 8931TIP3    H148284   4.103   3.639  16.508  1.9307  2.7040 -2.2204
 8931TIP3    H248285   3.971   3.650  16.435 -0.2298 -0.2284  1.0513
 8932TIP3   OH248286   5.819   0.263  10.789  0.4312  0.2843  0.3149
 8932TIP3    H148287   5.742   0.304  10.827 -0.0038 -0.9278  0.7677
 8932TIP3    H248288   5.785   0.189  10.739  1.2467  0.0698  0.0639
 8933TIP3   OH248289   3.591   5.672  11.555  0.3934 -0.4554  0.6862
 8933TIP3    H148290   3.546   5.734  11.613  1.3218  0.0590  0.8786
 8933TIP3    H248291   3.574   5.586  11.593  0.1278 -0.2070  1.1292
 8934TIP3   OH248292   6.238   3.786   0.437  0.0025 -0.5520  0.6135
 8934TIP3    H148293   6.150   3.794   0.400  0.0851  0.9157  0.7141
 8934TIP3    H248294   6.292   3.842   0.382  0.5637 -0.1648  1.5450
 8935TIP3   OH248295   0.530   3.167  10.452  0.4242 -0.1264 -0.0838
 8935TIP3    H148296   0.600   3.121  10.406 -0.0732 -0.2177 -0.7532
 8935TIP3    H248297   0.453   3.157  10.396  0.4739  2.1662 -0.6269
 8936TIP3   OH248298   5.153   2.122   1.012  0.6917 -0.0785  0.2428
 8936TIP3    H148299   5.239   2.107   0.974 -0.0183 -1.3276 -0.9328
 8936TIP3    H248300   5.127   2.037   1.048  0.2813  0.4805  1.3150
 8937TIP3   OH248301   6.711   0.860  12.848  0.0915  0.1560  0.0097
 8937TIP3    H148302   6.670   0.919  12.785  0.1982 -0.2412 -0.4358
 8937TIP3    H248303   6.789   0.906  12.877 -0.4667  0.7596  0.5886
 8938TIP3   OH248304   6.066   1.233  12.582  0.1575  0.4804  0.3294
 8938TIP3    H148305   6.083   1.222  12.676  1.5200 -1.3181 -0.1014
 8938TIP3    H248306   5.994   1.173  12.564  0.4381  0.2274  0.0604
 8939TIP3   OH248307   4.476   2.676   5.737  0.7011 -0.1236  0.1010
 8939TIP3    H148308   4.480   2.630   5.653  2.2058  0.3234 -0.0908
 8939TIP3    H248309   4.386   2.664   5.767  0.5273 -1.4637 -0.9137
 8940TIP3   OH248310   3.511   5.688  13.641  0.4938 -0.1494  0.2167
 8940TIP3    H148311   3.455   5.658  13.569  1.8490  0.6213 -1.1738
 8940TIP3    H248312   3.517   5.783  13.629  0.9680 -0.0440  1.1872
 8941TIP3   OH248313   2.688   6.112  15.401  0.0560 -0.3137  0.0601
 8941TIP3    H148314   2.605   6.080  15.438 -0.3293  2.8696  2.1019
 8941TIP3    H248315   2.670   6.123  15.308 -1.0588 -1.8892  0.0569
 8942TIP3   OH248316   5.929   6.706   5.233  0.4116 -0.1363  0.3315
 8942TIP3    H148317   5.912   6.782   5.177  0.3250  0.1805  0.7808
 8942TIP3    H248318   5.908   6.631   5.179  1.9867  0.1083 -0.6350
 8943TIP3   OH248319   2.827   0.685   5.612 -0.4503 -0.1213  0.0926
 8943TIP3    H148320   2.742   0.725   5.591 -0.3820 -0.0275 -0.0087
 8943TIP3    H248321   2.873   0.684   5.528 -0.5292 -0.5999  0.0548
 8944TIP3   OH248322   2.210   3.192  13.243 -0.0839 -0.5611  0.0070
 8944TIP3    H148323   2.223   3.235  13.327  0.7324 -1.4521  0.3482
 8944TIP3    H248324   2.210   3.263  13.179  0.4486  0.0092  0.6375
 8945TIP3   OH248325   2.806   2.613   4.739  0.5658 -0.1663  0.1803
 8945TIP3    H148326   2.739   2.671   4.775  0.6173  0.2909 -0.4422
 8945TIP3    H248327   2.758   2.551   4.685  0.5090 -0.7246  0.8602
 8946TIP3   OH248328   5.509   4.087   3.339  0.1246  0.1792  0.0154
 8946TIP3    H148329   5.482   4.172   3.373 -1.9862 -0.2627 -0.4770
 8946TIP3    H248330   5.515   4.031   3.417 -0.1076  0.3446  0.1522
 8947TIP3   OH248331   2.787   2.486   5.451  0.0836 -0.6643 -0.5573
 8947TIP3    H148332   2.840   2.562   5.426  0.9006 -0.7551  0.8530
 8947TIP3    H248333   2.846   2.411   5.439 -0.6014 -1.0577 -1.5784
 8948TIP3   OH248334   1.064   3.392   3.840  0.3998 -0.6863  0.2660
 8948TIP3    H148335   0.996   3.442   3.887  1.3535  1.5020 -0.5927
 8948TIP3    H248336   1.036   3.394   3.749  2.6273  2.1449 -0.4586
 8949TIP3   OH248337   5.857   6.321  15.610  0.2304 -0.0733  0.0434
 8949TIP3    H148338   5.771   6.353  15.635  1.8917  3.9102  0.9563
 8949TIP3    H248339   5.917   6.358  15.674  3.2558  1.5583 -3.5178
 8950TIP3   OH248340   3.381   1.247   3.698 -0.3129  0.2147 -0.4827
 8950TIP3    H148341   3.427   1.164   3.685  1.4950  0.6269  2.8029
 8950TIP3    H248342   3.402   1.299   3.621  0.1187 -1.6533 -1.6580
 8951TIP3   OH248343   1.003   0.910   4.512  0.4669 -0.3579  0.0371
 8951TIP3    H148344   1.047   0.978   4.563  0.8857 -1.4647  1.1873
 8951TIP3    H248345   0.912   0.939   4.506  0.4773 -0.0885  1.1879
 8952TIP3   OH248346   0.594   6.270  15.242 -0.1652  0.0042  0.1041
 8952TIP3    H148347   0.545   6.213  15.183 -1.5611  0.2863  0.9760
 8952TIP3    H248348   0.537   6.282  15.317  0.5520  1.7006  0.4048
 8953TIP3   OH248349   3.478   3.702   3.437  0.3610 -0.2029 -0.0737
 8953TIP3    H148350   3.521   3.637   3.381  1.4712 -1.4950  2.2230
 8953TIP3    H248351   3.548   3.734   3.494 -1.1455 -0.4531  1.9814
 8954TIP3   OH248352   5.787   2.780   2.217  0.3032 -0.1550  0.7443
 8954TIP3    H148353   5.697   2.758   2.243  0.5120 -0.8503  0.8774
 8954TIP3    H248354   5.842   2.722   2.270  0.7811 -0.6691 -0.3047
 8955TIP3   OH248355   4.241   0.560  16.180  0.3222  0.1604  0.1267
 8955TIP3    H148356   4.244   0.565  16.084 -0.4449 -0.0273  0.0837
 8955TIP3    H248357   4.150   0.537  16.200  0.0960  1.7266  0.9685
 8956TIP3   OH248358   0.035   4.235  11.525  0.3354 -0.5882  0.2638
 8956TIP3    H148359   0.044   4.158  11.580  0.5712 -1.3997 -0.8995
 8956TIP3    H248360   0.033   4.201  11.435  1.5982  0.8294 -0.3339
 8957TIP3   OH248361   0.392   0.075   3.432  0.1661 -0.3507 -0.1045
 8957TIP3    H148362   0.459   0.073   3.501 -0.7557 -1.4215  0.7811
 8957TIP3    H248363   0.414   0.001   3.375 -0.4008 -0.8433  0.3172
 8958TIP3   OH248364   3.367   3.154  15.329 -0.3548 -0.0376  0.2645
 8958TIP3    H148365   3.407   3.241  15.331  0.3444 -0.3537  0.2116
 8958TIP3    H248366   3.433   3.096  15.368 -0.5005 -0.6653 -0.4088
 8959TIP3   OH248367   3.498   5.679   4.680 -0.0626  0.7807  0.0934
 8959TIP3    H148368   3.409   5.676   4.716  0.4567 -1.5840  1.3260
 8959TIP3    H248369   3.542   5.748   4.728 -1.0792  1.6438 -0.1920
 8960TIP3   OH248370   3.508   0.628   4.063 -0.0055 -0.2697 -0.2549
 8960TIP3    H148371   3.497   0.695   4.131 -0.6482 -0.0492 -0.5696
 8960TIP3    H248372   3.553   0.556   4.107  1.0557  0.5284 -0.0198
 8961TIP3   OH248373   0.352   1.623  16.748 -0.4482 -0.1798  0.1042
 8961TIP3    H148374   0.427   1.632  16.807 -0.5672 -0.3466  0.2841
 8961TIP3    H248375   0.338   1.529  16.742 -0.3750 -0.1664 -0.2659
 8962TIP3   OH248376   1.702   1.590  14.062 -0.1686 -0.2261 -0.7897
 8962TIP3    H148377   1.763   1.610  13.990  2.2031 -0.3617  1.1016
 8962TIP3    H248378   1.672   1.501  14.044  1.3910 -0.7318 -0.9472
 8963TIP3   OH248379   0.978   4.486   1.445 -0.2774  0.5856  0.4805
 8963TIP3    H148380   0.883   4.501   1.440 -0.3617 -0.2309 -0.7512
 8963TIP3    H248381   1.016   4.561   1.398 -0.1630  2.1955  3.0499
 8964TIP3   OH248382   1.570   4.362  13.185 -0.2998  0.1320 -0.7447
 8964TIP3    H148383   1.575   4.426  13.113 -1.1776  1.6584  0.5126
 8964TIP3    H248384   1.647   4.381  13.238 -0.5485  0.1159 -0.3810
 8965TIP3   OH248385   0.287   4.921  13.311 -0.2265 -0.4122  0.4789
 8965TIP3    H148386   0.294   4.958  13.399  1.5447 -1.9625  1.0359
 8965TIP3    H248387   0.314   4.991  13.253 -0.1327  0.2082  1.2563
 8966TIP3   OH248388   4.147   6.711  15.192  0.3351 -0.1830  0.0754
 8966TIP3    H148389   4.136   6.735  15.284  1.2614  0.8163 -0.0630
 8966TIP3    H248390   4.059   6.715  15.155  0.5014  3.5125 -0.0435
 8967TIP3   OH248391   1.928   2.889   5.814  0.1430 -0.6249 -0.1621
 8967TIP3    H148392   1.870   2.872   5.740 -2.1299  0.2446  1.3608
 8967TIP3    H248393   2.000   2.940   5.777 -2.4646  2.4250 -1.2926
 8968TIP3   OH248394   3.340   0.296  12.846 -0.1327 -0.0054  0.3790
 8968TIP3    H148395   3.385   0.365  12.797  0.7151 -1.7029 -1.2694
 8968TIP3    H248396   3.248   0.306  12.824 -0.2005  1.4792  1.2623
 8969TIP3   OH248397   1.431   3.407  11.784 -0.0425 -0.4636  0.3919
 8969TIP3    H148398   1.506   3.350  11.801  0.9684  0.5453 -0.5344
 8969TIP3    H248399   1.435   3.424  11.690 -0.5660  0.7798  0.5811
 8970TIP3   OH248400   0.891   6.784  15.777 -0.0244  0.0076  0.4545
 8970TIP3    H148401   0.949   6.722  15.731 -0.6866 -1.2266  1.2461
 8970TIP3    H248402   0.950   6.845  15.820  0.6846 -0.8058  0.6625
 8971TIP3   OH248403   3.100   0.068  14.219 -0.1128  0.3031  0.2840
 8971TIP3    H148404   3.051   0.071  14.301  0.4939 -0.4524  0.6782
 8971TIP3    H248405   3.035   0.044  14.153 -0.2999 -0.6105  0.7945
 8972TIP3   OH248406   1.612   3.711   3.846 -0.6540  0.7091 -0.2113
 8972TIP3    H148407   1.622   3.770   3.921  0.9914 -0.0906  0.2346
 8972TIP3    H248408   1.702   3.694   3.817 -1.0906 -1.6695 -0.2479
 8973TIP3   OH248409   2.043   3.754  13.895  0.6617 -0.4518  0.1618
 8973TIP3    H148410   1.971   3.806  13.861  1.9816  1.4665  0.2126
 8973TIP3    H248411   2.043   3.673  13.843  0.0093  0.5894 -1.4626
 8974TIP3   OH248412   6.272   0.527  16.315 -0.0865  0.1361  0.2374
 8974TIP3    H148413   6.224   0.444  16.318 -0.1298  0.0837 -1.6948
 8974TIP3    H248414   6.225   0.580  16.251  1.9233  0.4001 -1.0666
 8975TIP3   OH248415   5.738   6.753   1.526  0.5259 -0.1582  0.2605
 8975TIP3    H148416   5.663   6.700   1.550 -0.4414  1.3972  0.7426
 8975TIP3    H248417   5.715   6.789   1.440  0.9624 -0.1360  0.1528
 8976TIP3   OH248418   0.577   5.860   3.364 -0.1238  0.0762 -0.8487
 8976TIP3    H148419   0.668   5.844   3.389 -1.0060 -1.3254  1.6969
 8976TIP3    H248420   0.581   5.882   3.271  2.9044  1.0177 -0.5582
 8977TIP3   OH248421   6.613   5.363  14.511 -0.3295  0.0080  0.8711
 8977TIP3    H148422   6.668   5.286  14.500  1.4245  1.1983  1.0779
 8977TIP3    H248423   6.529   5.339  14.472  0.3546 -1.8201  0.4997
 8978TIP3   OH248424   0.283   6.730  12.592 -0.2116  0.7040  0.2146
 8978TIP3    H148425   0.226   6.671  12.641  0.2075  0.1915  0.0937
 8978TIP3    H248426   0.275   6.702  12.501  0.7816  0.1570  0.2849
 8979TIP3   OH248427   4.418   5.574   2.980 -0.1845  0.9357 -0.4769
 8979TIP3    H148428   4.426   5.492   3.030  2.8934  1.1440 -0.5078
 8979TIP3    H248429   4.330   5.605   2.999 -0.9669 -1.7501  0.5399
 8980TIP3   OH248430   1.832   3.733  15.697  0.1318  0.4442  0.0946
 8980TIP3    H148431   1.784   3.655  15.724  1.4701  0.1925  1.8422
 8980TIP3    H248432   1.845   3.783  15.778 -0.3965  2.3026 -0.9413
 8981TIP3   OH248433   3.179   2.534  13.325  0.0808  0.2130 -0.3328
 8981TIP3    H148434   3.214   2.602  13.267  2.6378 -0.7490  0.0300
 8981TIP3    H248435   3.088   2.525  13.299  0.4307  1.8505 -2.2459
 8982TIP3   OH248436   5.102   5.048   1.742 -0.0268  0.4083 -0.5661
 8982TIP3    H148437   5.032   4.994   1.778 -0.0404  0.5376 -0.3988
 8982TIP3    H248438   5.177   4.988   1.734 -0.3378  0.1089 -1.3524
 8983TIP3   OH248439   6.806   3.450   5.265  0.1050  0.0930  0.2303
 8983TIP3    H148440   6.868   3.380   5.245 -1.4649 -1.0857 -0.6259
 8983TIP3    H248441   6.857   3.530   5.255  0.8958 -0.7071 -2.9372
 8984TIP3   OH248442   4.092   2.473   4.719 -0.1811 -0.1473  0.3640
 8984TIP3    H148443   4.147   2.439   4.790 -0.0310  0.5255  0.5719
 8984TIP3    H248444   4.139   2.449   4.639 -0.8222 -1.7505  0.4424
 8985TIP3   OH248445   2.074   0.556   2.078  0.3522 -0.0693 -0.3044
 8985TIP3    H148446   2.107   0.503   2.150  0.4646 -0.4377 -0.6231
 8985TIP3    H248447   2.020   0.496   2.026 -0.6225  0.4675  0.0721
 8986TIP3   OH248448   0.144   4.373  13.747 -0.0234  0.3331 -0.3660
 8986TIP3    H148449   0.150   4.334  13.660  1.1846  1.5325 -0.8422
 8986TIP3    H248450   0.211   4.328  13.798 -0.5941 -0.2267 -0.1012
 8987TIP3   OH248451   2.698   1.575   5.446 -0.1612  0.4011 -0.0283
 8987TIP3    H148452   2.756   1.564   5.371  1.0242  1.3937  0.7261
 8987TIP3    H248453   2.741   1.640   5.501 -1.2871  0.0965  1.2565
 8988TIP3   OH248454   6.613   5.632  13.132  0.1327  0.3452  0.0421
 8988TIP3    H148455   6.641   5.625  13.040  1.3969  0.0533  0.4365
 8988TIP3    H248456   6.588   5.543  13.156 -1.1603  0.6069 -0.3101
 8989TIP3   OH248457   3.521   3.574  13.863 -0.0915  0.4898  0.2568
 8989TIP3    H148458   3.615   3.561  13.862 -0.1046  0.4104 -1.3881
 8989TIP3    H248459   3.500   3.597  13.954  1.5709  1.0100  0.5149
 8990TIP3   OH248460   3.770   3.714  12.006  0.0875 -0.0472 -0.0629
 8990TIP3    H148461   3.771   3.805  12.036 -0.8405 -0.1783  0.3824
 8990TIP3    H248462   3.799   3.719  11.915 -0.8740  0.8137 -0.3355
 8991TIP3   OH248463   6.149   5.973   3.894  0.0247  0.0678 -0.1620
 8991TIP3    H148464   6.149   6.056   3.942 -0.1444  0.4809 -0.8630
 8991TIP3    H248465   6.230   5.974   3.844 -0.8413  0.6687 -1.6009
 8992TIP3   OH248466   0.548   1.384   5.840 -0.2363 -0.3429 -0.4857
 8992TIP3    H148467   0.519   1.349   5.925 -0.7754 -1.6655 -1.2099
 8992TIP3    H248468   0.487   1.347   5.777  2.0433 -1.8825 -1.8443
 8993TIP3   OH248469   2.385   2.106   3.985  0.6587 -0.0798  0.0864
 8993TIP3    H148470   2.295   2.110   4.016  0.2346 -2.3192 -0.7662
 8993TIP3    H248471   2.388   2.165   3.910 -0.7414 -1.7248 -1.3206
 8994TIP3   OH248472   2.859   1.338   4.660 -0.3226  0.4136 -0.4853
 8994TIP3    H148473   2.808   1.265   4.697 -1.2010  1.6451  0.8038
 8994TIP3    H248474   2.890   1.387   4.737 -0.2776  1.7560 -1.3385
 8995TIP3   OH248475   3.241   6.776   6.584  0.5578  0.3235 -0.5027
 8995TIP3    H148476   3.172   6.834   6.551 -1.6553 -1.6519  0.5286
 8995TIP3    H248477   3.282   6.825   6.655  2.4025  2.7897 -3.1203
 8996TIP3   OH248478   4.545   3.246  16.023 -0.2394 -0.0904 -0.5584
 8996TIP3    H148479   4.603   3.321  16.037  0.1623 -0.2200 -1.4844
 8996TIP3    H248480   4.545   3.200  16.107  0.6829  0.1278 -0.4301
 8997TIP3   OH248481   3.349   4.861   1.299  0.1002  0.0945 -0.4750
 8997TIP3    H148482   3.276   4.923   1.286 -1.3910 -0.8961  2.6392
 8997TIP3    H248483   3.393   4.893   1.378  1.9008 -0.4509 -1.2351
 8998TIP3   OH248484   2.821   4.742  13.792  0.3334  0.9005 -0.5904
 8998TIP3    H148485   2.773   4.772  13.715  0.2940 -0.6432 -1.1942
 8998TIP3    H248486   2.779   4.785  13.865  0.4630  2.5047 -1.4397
 8999TIP3   OH248487   5.714   3.569   0.722  0.2166  0.1014 -0.1662
 8999TIP3    H148488   5.757   3.494   0.764  2.6118  0.3080 -2.1636
 8999TIP3    H248489   5.637   3.531   0.680  0.0703 -0.8038  0.8948
 9000TIP3   OH248490   5.953   5.213  11.424  0.4752 -0.4944  0.1438
 9000TIP3    H148491   5.858   5.228  11.421  0.5436  0.3404  1.6631
 9000TIP3    H248492   5.974   5.178  11.338 -1.1936 -0.5301 -0.2762
 9001TIP3   OH248493   4.270   2.044   4.439 -0.2174 -0.0616 -0.3160
 9001TIP3    H148494   4.226   2.074   4.518  0.6436  1.1565 -0.3007
 9001TIP3    H248495   4.346   1.995   4.470  0.0826  0.3575 -0.3929
 9002TIP3   OH248496   4.373   2.360  14.597  0.7077 -0.6590  0.1912
 9002TIP3    H148497   4.448   2.419  14.603  0.4811 -0.5059  1.8296
 9002TIP3    H248498   4.324   2.391  14.521  0.7407  1.1144  0.8689
 9003TIP3   OH248499   5.607   3.738  12.856  0.3524 -0.3061 -0.2633
 9003TIP3    H148500   5.599   3.707  12.947  1.2002 -1.6554 -0.6305
 9003TIP3    H248501   5.673   3.806  12.859  0.6899 -0.6464  0.0712
 9004TIP3   OH248502   2.788   1.009  14.621  0.6057  0.2526 -0.0080
 9004TIP3    H148503   2.697   1.036  14.614  0.5317 -0.0874 -0.3531
 9004TIP3    H248504   2.837   1.075  14.572  0.6167  0.8130  0.7426
 9005TIP3   OH248505   3.919   2.389  16.376 -0.2027 -0.3204 -0.3062
 9005TIP3    H148506   3.957   2.353  16.456 -1.8060 -0.1853  0.5370
 9005TIP3    H248507   3.944   2.482  16.377 -1.2940 -0.0210  0.7169
 9006TIP3   OH248508   6.539   0.962   5.361 -0.5247  0.1298  0.2021
 9006TIP3    H148509   6.622   0.978   5.406 -1.5391 -1.9304  2.9983
 9006TIP3    H248510   6.562   0.902   5.290  0.2994 -1.1608  1.5123
 9007TIP3   OH248511   1.301   5.003  12.093  0.2425  0.1469 -0.3748
 9007TIP3    H148512   1.222   5.012  12.040 -0.1834  0.5350  0.3315
 9007TIP3    H248513   1.290   5.066  12.164 -0.2572 -1.9615  1.4818
 9008TIP3   OH248514   0.645   1.049  12.743  0.4539  0.2860  0.2228
 9008TIP3    H148515   0.597   0.972  12.713 -0.3949  1.0273 -0.3414
 9008TIP3    H248516   0.737   1.022  12.744  0.1812 -0.6429 -0.2250
 9009TIP3   OH248517   4.350   2.997   5.251 -0.0046 -0.4929  0.5192
 9009TIP3    H148518   4.261   2.996   5.286 -0.6763 -1.7806 -1.1676
 9009TIP3    H248519   4.375   2.905   5.245  1.3483 -0.1579  0.7121
 9010TIP3   OH248520   1.406   4.765  10.795  0.4379 -0.4434  0.3799
 9010TIP3    H148521   1.446   4.830  10.853 -0.9434  0.1063  0.7385
 9010TIP3    H248522   1.369   4.818  10.723  0.8495 -0.9899 -0.2362
 9011TIP3   OH248523   5.148   3.894  15.409 -0.3602 -0.3938  0.0707
 9011TIP3    H148524   5.210   3.933  15.471 -1.2285  0.7120  0.2568
 9011TIP3    H248525   5.183   3.916  15.323 -0.2845 -0.1079  0.1740
 9012TIP3   OH248526   4.115   1.084  16.522 -0.2856 -0.3163 -0.1296
 9012TIP3    H148527   4.143   1.173  16.501 -0.2707 -0.8027 -2.3142
 9012TIP3    H248528   4.189   1.029  16.497 -1.3727 -1.1855 -1.5597
 9013TIP3   OH248529   6.776   0.753  14.821  0.2759  0.1785  0.3904
 9013TIP3    H148530   6.869   0.731  14.826  0.3363  0.3387  0.0052
 9013TIP3    H248531   6.761   0.773  14.729  0.1583  1.4395  0.6702
 9014TIP3   OH248532   5.223   2.161  16.055  0.1583 -0.0652  0.4896
 9014TIP3    H148533   5.222   2.067  16.074  1.0865 -0.1633  0.0765
 9014TIP3    H248534   5.188   2.169  15.967 -1.5995  0.1456  1.1981
 9015TIP3   OH248535   6.711   1.354   4.808  0.9677 -0.2701  0.2306
 9015TIP3    H148536   6.636   1.296   4.816  1.3963 -0.6422  1.9287
 9015TIP3    H248537   6.691   1.411   4.735 -0.4445 -1.1252 -0.0573
 9016TIP3   OH248538   2.730   4.460  16.039 -0.0787  0.0258  0.3479
 9016TIP3    H148539   2.748   4.521  15.967 -0.6446 -0.1501  0.0596
 9016TIP3    H248540   2.647   4.419  16.017  0.4327 -1.0727  0.3878
 9017TIP3   OH248541   6.063   1.727   1.311  0.3993 -0.0405  0.1471
 9017TIP3    H148542   6.036   1.713   1.221 -0.3030 -2.9043  0.7372
 9017TIP3    H248543   6.154   1.697   1.315  0.5754  0.5083  0.2830
 9018TIP3   OH248544   4.058   6.172   5.494 -0.0884 -0.1533 -0.6070
 9018TIP3    H148545   4.120   6.102   5.515 -1.0274 -0.5779  0.9225
 9018TIP3    H248546   3.977   6.145   5.539 -1.2254  0.6365 -2.1276
 9019TIP3   OH248547   1.096   0.579   2.831 -0.2665  0.6687  0.1475
 9019TIP3    H148548   1.025   0.636   2.802 -0.1209  1.3466  1.1156
 9019TIP3    H248549   1.175   0.620   2.798 -0.2043  0.7544  0.3986
 9020TIP3   OH248550   0.922   2.220   4.060 -0.3981  0.1690  0.0466
 9020TIP3    H148551   1.008   2.177   4.054 -0.4694  0.0648 -0.2381
 9020TIP3    H248552   0.860   2.148   4.065 -0.5496  0.2380 -0.8554
 9021TIP3   OH248553   6.360   2.910  15.703 -0.0871 -0.8527  0.0747
 9021TIP3    H148554   6.431   2.853  15.733  1.2762  0.9589  0.3599
 9021TIP3    H248555   6.356   2.979  15.769  0.4270  1.1321 -1.8998
 9022TIP3   OH248556   1.834   6.578   2.075  0.0951 -0.5297 -0.1067
 9022TIP3    H148557   1.838   6.484   2.089  0.6947 -0.2932  1.3768
 9022TIP3    H248558   1.741   6.597   2.063  0.1268 -1.5396 -2.1313
 9023TIP3   OH248559   2.544   4.762  14.983 -0.6745 -0.3942 -0.0479
 9023TIP3    H148560   2.462   4.720  15.009 -1.2855 -0.8975 -2.6875
 9023TIP3    H248561   2.519   4.853  14.965  0.5601  1.1915  5.2056
 9024TIP3   OH248562   1.616   6.803  16.021 -0.6245  0.2239 -0.0169
 9024TIP3    H148563   1.591   6.876  16.077  1.5049  1.4452 -0.6088
 9024TIP3    H248564   1.681   6.754  16.072 -0.3384  0.0628 -0.5299
 9025TIP3   OH248565   3.996   1.392  15.847  0.3656 -0.2035 -0.5533
 9025TIP3    H148566   3.972   1.342  15.924  0.6541  0.0503 -0.2956
 9025TIP3    H248567   3.919   1.389  15.791  0.1731 -0.4260 -0.2764
 9026TIP3   OH248568   0.461   6.283   0.844  0.1925  0.1471  0.3262
 9026TIP3    H148569   0.388   6.226   0.818 -0.1685  0.0120  1.5727
 9026TIP3    H248570   0.484   6.252   0.932  1.5272  0.4187  0.0699
 9027TIP3   OH248571   5.818   1.373   1.317 -0.1106  0.6429  0.4157
 9027TIP3    H148572   5.756   1.309   1.351 -1.9377  2.9409  1.5418
 9027TIP3    H248573   5.849   1.420   1.394 -0.4017  2.5070 -0.5826
 9028TIP3   OH248574   1.254   1.786  12.926  0.3387  0.3030  0.0106
 9028TIP3    H148575   1.255   1.761  13.018 -1.6255  0.0683 -0.0109
 9028TIP3    H248576   1.292   1.874  12.925  1.4525 -0.1518  0.8804
 9029TIP3   OH248577   1.728   1.533  12.415  0.2239 -0.3969  0.5205
 9029TIP3    H148578   1.757   1.453  12.459  1.0372 -0.1006  0.5310
 9029TIP3    H248579   1.804   1.560  12.362 -0.2130  0.0950  0.1419
 9030TIP3   OH248580   3.894   6.727   3.159 -0.0958  1.0001 -0.2655
 9030TIP3    H148581   3.802   6.729   3.131  0.4695 -1.4344 -2.4421
 9030TIP3    H248582   3.895   6.664   3.231 -0.4109  2.4564  1.0597
 9031TIP3   OH248583   3.195   1.850  11.069  0.0410 -0.2782 -0.3323
 9031TIP3    H148584   3.165   1.792  10.999  0.6411 -1.1687  0.1373
 9031TIP3    H248585   3.151   1.818  11.148 -0.2736  0.4325 -0.2126
 9032TIP3   OH248586   2.945   2.777   3.616 -0.0340  0.1542 -0.2114
 9032TIP3    H148587   2.999   2.856   3.618  1.2668 -0.6898 -1.0487
 9032TIP3    H248588   2.981   2.722   3.685 -1.5212  0.6469  0.9795
 9033TIP3   OH248589   5.685   1.835  16.163 -0.2508  0.2542  0.2262
 9033TIP3    H148590   5.597   1.826  16.200 -0.4624  0.7001 -0.1739
 9033TIP3    H248591   5.674   1.821  16.069  0.2334 -0.5005  0.2687
 9034TIP3   OH248592   5.469   2.157   0.987  0.2482  0.5093 -0.1631
 9034TIP3    H148593   5.500   2.227   1.045  0.9027  1.5425 -1.7214
 9034TIP3    H248594   5.528   2.084   1.006 -0.6288  0.2360  1.6903
 9035TIP3   OH248595   2.522   5.681  14.155 -0.0432  0.3545 -0.0326
 9035TIP3    H148596   2.440   5.727  14.176 -0.0458  0.4376 -0.2270
 9035TIP3    H248597   2.539   5.703  14.064  0.3047  0.4946  0.0689
 9036TIP3   OH248598   1.697   6.107   6.614  0.0270  0.1198  0.5347
 9036TIP3    H148599   1.638   6.046   6.658  1.6615 -1.3298  0.7762
 9036TIP3    H248600   1.645   6.186   6.602 -0.8467  0.1737  4.0551
 9037TIP3   OH248601   3.813   1.955  12.489 -0.1120 -0.3097  0.4865
 9037TIP3    H148602   3.749   1.985  12.555  0.2674 -0.6616  1.0141
 9037TIP3    H248603   3.885   1.919  12.540  0.4072 -0.1371 -0.1162
 9038TIP3   OH248604   5.998   2.006   1.329  0.7874 -0.1700 -0.2153
 9038TIP3    H148605   6.019   1.934   1.389 -1.6705  0.2088  1.1548
 9038TIP3    H248606   5.977   1.962   1.247 -0.3601 -1.0214  0.5172
 9039TIP3   OH248607   6.051   1.414  10.807 -0.3180 -0.3954 -0.0634
 9039TIP3    H148608   5.992   1.484  10.779  0.0072 -0.4744 -0.9435
 9039TIP3    H248609   6.119   1.412  10.741 -0.0854 -1.2549  0.2005
 9040TIP3   OH248610   3.981   5.803   0.063  0.5821  0.2679 -0.0433
 9040TIP3    H148611   4.071   5.807   0.094  0.3873  2.0859  0.3483
 9040TIP3    H248612   3.942   5.885   0.093 -1.2102 -0.5184 -0.1901
 9041TIP3   OH248613   4.145   2.234   0.801 -0.1927  0.3316 -0.1809
 9041TIP3    H148614   4.119   2.264   0.714  1.1066  1.3378 -0.2474
 9041TIP3    H248615   4.078   2.269   0.859 -0.1055  1.1748 -0.5767
 9042TIP3   OH248616   5.743   6.131   5.549 -0.3693  0.2782  0.1173
 9042TIP3    H148617   5.719   6.125   5.642 -0.0983 -0.5450  0.1421
 9042TIP3    H248618   5.837   6.111   5.548 -0.9982 -2.9347 -0.6770
 9043TIP3   OH248619   4.821   5.933   1.568 -0.3719  0.1603  0.2318
 9043TIP3    H148620   4.850   5.942   1.477  0.2844 -1.7096  0.2228
 9043TIP3    H248621   4.762   5.857   1.567  0.5035 -0.5595  1.5408
 9044TIP3   OH248622   2.246   2.668  14.215 -0.0395 -0.0705  0.3629
 9044TIP3    H148623   2.331   2.693  14.178 -0.0930  1.0171  0.9477
 9044TIP3    H248624   2.198   2.630  14.141  1.0804 -1.0233  0.1163
 9045TIP3   OH248625   2.942   6.470   4.835 -0.0261 -0.3083  0.0094
 9045TIP3    H148626   2.917   6.394   4.782  0.3035  0.3160 -1.0799
 9045TIP3    H248627   2.915   6.545   4.782  0.9787  0.3359  0.3983
 9046TIP3   OH248628   4.786   3.904  12.246  0.2725 -0.2388  0.2343
 9046TIP3    H148629   4.814   3.960  12.174  0.6660 -0.8016 -0.0547
 9046TIP3    H248630   4.703   3.941  12.274 -0.1270 -0.3043 -0.8329
 9047TIP3   OH248631   0.501   5.780   1.956  0.1985 -0.4067  0.2496
 9047TIP3    H148632   0.558   5.834   1.901  0.1947 -0.5551  0.0984
 9047TIP3    H248633   0.510   5.817   2.043  0.4979 -0.4051  0.2202
 9048TIP3   OH248634   5.898   3.274   4.573 -0.1723 -0.0320 -0.1838
 9048TIP3    H148635   5.975   3.327   4.552  1.6961 -2.1113  1.2451
 9048TIP3    H248636   5.847   3.329   4.632 -0.1408  1.6170 -1.6373
 9049TIP3   OH248637   3.047   1.352   1.650 -0.5988  0.5302 -0.5934
 9049TIP3    H148638   3.002   1.326   1.570 -0.0669  1.3658 -1.1782
 9049TIP3    H248639   3.087   1.272   1.683 -4.8037 -0.8418  1.4804
 9050TIP3   OH248640   4.788   5.469  10.899  0.2431  0.2027 -0.3557
 9050TIP3    H148641   4.861   5.434  10.950 -0.9140 -0.1190  1.0910
 9050TIP3    H248642   4.828   5.497  10.817  2.0520  0.3303  0.5499
 9051TIP3   OH248643   5.415   5.636  12.105  0.3774 -0.6858 -0.3949
 9051TIP3    H148644   5.451   5.611  12.020 -0.1419  0.0910 -0.8413
 9051TIP3    H248645   5.369   5.718  12.089 -0.5460 -1.0315  0.4313
 9052TIP3   OH248646   3.898   0.309   2.347  0.4005 -0.4352 -0.2947
 9052TIP3    H148647   3.851   0.373   2.401  1.6875  0.3787 -0.1286
 9052TIP3    H248648   3.941   0.252   2.411  2.3393  0.8327 -0.4159
 9053TIP3   OH248649   6.289   1.446  15.582 -0.1105  0.1867  0.2412
 9053TIP3    H148650   6.227   1.384  15.620  0.5839 -1.0667 -0.6575
 9053TIP3    H248651   6.235   1.508  15.533 -0.6388 -1.1989 -0.9622
 9054TIP3   OH248652   1.230   6.187  15.175  0.3387  0.2302  0.2808
 9054TIP3    H148653   1.275   6.114  15.217 -0.1240 -0.8271 -1.0339
 9054TIP3    H248654   1.272   6.265  15.211  1.4087 -0.6958  1.0607
 9055TIP3   OH248655   5.115   4.599   4.369  0.3551 -0.4225 -0.3614
 9055TIP3    H148656   5.021   4.608   4.354  0.1233  1.7873  2.1131
 9055TIP3    H248657   5.123   4.528   4.433  0.3513 -0.2268 -0.1466
 9056TIP3   OH248658   6.213   4.422   2.256 -0.4119  0.7634  0.4185
 9056TIP3    H148659   6.223   4.516   2.249 -1.2326  0.7298 -1.5265
 9056TIP3    H248660   6.302   4.388   2.262 -0.0146  1.4982 -1.1809
 9057TIP3   OH248661   3.255   6.040  15.149  0.2618  0.3172  0.1935
 9057TIP3    H148662   3.208   6.061  15.068 -0.6108 -1.4301  0.2345
 9057TIP3    H248663   3.252   6.121  15.199 -0.5139  0.9734 -0.8806
 9058TIP3   OH248664   5.075   0.621   0.944 -0.2793 -0.1563  0.5296
 9058TIP3    H148665   5.119   0.706   0.946  0.4619 -0.5520  1.1877
 9058TIP3    H248666   5.072   0.598   0.851 -0.7877  0.7384  0.3144
 9059TIP3   OH248667   3.408   2.584   2.125 -0.5208  0.3069  0.2710
 9059TIP3    H148668   3.330   2.559   2.075  0.6129 -1.8686 -0.4596
 9059TIP3    H248669   3.471   2.613   2.058  0.2311 -0.5158  0.6121
 9060TIP3   OH248670   3.664   1.067   2.999  0.1756  0.6711  0.1265
 9060TIP3    H148671   3.616   1.149   2.984 -1.3601 -0.3461 -0.6293
 9060TIP3    H248672   3.642   1.043   3.089 -3.6926 -1.6163 -1.2844
 9061TIP3   OH248673   3.434   2.081   6.192 -0.0388  0.0735  0.2437
 9061TIP3    H148674   3.352   2.078   6.143  0.2645 -3.6558 -0.1434
 9061TIP3    H248675   3.423   2.155   6.253 -3.8733 -0.7128  0.6127
 9062TIP3   OH248676   3.607   4.507   3.315 -0.1593  0.0913 -0.1610
 9062TIP3    H148677   3.581   4.456   3.392  1.0682 -0.4850 -0.1175
 9062TIP3    H248678   3.674   4.567   3.347  0.7196 -0.4980 -0.8874
 9063TIP3   OH248679   1.317   3.583  14.672  0.2795 -0.0129 -0.4184
 9063TIP3    H148680   1.318   3.635  14.592 -0.5707 -0.8975 -1.0205
 9063TIP3    H248681   1.293   3.495  14.642 -0.1731 -0.3167  0.8224
 9064TIP3   OH248682   0.208   6.346   3.567  0.0690 -0.0510  0.9936
 9064TIP3    H148683   0.249   6.323   3.651  0.4465  0.6322  0.9999
 9064TIP3    H248684   0.266   6.308   3.501  1.5299  2.1188  0.9573
 9065TIP3   OH248685   4.679   2.571  13.823 -0.0264 -0.1749 -0.2840
 9065TIP3    H148686   4.750   2.512  13.796 -0.8267 -1.8000  1.0123
 9065TIP3    H248687   4.600   2.518  13.813 -1.0626  1.6426 -1.7599
 9066TIP3   OH248688   2.703   2.271   1.854 -0.7980  0.3457  0.3330
 9066TIP3    H148689   2.616   2.288   1.891 -1.4357 -1.4374 -0.2682
 9066TIP3    H248690   2.747   2.217   1.920 -0.6240  0.1677  0.0728
 9067TIP3   OH248691   6.431   3.261   0.862  0.5154 -0.7271 -0.6252
 9067TIP3    H148692   6.413   3.167   0.854  1.3018 -0.7168 -2.9836
 9067TIP3    H248693   6.515   3.267   0.907  0.5910 -1.1554 -0.7130
 9068TIP3   OH248694   6.609   4.206   4.433 -0.2286  0.4332  0.0624
 9068TIP3    H148695   6.641   4.149   4.502  1.9132  0.6998 -0.6946
 9068TIP3    H248696   6.579   4.145   4.365  2.1780  0.1697 -0.8027
 9069TIP3   OH248697   3.941   5.119  13.407  0.3346  0.6482  0.7559
 9069TIP3    H148698   4.021   5.072  13.429 -0.0910  0.5240  2.0655
 9069TIP3    H248699   3.967   5.177  13.335  0.5714 -2.4431 -1.7823
 9070TIP3   OH248700   0.177   4.208  12.980  0.2156 -0.7138  0.2847
 9070TIP3    H148701   0.130   4.240  12.903  2.1509  1.4522 -0.0310
 9070TIP3    H248702   0.137   4.253  13.054  0.8510  0.0727  0.1552
 9071TIP3   OH248703   6.402   6.159   0.270  0.7209 -0.6544 -0.0908
 9071TIP3    H148704   6.383   6.223   0.337  3.1743 -1.4137  1.4143
 9071TIP3    H248705   6.479   6.194   0.225  0.9022 -1.6026 -0.5308
 9072TIP3   OH248706   3.272   6.251  13.702  0.6988 -0.0193 -0.2616
 9072TIP3    H148707   3.343   6.251  13.766 -0.3772 -2.9280  1.0198
 9072TIP3    H248708   3.298   6.187  13.636  1.0103  1.7178 -1.8574
 9073TIP3   OH248709   0.090   1.450   2.252 -0.0939  0.6474  0.2108
 9073TIP3    H148710   0.136   1.480   2.174  0.6559  1.4027  0.9318
 9073TIP3    H248711   0.158   1.408   2.305 -0.6670 -0.1867  0.2985
 9074TIP3   OH248712   5.418   0.678   2.624 -0.0802 -0.5901 -0.2602
 9074TIP3    H148713   5.341   0.736   2.628  0.4507  0.2232 -1.4262
 9074TIP3    H248714   5.447   0.684   2.533  0.9977 -1.3923  0.0243
 9075TIP3   OH248715   2.403   1.514   1.182 -0.2100  0.1565 -0.3883
 9075TIP3    H148716   2.337   1.456   1.219  1.0109 -0.9010  0.1937
 9075TIP3    H248717   2.428   1.571   1.254 -0.4585  0.5346 -0.5993
 9076TIP3   OH248718   2.238   1.129   4.791  0.3234  1.1427 -0.7580
 9076TIP3    H148719   2.262   1.172   4.873 -0.2004 -0.4074  0.2354
 9076TIP3    H248720   2.142   1.129   4.791  0.2388 -2.2454  0.5303
 9077TIP3   OH248721   3.599   0.341   3.642 -0.3153 -0.4992  0.5523
 9077TIP3    H148722   3.574   0.297   3.561 -0.1935  0.9946 -0.3131
 9077TIP3    H248723   3.538   0.307   3.708  0.2362 -2.4793  0.0655
 9078TIP3   OH248724   0.441   2.309  16.455  0.3933 -0.1505 -0.1733
 9078TIP3    H148725   0.347   2.327  16.455  0.5408  0.6126 -0.2453
 9078TIP3    H248726   0.453   2.249  16.528 -0.2825 -0.9337 -0.6879
 9079TIP3   OH248727   4.840   4.563   4.309 -0.1904  0.5836 -0.3288
 9079TIP3    H148728   4.790   4.534   4.386 -3.7549 -2.3564 -3.5431
 9079TIP3    H248729   4.801   4.648   4.286 -2.4224 -0.7493 -1.6143
 9080TIP3   OH248730   3.281   5.619  13.478 -0.1002 -0.3697 -0.4176
 9080TIP3    H148731   3.289   5.524  13.468 -1.3998 -0.4995 -0.3679
 9080TIP3    H248732   3.261   5.650  13.389  0.3099 -0.1403 -0.4316
 9081TIP3   OH248733   5.837   0.348  14.015 -0.3718 -0.0209  0.4036
 9081TIP3    H148734   5.799   0.299  14.089  0.6141 -1.5063 -0.0638
 9081TIP3    H248735   5.811   0.298  13.938 -0.8169  1.1620 -0.2282
 9082TIP3   OH248736   4.933   5.263  13.340 -1.0653 -0.0955 -0.0437
 9082TIP3    H148737   4.955   5.219  13.258  1.0935 -0.4197  0.6919
 9082TIP3    H248738   4.838   5.252  13.348 -1.1675 -0.8780 -2.0071
 9083TIP3   OH248739   3.078   1.504   6.129 -0.0690 -0.5129 -0.6541
 9083TIP3    H148740   3.088   1.497   6.034 -1.2722  0.9644 -0.9054
 9083TIP3    H248741   3.161   1.539   6.159  0.4502 -1.3239 -1.1039
 9084TIP3   OH248742   0.378   1.913  13.666 -0.0515 -0.1862 -0.4308
 9084TIP3    H148743   0.467   1.885  13.642 -0.2998 -0.2719 -1.2770
 9084TIP3    H248744   0.379   2.008  13.651 -0.1816 -0.2270 -0.6956
 9085TIP3   OH248745   1.709   1.717   4.831  0.1788  0.1533 -0.6940
 9085TIP3    H148746   1.686   1.795   4.781 -2.6096 -0.7420 -0.9204
 9085TIP3    H248747   1.757   1.662   4.769  2.1403  1.6471 -0.5382
 9086TIP3   OH248748   0.425   0.377  17.033 -0.1937  0.2325 -0.0519
 9086TIP3    H148749   0.332   0.356  17.040  0.2669 -1.5050  1.3201
 9086TIP3    H248750   0.441   0.441  17.102 -0.0412 -0.8212  0.9223
 9087TIP3   OH248751   2.326   3.646   0.210  0.0650 -0.0354 -0.1655
 9087TIP3    H148752   2.367   3.661   0.124  0.2724 -2.1420 -0.4696
 9087TIP3    H248753   2.257   3.582   0.192 -0.0577 -0.2906  1.1933
 9088TIP3   OH248754   6.677   4.976  14.301  0.2096  0.5268  0.2083
 9088TIP3    H148755   6.699   5.065  14.274 -2.2552  1.0310 -0.2751
 9088TIP3    H248756   6.700   4.921  14.227  0.6298  0.9270  0.0451
 9089TIP3   OH248757   2.359   5.265  10.986 -0.1331 -0.6915  0.1433
 9089TIP3    H148758   2.438   5.305  10.949  0.3932 -0.3837  1.5982
 9089TIP3    H248759   2.326   5.209  10.915 -1.0596  2.4896 -2.0534
 9090TIP3   OH248760   0.843   5.100   2.557  0.1696  0.3107  0.1060
 9090TIP3    H148761   0.830   5.121   2.465  0.5779 -1.5165 -0.3754
 9090TIP3    H248762   0.919   5.153   2.583  0.8496 -0.1475 -0.9427
 9091TIP3   OH248763   0.779   6.226  11.293  0.0043 -0.0525  0.4689
 9091TIP3    H148764   0.764   6.158  11.228 -1.8950  0.9218 -0.1337
 9091TIP3    H248765   0.709   6.289  11.279  1.7113  2.0215  1.0477
 9092TIP3   OH248766   2.849   5.824  12.058  0.3467 -0.5806 -0.0601
 9092TIP3    H148767   2.823   5.888  11.992 -2.0917 -2.0105 -0.5431
 9092TIP3    H248768   2.911   5.766  12.012  1.2044  0.3775 -0.1214
 9093TIP3   OH248769   0.483   2.718   2.763 -0.0468 -0.4060  0.2950
 9093TIP3    H148770   0.516   2.777   2.695 -1.2891  0.3394  0.3105
 9093TIP3    H248771   0.543   2.643   2.762  0.0627 -0.3057 -1.4743
 9094TIP3   OH248772   4.510   2.155  14.368  1.3104  0.7055 -0.2373
 9094TIP3    H148773   4.450   2.228  14.383 -0.7242 -0.9474 -0.0357
 9094TIP3    H248774   4.532   2.161  14.275 -0.0058  0.7312 -0.5512
 9095TIP3   OH248775   0.006   4.343   3.362 -0.7533 -0.1701 -0.3147
 9095TIP3    H148776   0.051   4.259   3.364 -2.0493 -0.8851  1.2604
 9095TIP3    H248777  -0.037   4.346   3.277 -1.1614 -1.4006 -0.1723
 9096TIP3   OH248778   2.346   6.023  11.113 -0.0991 -0.0105  0.1054
 9096TIP3    H148779   2.402   6.057  11.043  0.2518 -1.2947 -0.2558
 9096TIP3    H248780   2.266   6.075  11.108 -0.1106 -0.1601 -1.3221
 9097TIP3   OH248781   6.181   3.297   3.953 -0.0816 -0.0305  0.6107
 9097TIP3    H148782   6.106   3.320   3.898 -0.8563 -2.2461  0.6907
 9097TIP3    H248783   6.233   3.377   3.957 -1.5835  1.0553 -0.8267
 9098TIP3   OH248784   3.269   2.456  16.504  1.1270 -0.2118 -0.9361
 9098TIP3    H148785   3.327   2.479  16.576 -0.6401 -1.7972  1.0422
 9098TIP3    H248786   3.255   2.538  16.457  0.4865  1.3472  1.8539
 9099TIP3   OH248787   5.467   3.640   4.109 -0.0501  0.2204  0.7677
 9099TIP3    H148788   5.449   3.653   4.016 -1.1301 -1.1506  0.7792
 9099TIP3    H248789   5.560   3.618   4.113 -0.3574 -1.2909 -0.1510
 9100TIP3   OH248790   3.289   2.649  11.332  0.4627  0.7213 -0.4822
 9100TIP3    H148791   3.249   2.566  11.360  0.5870  0.3746 -1.3019
 9100TIP3    H248792   3.382   2.628  11.322  0.5541  1.0563 -0.3495
 9101TIP3   OH248793   6.781   1.620  13.328  0.0159 -0.2107 -0.3276
 9101TIP3    H148794   6.811   1.532  13.351  1.2310  0.2195 -0.2488
 9101TIP3    H248795   6.785   1.669  13.411 -2.7293 -0.6347  0.1162
 9102TIP3   OH248796   3.078   1.659   4.750 -0.5892  0.3586  0.3436
 9102TIP3    H148797   3.152   1.599   4.749 -0.1815  0.8722 -0.5529
 9102TIP3    H248798   3.001   1.602   4.755 -0.2060 -0.2281 -0.4253
 9103TIP3   OH248799   3.411   5.185   2.321  0.1012 -0.3263 -0.0727
 9103TIP3    H148800   3.402   5.266   2.271 -0.2330 -0.0458  0.4313
 9103TIP3    H248801   3.364   5.120   2.269  1.2727 -0.4460 -1.0118
 9104TIP3   OH248802   1.856   3.829   1.836  0.5290  0.3178  0.6413
 9104TIP3    H148803   1.789   3.885   1.876  0.8463  0.1708  1.3973
 9104TIP3    H248804   1.894   3.882   1.767 -0.9398  0.1060 -0.3407
 9105TIP3   OH248805   2.451   4.829  16.179 -0.0550 -0.0969 -0.0893
 9105TIP3    H148806   2.391   4.903  16.165 -0.1260 -0.0456  0.4872
 9105TIP3    H248807   2.397   4.752  16.161 -0.4428 -0.0717  0.9188
 9106TIP3   OH248808   1.130   4.685  10.605  0.5864 -0.2091  0.0426
 9106TIP3    H148809   1.073   4.628  10.554  0.3679 -1.3467  1.5391
 9106TIP3    H248810   1.216   4.674  10.564  0.4309 -1.1585 -0.0464
 9107TIP3   OH248811   5.472   1.575  16.353  0.1004 -0.2550 -0.5466
 9107TIP3    H148812   5.399   1.536  16.401 -0.6352  0.9157 -0.7016
 9107TIP3    H248813   5.549   1.527  16.385 -0.7385 -1.6639 -0.5571
 9108TIP3   OH248814   0.371   0.619  12.076 -0.2351 -0.0838  0.3216
 9108TIP3    H148815   0.276   0.617  12.062 -0.1117  2.2869 -1.1579
 9108TIP3    H248816   0.381   0.638  12.169 -1.2586  1.1882  0.1895
 9109TIP3   OH248817   3.721   0.907  16.875 -0.2043 -0.3570 -0.4685
 9109TIP3    H148818   3.740   0.960  16.953  0.7824  1.0756 -1.6625
 9109TIP3    H248819   3.807   0.895  16.833 -0.8888 -0.2047 -1.9198
 9110TIP3   OH248820   0.958   3.365  12.427 -0.1861 -0.3970  0.5234
 9110TIP3    H148821   1.019   3.427  12.467 -1.2285  1.2849 -0.4033
 9110TIP3    H248822   0.987   3.359  12.336 -2.3642  1.7738 -0.3880
 9111TIP3   OH248823   2.705   2.795  15.638 -0.4957 -0.1707  0.0068
 9111TIP3    H148824   2.681   2.816  15.728  1.2937 -1.3461  0.7833
 9111TIP3    H248825   2.641   2.730  15.611  0.0597 -1.1778  1.0766
 9112TIP3   OH248826   1.485   6.434  16.578  0.2864 -0.2433  0.3059
 9112TIP3    H148827   1.566   6.471  16.543 -0.5071  0.3341 -0.9670
 9112TIP3    H248828   1.433   6.413  16.501 -1.9140  1.9418  1.1390
 9113TIP3   OH248829   2.697   4.326  16.924 -0.6626 -0.4955  0.0869
 9113TIP3    H148830   2.614   4.344  16.969 -0.7782  0.5681 -0.5416
 9113TIP3    H248831   2.674   4.325  16.831 -0.1602 -1.2881 -0.0335
 9114TIP3   OH248832   4.636   6.199   0.606  0.0422  0.3346  0.4926
 9114TIP3    H148833   4.559   6.176   0.553 -1.0180  0.5688  1.9145
 9114TIP3    H248834   4.618   6.288   0.637  0.5758  0.1239  1.4190
 9115TIP3   OH248835   0.127   2.593  14.978  0.0709  0.2352 -0.3447
 9115TIP3    H148836   0.132   2.511  15.027  0.3610  1.1500  1.1851
 9115TIP3    H248837   0.218   2.613  14.955  0.2095  1.0864  0.9126
 9116TIP3   OH248838   6.792   0.702   4.877  0.2308  0.0382 -0.2027
 9116TIP3    H148839   6.720   0.718   4.817 -0.4401 -0.6075  0.4080
 9116TIP3    H248840   6.801   0.607   4.879  0.9458  0.1002 -0.0869
 9117TIP3   OH248841   1.614   5.491  17.098 -0.2031 -0.5329 -0.2355
 9117TIP3    H148842   1.628   5.534  17.014 -0.0737 -1.5992 -0.7688
 9117TIP3    H248843   1.596   5.400  17.075  1.1012 -1.1102  0.9504
 9118TIP3   OH248844   4.455   1.686   6.827  0.9032 -0.0310 -0.3038
 9118TIP3    H148845   4.427   1.769   6.789 -2.7504  0.6755  3.4831
 9118TIP3    H248846   4.532   1.709   6.879  0.2986  0.8872  0.2081
 9119TIP3   OH248847   0.645   5.832  14.301 -0.2937  0.2379 -0.1766
 9119TIP3    H148848   0.740   5.832  14.301 -0.2260 -0.8231  2.7234
 9119TIP3    H248849   0.621   5.758  14.246  0.7187 -2.3184  2.6795
 9120TIP3   OH248850   0.914   2.276  17.070 -0.0133 -0.3351 -0.1100
 9120TIP3    H148851   0.836   2.230  17.102  0.9309 -1.1390  1.1031
 9120TIP3    H248852   0.893   2.369  17.080 -0.3605 -0.5523  1.3622
 9121TIP3   OH248853   0.580   4.155  11.971  0.6258  0.1483 -0.2730
 9121TIP3    H148854   0.648   4.191  12.028  0.7307  2.6452 -1.8953
 9121TIP3    H248855   0.571   4.219  11.901 -2.3376 -0.8801 -0.9118
 9122TIP3   OH248856   6.184   2.180  15.628 -0.1036  0.4173 -0.1405
 9122TIP3    H148857   6.195   2.270  15.596 -1.0271  0.2214 -1.0111
 9122TIP3    H248858   6.214   2.184  15.719  1.4030  1.2398 -0.6609
 9123TIP3   OH248859   5.221   3.736   1.727  0.4975  0.2867 -0.1000
 9123TIP3    H148860   5.299   3.791   1.719 -0.2827  1.4947  0.5116
 9123TIP3    H248861   5.148   3.797   1.721 -0.3973 -0.7574  0.0208
 9124TIP3   OH248862   4.063   1.903  11.078  0.8488  0.5687  0.1999
 9124TIP3    H148863   4.008   1.830  11.050  1.6147  0.6800 -1.6289
 9124TIP3    H248864   4.139   1.900  11.020  1.8490  1.6122  1.4156
 9125TIP3   OH248865   6.114   4.128   5.714 -0.2396 -0.2848  0.0424
 9125TIP3    H148866   6.176   4.200   5.719  1.2810 -1.2573 -3.4683
 9125TIP3    H248867   6.028   4.170   5.715  0.4903  1.2635  1.9893
 9126TIP3   OH248868   0.267   6.092   4.019  0.0218 -0.1475 -0.3443
 9126TIP3    H148869   0.185   6.141   4.030 -0.4827 -0.9832 -0.3438
 9126TIP3    H248870   0.308   6.131   3.942  0.7626  1.8419  1.0033
 9127TIP3   OH248871   1.723   6.376   0.462  0.0477 -0.2145 -0.1232
 9127TIP3    H148872   1.672   6.389   0.542  0.7797 -0.7847  0.4402
 9127TIP3    H248873   1.711   6.284   0.440 -0.8337  0.1418 -1.1443
 9128TIP3   OH248874   0.898   4.486   3.884 -0.5822 -0.0467  0.3858
 9128TIP3    H148875   0.883   4.555   3.948 -1.4282  0.3094 -0.1852
 9128TIP3    H248876   0.937   4.414   3.935 -0.8296  0.3954  1.2129
 9129TIP3   OH248877   1.645   3.152   1.586 -0.4684 -0.4011 -0.5764
 9129TIP3    H148878   1.709   3.224   1.586 -0.5260 -0.3393  0.4885
 9129TIP3    H248879   1.560   3.195   1.573 -0.2672 -0.5189 -2.3643
 9130TIP3   OH248880   4.609   2.625  12.544  0.1766  0.3167  0.0418
 9130TIP3    H148881   4.674   2.689  12.516  1.5785 -1.5092 -0.9756
 9130TIP3    H248882   4.524   2.668  12.530  1.1240  2.7300  1.4085
 9131TIP3   OH248883   6.523   6.382  14.520  0.1310 -0.2465 -0.2219
 9131TIP3    H148884   6.478   6.466  14.523 -2.5860 -1.6374 -0.0949
 9131TIP3    H248885   6.518   6.355  14.428 -2.5106 -2.0171  0.3783
 9132TIP3   OH248886   6.445   4.564   6.028  0.0325 -0.0794  0.2083
 9132TIP3    H148887   6.352   4.580   6.014 -0.0911  0.6268  1.7634
 9132TIP3    H248888   6.475   4.640   6.079  1.8474  0.6043 -1.7831
 9133TIP3   OH248889   5.540   4.483  11.014 -0.3086 -0.1653  0.2262
 9133TIP3    H148890   5.634   4.492  11.026 -0.2554  1.1132 -0.9652
 9133TIP3    H248891   5.527   4.490  10.919 -1.7272  1.0889  0.4807
 9134TIP3   OH248892   2.809   2.192   0.819  0.0904  0.0381  0.0945
 9134TIP3    H148893   2.813   2.102   0.853  0.5100  0.1417  0.3324
 9134TIP3    H248894   2.881   2.237   0.864  1.0465  0.0223 -1.3907
 9135TIP3   OH248895   5.864   2.398  13.831  0.0408  0.1830 -0.0219
 9135TIP3    H148896   5.850   2.474  13.774 -0.2503 -0.4506 -0.7999
 9135TIP3    H248897   5.783   2.390  13.881  0.4458  0.9776  0.7647
 9136TIP3   OH248898   5.304   5.348  15.731 -0.0824  0.0294 -0.5661
 9136TIP3    H148899   5.353   5.301  15.799 -1.2037 -0.1848  0.1103
 9136TIP3    H248900   5.350   5.327  15.650  1.0624 -0.0078  0.0711
 9137TIP3   OH248901   6.144   0.822   4.994 -0.1760 -0.3594  0.0570
 9137TIP3    H148902   6.059   0.827   4.952 -0.5875 -0.2092  0.8970
 9137TIP3    H248903   6.144   0.739   5.042  0.4912 -0.7844 -0.6565
 9138TIP3   OH248904   6.492   0.459   5.558 -0.3687 -0.2285 -0.1649
 9138TIP3    H148905   6.462   0.458   5.467 -0.0295 -0.0960 -0.2759
 9138TIP3    H248906   6.457   0.378   5.595  2.0383 -1.8137 -1.2346
 9139TIP3   OH248907   5.535   1.088   2.362 -0.1433 -0.0517  0.6174
 9139TIP3    H148908   5.491   1.171   2.377 -0.0633  0.1403 -0.2122
 9139TIP3    H248909   5.604   1.108   2.298 -0.0002 -0.7133  0.5565
 9140TIP3   OH248910   2.647   2.769   1.689 -0.1925 -0.0275 -0.0703
 9140TIP3    H148911   2.681   2.746   1.603  0.4667 -0.9675  0.4300
 9140TIP3    H248912   2.669   2.694   1.744  1.1785  1.4114  1.3841
 9141TIP3   OH248913   0.163   1.500  11.650 -0.0223 -0.0548 -0.3953
 9141TIP3    H148914   0.233   1.565  11.652  1.6237 -1.7340 -1.1876
 9141TIP3    H248915   0.104   1.530  11.581  1.8867 -0.5319 -2.2871
 9142TIP3   OH248916   0.597   2.764   0.360 -0.0410 -0.2612  0.3362
 9142TIP3    H148917   0.652   2.707   0.307  0.0848 -1.0231  1.2739
 9142TIP3    H248918   0.639   2.765   0.446 -1.2516 -0.5267  0.9537
 9143TIP3   OH248919   1.959   2.957  15.856 -0.3676 -0.1688 -0.2824
 9143TIP3    H148920   2.017   2.888  15.824 -0.2655  0.0942 -0.6726
 9143TIP3    H248921   1.958   3.021  15.785 -1.3771 -0.3137 -0.4090
 9144TIP3   OH248922   3.159   5.192   5.446 -0.0789  0.4488  0.2124
 9144TIP3    H148923   3.092   5.132   5.479  1.1372 -0.4209  1.1277
 9144TIP3    H248924   3.241   5.158   5.481  0.8451  1.5330 -0.8660
 9145TIP3   OH248925   4.168   6.308  14.439 -0.6036 -0.1712 -0.1391
 9145TIP3    H148926   4.088   6.355  14.460 -1.5672 -1.4161 -0.9378
 9145TIP3    H248927   4.165   6.229  14.494  0.8103  0.4920  0.9299
 9146TIP3   OH248928   2.351   0.026  17.009 -0.0488 -0.1150 -0.2671
 9146TIP3    H148929   2.304   0.092  16.959 -1.1645 -2.5958 -2.5750
 9146TIP3    H248930   2.427   0.004  16.955 -0.8686 -2.2895 -0.5732
 9147TIP3   OH248931   3.494   3.916   2.193 -0.2494  1.4769 -0.4607
 9147TIP3    H148932   3.414   3.952   2.156 -0.7622  1.2555  0.4133
 9147TIP3    H248933   3.473   3.899   2.285  0.5731  0.7384 -0.3953
 9148TIP3   OH248934   0.250   3.723   4.316 -0.4750  0.3939  0.1587
 9148TIP3    H148935   0.300   3.740   4.236  1.8033 -0.3682  1.3807
 9148TIP3    H248936   0.308   3.669   4.369 -1.8131  1.1967  2.4838
 9149TIP3   OH248937   0.738   1.936   1.040  0.7882 -0.0764 -0.1638
 9149TIP3    H148938   0.712   1.908   1.127  1.3628  0.8312  0.3113
 9149TIP3    H248939   0.797   1.868   1.009 -2.2034 -2.2502 -1.3310
 9150TIP3   OH248940   0.060   2.585   4.797 -0.1170 -0.8694  0.1097
 9150TIP3    H148941   0.020   2.515   4.745 -0.8905  0.6903 -1.4713
 9150TIP3    H248942   0.033   2.567   4.887  0.3725 -3.0427 -0.1712
 9151TIP3   OH248943   2.489   3.210   4.479 -0.2473 -0.2495 -0.6041
 9151TIP3    H148944   2.558   3.246   4.534 -1.5244  3.2662 -1.1653
 9151TIP3    H248945   2.509   3.243   4.391 -2.3632  0.3905 -0.8599
 9152TIP3   OH248946   6.125   5.884  11.819 -0.6275 -0.2982 -0.3142
 9152TIP3    H148947   6.098   5.965  11.776 -0.3150 -0.2010 -0.3233
 9152TIP3    H248948   6.103   5.815  11.756 -3.0140 -0.4291  0.6114
 9153TIP3   OH248949   6.173   3.369  12.691  0.1812  0.1589 -0.0890
 9153TIP3    H148950   6.194   3.338  12.603 -1.6337  0.9170 -0.8142
 9153TIP3    H248951   6.253   3.356  12.741  0.9015 -1.3025 -1.5702
 9154TIP3   OH248952   6.295   5.807  12.073  0.0774  0.0685 -0.2396
 9154TIP3    H148953   6.223   5.797  12.135  1.3397 -0.5898  1.1511
 9154TIP3    H248954   6.253   5.811  11.988 -1.7467  1.8037  0.7198
 9155TIP3   OH248955   0.662   5.942  14.594  0.1273  0.6315 -0.7870
 9155TIP3    H148956   0.690   5.992  14.518  2.7048  0.0902 -0.2427
 9155TIP3    H248957   0.569   5.964  14.604 -0.3893  0.3545 -4.3099
 9156TIP3   OH248958   1.807   0.751   6.063  0.4492 -0.1437 -0.1974
 9156TIP3    H148959   1.772   0.779   5.978  2.0649 -0.4482 -0.9915
 9156TIP3    H248960   1.902   0.749   6.050  0.7138 -0.2013  1.6286
 9157TIP3   OH248961   3.527   3.068  17.238  0.8364 -0.3996  0.4415
 9157TIP3    H148962   3.535   3.136  17.306 -0.1231 -0.9053  1.0777
 9157TIP3    H248963   3.435   3.072  17.212  0.9718 -0.8980 -0.1206
 9158TIP3   OH248964   4.928   5.918   4.195  0.1573  0.0709 -0.5750
 9158TIP3    H148965   5.000   5.909   4.131  0.4086  1.1608 -0.4691
 9158TIP3    H248966   4.963   5.880   4.276  0.0815 -0.7135 -0.9058
 9159TIP3   OH248967   1.628   6.321  10.572  0.5513  0.7789  0.7007
 9159TIP3    H148968   1.652   6.379  10.644 -2.4750  0.5416  1.9895
 9159TIP3    H248969   1.565   6.372  10.520  0.6297 -0.0397 -0.2168
 9160TIP3   OH248970   4.078   3.506   3.196  0.0107  0.2692  0.0738
 9160TIP3    H148971   4.159   3.460   3.218  1.1388  1.7982 -0.8212
 9160TIP3    H248972   4.064   3.566   3.269  0.7398  1.3870 -0.7031
 9161TIP3   OH248973   2.823   1.205  12.640 -0.1256  0.3374 -0.1291
 9161TIP3    H148974   2.864   1.119  12.652 -1.2172  0.0821  2.0735
 9161TIP3    H248975   2.730   1.190  12.660 -0.0280  2.3658  2.0859
 9162TIP3   OH248976   6.040   0.115   5.530  0.4149  0.7381 -0.2487
 9162TIP3    H148977   5.982   0.162   5.591 -0.4955  0.6962 -1.0666
 9162TIP3    H248978   5.981   0.085   5.460  1.1925 -0.5306 -0.3787
 9163TIP3   OH248979   0.281   5.523   4.125 -0.1352  0.5772 -0.3054
 9163TIP3    H148980   0.186   5.514   4.118  0.0300 -0.5084 -1.3122
 9163TIP3    H248981   0.298   5.527   4.219 -1.2855  2.0862 -0.1378
 9164TIP3   OH248982   2.774   4.709  15.407  0.1656  0.1958  0.4128
 9164TIP3    H148983   2.711   4.759  15.356 -1.3737  1.1448  3.1382
 9164TIP3    H248984   2.826   4.775  15.452  2.7133 -0.5959 -1.2585
 9165TIP3   OH248985   4.890   0.951  12.236  0.4159 -0.8096 -0.2440
 9165TIP3    H148986   4.830   0.939  12.310 -0.7237 -0.9216 -1.1781
 9165TIP3    H248987   4.834   0.970  12.162  1.6681  1.2543 -0.7174
 9166TIP3   OH248988   1.251   3.363  13.024 -0.8995 -0.7019 -0.5471
 9166TIP3    H148989   1.331   3.327  12.984  0.3583 -1.2325  2.2852
 9166TIP3    H248990   1.199   3.286  13.044 -0.1422 -0.6819  1.5819
 9167TIP3   OH248991   2.525   6.381   2.101 -0.4892  0.2458  0.2026
 9167TIP3    H148992   2.491   6.304   2.055 -0.0720 -0.0062  0.3135
 9167TIP3    H248993   2.516   6.452   2.038  0.5746 -0.1999 -0.4626
 9168TIP3   OH248994   4.788   1.803   0.472 -0.1265  0.1385  0.1821
 9168TIP3    H148995   4.877   1.801   0.437  0.2494  1.9933  0.9820
 9168TIP3    H248996   4.738   1.851   0.406  0.1992  2.0235  1.2522
 9169TIP3   OH248997   2.187   0.927  14.470 -0.5885 -0.4061  0.5802
 9169TIP3    H148998   2.119   0.860  14.479 -0.7172 -0.0492  2.3498
 9169TIP3    H248999   2.160   0.998  14.528  1.8041 -0.7185  2.1953
 9170TIP3   OH249000   4.744   3.544  14.404  0.3929 -0.2507 -0.6159
 9170TIP3    H149001   4.696   3.526  14.323 -0.0981 -0.0840 -0.3686
 9170TIP3    H249002   4.682   3.593  14.458  1.5019  1.6680 -1.0374
 9171TIP3   OH249003   1.017   5.906  13.480 -0.1260  0.5793  0.0216
 9171TIP3    H149004   1.047   5.875  13.565  2.0859  0.5047 -0.7595
 9171TIP3    H249005   1.045   5.997  13.476  0.0127  0.5063 -0.7318
 9172TIP3   OH249006   5.903   3.158  15.067  0.5331 -0.7031 -0.0999
 9172TIP3    H149007   5.903   3.162  15.163  0.4902  1.4078 -0.1713
 9172TIP3    H249008   5.976   3.214  15.041  0.3777 -1.0489 -1.3131
 9173TIP3   OH249009   2.854   3.351  16.666 -0.2150 -0.3570 -1.0242
 9173TIP3    H149010   2.814   3.282  16.718  1.5191 -1.1946 -0.7789
 9173TIP3    H249011   2.829   3.432  16.711 -1.3858 -0.8710 -0.7210
 9174TIP3   OH249012   4.468   4.668  14.467 -0.1078 -0.0518 -0.3574
 9174TIP3    H149013   4.422   4.686  14.549 -0.5605 -2.0462 -0.1388
 9174TIP3    H249014   4.561   4.677  14.488 -0.2782  1.0076 -0.0354
 9175TIP3   OH249015   1.804   1.285  16.442 -0.5351 -0.0435  0.3511
 9175TIP3    H149016   1.858   1.340  16.500 -0.2912 -0.2317  0.3007
 9175TIP3    H249017   1.774   1.345  16.374  1.0992 -0.3318 -0.6411
 9176TIP3   OH249018   6.583   0.596   1.767  0.4780 -0.0799  0.7021
 9176TIP3    H149019   6.601   0.505   1.743  1.6789  0.2249  0.4349
 9176TIP3    H249020   6.649   0.616   1.835  1.2294  1.0762 -0.3564
 9177TIP3   OH249021   1.094   5.887   1.316 -0.1512 -0.2303 -0.2590
 9177TIP3    H149022   1.157   5.816   1.307  0.4435 -0.0063  1.7287
 9177TIP3    H249023   1.023   5.864   1.257  1.3520 -0.9730 -1.8146
 9178TIP3   OH249024   2.561   3.512   1.422 -0.1490 -0.4485  0.3698
 9178TIP3    H149025   2.601   3.581   1.475  0.3635  0.1476 -0.7767
 9178TIP3    H249026   2.551   3.438   1.482  0.8901  0.0516  1.1687
 9179TIP3   OH249027   6.350   5.640   0.437  0.1998 -0.2493  0.4292
 9179TIP3    H149028   6.412   5.714   0.435 -0.6783  0.5159  0.9629
 9179TIP3    H249029   6.274   5.672   0.388 -0.3694 -0.6260  1.0613
 9180TIP3   OH249030   0.390   3.839   0.111 -0.2105  0.2707 -0.2009
 9180TIP3    H149031   0.303   3.800   0.100  0.0995 -0.4433 -0.1355
 9180TIP3    H249032   0.436   3.817   0.029  0.4202 -0.6927  0.3983
 9181TIP3   OH249033   0.781   2.317   5.755  0.0958 -0.1239 -0.1257
 9181TIP3    H149034   0.867   2.324   5.797  0.2840 -1.3651 -0.2863
 9181TIP3    H249035   0.720   2.358   5.817  1.2637  4.0983 -1.5926
 9182TIP3   OH249036   4.426   0.644   4.916 -0.0378  0.3359 -0.1045
 9182TIP3    H149037   4.489   0.699   4.868  3.0820 -0.5996  2.7128
 9182TIP3    H249038   4.438   0.557   4.879  1.7318 -0.2098  1.6760
 9183TIP3   OH249039   3.000   0.051   4.582 -0.3991 -0.0457  0.1839
 9183TIP3    H149040   3.058   0.027   4.509  1.2702  1.4822  0.9643
 9183TIP3    H249041   2.944  -0.026   4.594 -0.4898 -0.4522 -2.4794
 9184TIP3   OH249042   2.572   3.635   2.719  0.5603  0.1598  0.7404
 9184TIP3    H149043   2.629   3.678   2.654  0.0663  0.2939  0.3964
 9184TIP3    H249044   2.487   3.678   2.709  0.7630  0.9641  2.2486
 9185TIP3   OH249045   4.241   1.823  15.244  0.6136  0.1996 -0.0701
 9185TIP3    H149046   4.216   1.896  15.300  2.0217  0.0157  0.8199
 9185TIP3    H249047   4.269   1.754  15.305 -2.6079 -1.8793 -0.7636
 9186TIP3   OH249048   4.823   4.598   3.258 -0.4680 -0.6991 -0.2283
 9186TIP3    H149049   4.908   4.617   3.218 -0.7352 -1.5729 -1.2258
 9186TIP3    H249050   4.844   4.582   3.350  0.5082 -1.2932 -0.5378
 9187TIP3   OH249051   3.331   3.222  16.506 -0.3736  0.5372 -0.1905
 9187TIP3    H149052   3.285   3.273  16.439  0.4984 -0.6033 -1.6910
 9187TIP3    H249053   3.419   3.259  16.508 -0.7221  1.3298  1.1790
 9188TIP3   OH249054   6.169   1.721  10.835  0.0078 -0.2349  0.0783
 9188TIP3    H149055   6.204   1.810  10.833  3.0651 -1.3962 -0.2814
 9188TIP3    H249056   6.097   1.723  10.772  0.3986  1.8294 -0.3620
 9189TIP3   OH249057   0.003   6.190  11.256 -0.1758 -0.3274 -0.0401
 9189TIP3    H149058   0.045   6.113  11.219 -3.3543 -2.4467  0.5807
 9189TIP3    H249059  -0.056   6.221  11.187 -1.6756 -0.7387  1.0202
 9190TIP3   OH249060   4.665   1.013   4.365 -0.1992  0.8036 -0.1728
 9190TIP3    H149061   4.754   1.045   4.385 -0.6583  1.7249  0.4587
 9190TIP3    H249062   4.608   1.070   4.416 -1.0599 -1.1508  1.0871
 9191TIP3   OH249063   1.478   4.734  11.125  0.0018  0.2891  0.9092
 9191TIP3    H149064   1.486   4.801  11.058 -0.9208  0.9437  1.4432
 9191TIP3    H249065   1.534   4.662  11.095  0.1577  0.8708 -0.1861
 9192TIP3   OH249066   2.530   0.731   1.318 -0.5433 -0.5159  0.2645
 9192TIP3    H149067   2.586   0.710   1.393  0.9466 -1.0287 -0.9714
 9192TIP3    H249068   2.453   0.676   1.330  0.8842 -2.6468 -0.0119
 9193TIP3   OH249069   3.994   6.113  13.944  0.1842 -0.0678  0.3187
 9193TIP3    H149070   4.073   6.157  13.975  1.2656  0.0639 -2.5212
 9193TIP3    H249071   3.947   6.180  13.894 -0.7561 -0.7042  0.3380
 9194TIP3   OH249072   3.504   0.840   5.561  0.2206 -0.3607  0.8122
 9194TIP3    H149073   3.466   0.756   5.534 -0.8011  0.4412 -0.3209
 9194TIP3    H249074   3.598   0.824   5.563  0.1900 -1.0080 -1.3493
 9195TIP3   OH249075   3.999   1.637   0.778 -0.7654  0.6976  0.6575
 9195TIP3    H149076   4.094   1.627   0.766 -1.0783  0.4570 -1.9587
 9195TIP3    H249077   3.985   1.619   0.870  1.6029 -0.4132  0.8526
 9196TIP3   OH249078   1.366   1.068  15.149  0.4141  0.0924 -0.3453
 9196TIP3    H149079   1.272   1.054  15.156  0.7112 -2.0293 -0.2339
 9196TIP3    H249080   1.401   0.983  15.122  2.5407  0.2424  1.7352
 9197TIP3   OH249081   5.831   3.041  12.583  0.0011  0.4297 -0.3429
 9197TIP3    H149082   5.889   3.046  12.659 -1.6679  1.8234  0.8706
 9197TIP3    H249083   5.888   3.057  12.508  2.0080 -2.7741  0.4289
 9198TIP3   OH249084   5.454   6.117  17.162 -0.3634 -0.4288  0.2049
 9198TIP3    H149085   5.384   6.121  17.097  0.2528 -2.0268 -0.5793
 9198TIP3    H249086   5.526   6.072  17.118  0.0955 -1.4635  1.9552
 9199TIP3   OH249087   1.798   1.346   3.477  0.6753  0.0465 -0.1235
 9199TIP3    H149088   1.820   1.275   3.538 -1.6580 -2.1478 -1.7321
 9199TIP3    H249089   1.802   1.305   3.390 -1.4017  1.6849 -1.0244
 9200TIP3   OH249090   1.382   4.953  15.377 -0.4600  0.0145  0.4948
 9200TIP3    H149091   1.389   5.012  15.302  0.0963 -1.2910 -0.5199
 9200TIP3    H249092   1.456   4.974  15.432  0.9819 -1.1636 -0.9364
 9201TIP3   OH249093   1.688   1.849   0.643  0.0373  0.2682 -0.2162
 9201TIP3    H149094   1.653   1.935   0.620  1.6189  1.0039  0.0797
 9201TIP3    H249095   1.773   1.867   0.683  1.3788 -1.5698 -2.1427
 9202TIP3   OH249096   3.079   3.706   0.488  0.6295  0.6264  0.1591
 9202TIP3    H149097   3.013   3.775   0.500 -0.8999 -0.4335 -1.8714
 9202TIP3    H249098   3.065   3.647   0.563 -0.1641  0.8595  0.2018
 9203TIP3   OH249099   1.883   2.660   2.264 -0.0506  0.3768  0.9588
 9203TIP3    H149100   1.803   2.645   2.214  0.1190  2.1547  0.1112
 9203TIP3    H249101   1.858   2.728   2.327  0.7321  0.7766  0.8358
 9204TIP3   OH249102   5.700   1.626   6.711  0.3565  0.3238 -0.1038
 9204TIP3    H149103   5.631   1.677   6.754  1.0100 -0.9480  2.5314
 9204TIP3    H249104   5.666   1.610   6.622 -2.1251  0.8782  0.7021
 9205TIP3   OH249105   0.716   2.530  17.118  0.0252 -0.2032  0.0200
 9205TIP3    H149106   0.726   2.531  17.213  0.1000 -1.3379  0.0267
 9205TIP3    H249107   0.781   2.592  17.086  0.3752 -0.2351  0.6697
 9206TIP3   OH249108   3.880   6.719   3.613  0.0070  0.4485  0.7678
 9206TIP3    H149109   3.961   6.707   3.565 -0.3803  2.1684 -0.3608
 9206TIP3    H249110   3.846   6.631   3.626  1.7437 -0.2372  0.7334
 9207TIP3   OH249111   3.527   1.586   3.852 -0.4062  0.1022  0.2542
 9207TIP3    H149112   3.609   1.540   3.834  0.9354  1.8868  1.6052
 9207TIP3    H249113   3.523   1.655   3.786 -1.2055 -0.4307 -0.2652
 9208TIP3   OH249114   2.589   2.816  17.090  0.3004 -0.7747 -0.0739
 9208TIP3    H149115   2.572   2.726  17.118  0.4096 -0.7452  0.0852
 9208TIP3    H249116   2.632   2.857  17.165  1.4921 -0.9810 -0.6445
 9209TIP3   OH249117   0.163   0.523   0.690  0.1896  1.0413 -0.0307
 9209TIP3    H149118   0.189   0.481   0.772 -0.0814  1.4070  0.2476
 9209TIP3    H249119   0.101   0.462   0.650  0.5192  0.7428 -0.0951
 9210TIP3   OH249120   2.471   4.733  16.452 -0.0734 -0.6118  0.0864
 9210TIP3    H149121   2.382   4.735  16.419 -0.0961  0.5592  0.1819
 9210TIP3    H249122   2.513   4.661  16.405 -1.1359 -1.3334  0.2344
 9211TIP3   OH249123   5.401   3.065  14.078  0.7217  0.2177 -0.3481
 9211TIP3    H149124   5.453   2.985  14.094 -0.9552 -1.0055 -0.8815
 9211TIP3    H249125   5.360   3.083  14.163 -1.0136 -1.0515 -0.8951
 9212TIP3   OH249126   6.293   5.008  13.479 -0.0832  0.4979 -0.0147
 9212TIP3    H149127   6.220   5.019  13.418 -1.3314 -1.9150  0.9429
 9212TIP3    H249128   6.255   5.026  13.565  0.4023 -0.8912  0.5050
 9213TIP3   OH249129   0.332   5.760  12.433  0.1854 -0.2400 -0.2098
 9213TIP3    H149130   0.407   5.814  12.407 -0.1695  0.3688  0.0029
 9213TIP3    H249131   0.363   5.670  12.426  1.3170  0.0379  1.0405
 9214TIP3   OH249132   3.491   6.424  12.361 -0.3419 -0.0746  0.1870
 9214TIP3    H149133   3.474   6.333  12.336  0.2988 -0.2857  0.5130
 9214TIP3    H249134   3.519   6.466  12.280  1.8997 -0.7997  0.5621
 9215TIP3   OH249135   3.246   2.117  10.730  0.4659 -0.3583  0.7425
 9215TIP3    H149136   3.307   2.169  10.677 -0.3457 -0.7136 -0.5643
 9215TIP3    H249137   3.214   2.050  10.670 -5.6895  3.3144 -0.4539
 9216TIP3   OH249138   4.966   3.180   0.203 -0.9603 -0.3003  0.1551
 9216TIP3    H149139   4.977   3.274   0.188 -2.4972  0.1437  1.6504
 9216TIP3    H249140   4.966   3.141   0.115 -0.0886  1.0633 -0.4582
 9217TIP3   OH249141   3.902   0.312   6.369  0.4473 -0.6012  0.7272
 9217TIP3    H149142   3.857   0.276   6.445 -0.3464  0.0527  0.5822
 9217TIP3    H249143   3.837   0.308   6.299  0.5023  0.6258  0.5849
 9218TIP3   OH249144   1.240   0.999  14.306 -0.1108 -0.2145  0.2898
 9218TIP3    H149145   1.213   0.968  14.219 -0.1067 -2.1999  0.9762
 9218TIP3    H249146   1.332   1.022  14.294  0.1028 -1.2020 -0.0683
 9219TIP3   OH249147   4.410   0.367  15.362  0.5162 -0.0789  0.5393
 9219TIP3    H149148   4.471   0.396  15.294  2.7114  0.0171  2.5000
 9219TIP3    H249149   4.428   0.273  15.371 -1.1728 -0.5053 -0.3888
 9220TIP3   OH249150   6.404   6.116   0.707 -0.1695  0.1533  0.0518
 9220TIP3    H149151   6.347   6.041   0.722 -0.1325 -0.1412 -1.2347
 9220TIP3    H249152   6.491   6.078   0.694  0.4375  0.6282  2.4935
 9221TIP3   OH249153   3.695   4.498   4.810 -0.7096 -0.0756  0.5080
 9221TIP3    H149154   3.758   4.511   4.740  0.7136  0.5222  1.8628
 9221TIP3    H249155   3.610   4.516   4.770  0.1794  1.3715 -0.7732
 9222TIP3   OH249156   4.191   2.353  15.620  0.1023 -0.3031  0.3804
 9222TIP3    H149157   4.241   2.430  15.650  1.3046 -1.1397  0.5623
 9222TIP3    H249158   4.179   2.300  15.699 -3.9425  1.4029  1.0376
 9223TIP3   OH249159   0.649   0.864   0.262  0.2348  0.0696  0.2220
 9223TIP3    H149160   0.590   0.887   0.335  0.6978  0.8673  0.3539
 9223TIP3    H249161   0.724   0.922   0.273  0.3135  0.1889 -0.8999
 9224TIP3   OH249162   6.449   3.369   6.149  0.1828 -0.0245 -0.7477
 9224TIP3    H149163   6.519   3.434   6.158  1.0069 -0.8483 -1.1787
 9224TIP3    H249164   6.417   3.356   6.238  0.5327  0.4001 -0.5538
 9225TIP3   OH249165   6.210   3.836   5.716  0.3814 -0.2376  0.4811
 9225TIP3    H149166   6.238   3.888   5.640  0.4689  0.6016  1.0837
 9225TIP3    H249167   6.291   3.804   5.755  0.3362 -0.6670  0.2340
 9226TIP3   OH249168   1.638   6.787  13.654 -0.5037  0.3837 -0.0671
 9226TIP3    H149169   1.670   6.810  13.567 -0.1714 -0.3307 -0.1358
 9226TIP3    H249170   1.543   6.797  13.649 -0.4405  0.8320 -0.3646
 9227TIP3   OH249171   2.188   0.877  17.102  0.0624 -0.4038  0.1568
 9227TIP3    H149172   2.169   0.859  17.194 -1.2203  0.3902  0.0566
 9227TIP3    H249173   2.180   0.792  17.059 -1.1075 -0.4659  0.4866
 9228TIP3   OH249174   5.665   0.768   0.895  0.1196  0.1407 -0.4555
 9228TIP3    H149175   5.645   0.852   0.852 -2.2194 -1.7565 -3.2429
 9228TIP3    H249176   5.652   0.786   0.989 -0.5689  2.8247 -1.0147
 9229TIP3   OH249177   2.024   5.360   3.239  0.0096  0.1130  0.8305
 9229TIP3    H149178   1.946   5.314   3.210  1.5317 -1.0458 -1.5794
 9229TIP3    H249179   1.998   5.451   3.244 -1.5727 -0.2978  0.3576
 9230TIP3   OH249180   6.183   0.394  17.008  0.0142 -0.1277 -0.5852
 9230TIP3    H149181   6.148   0.483  17.005  0.5454  0.1534  0.9744
 9230TIP3    H249182   6.263   0.398  16.956  0.7641  0.6638  0.6028
 9231TIP3   OH249183   5.628   3.966  15.190  0.5488 -0.6292  0.6158
 9231TIP3    H149184   5.562   4.035  15.187  0.0630 -1.1474 -4.2174
 9231TIP3    H249185   5.711   4.013  15.201 -0.0101  0.5531 -0.0682
 9232TIP3   OH249186   1.143   2.388  15.742  0.3235  0.3118 -0.0271
 9232TIP3    H149187   1.157   2.477  15.710 -0.8819  1.1006  1.5388
 9232TIP3    H249188   1.225   2.342  15.725  0.8425  1.6460 -1.1187
 9233TIP3   OH249189   0.343   6.062   2.902  0.6143  0.8124 -0.0335
 9233TIP3    H149190   0.327   5.969   2.888  0.6774  1.1311 -2.4961
 9233TIP3    H249191   0.283   6.106   2.842  0.6205  2.3555  1.0657
 9234TIP3   OH249192   6.350   6.144   6.289 -0.4040  0.2094  0.4562
 9234TIP3    H149193   6.413   6.076   6.313 -0.5925  0.7585  2.6457
 9234TIP3    H249194   6.397   6.226   6.305 -1.6989  0.6228  2.2794
 9235TIP3   OH249195   3.819   2.662   2.284 -0.6549  0.0928 -0.5972
 9235TIP3    H149196   3.778   2.729   2.339  1.2165 -0.4429  1.5396
 9235TIP3    H249197   3.776   2.581   2.308  1.2782 -0.4054  1.3540
 9236TIP3   OH249198   5.691   2.793   3.245  0.4340  0.2249  0.1243
 9236TIP3    H149199   5.725   2.879   3.221 -3.1896  1.5115 -0.6780
 9236TIP3    H249200   5.708   2.738   3.168 -0.6748  1.2708 -0.8947
 9237TIP3   OH249201   4.987   1.667   2.715  0.4790  0.1838 -0.2439
 9237TIP3    H149202   5.015   1.586   2.757  0.7287  0.0199 -0.7170
 9237TIP3    H249203   4.957   1.723   2.786  2.3252  0.4995  0.3043
 9238TIP3   OH249204   5.942   1.042  13.794 -0.2216 -0.2453 -0.2922
 9238TIP3    H149205   5.851   1.037  13.767  0.1553  0.6386 -1.7724
 9238TIP3    H249206   5.940   1.080  13.882 -1.3120 -0.8998 -0.0328
 9239TIP3   OH249207   2.104   0.238   6.199 -0.2227  0.0727  0.5759
 9239TIP3    H149208   2.046   0.312   6.215 -0.8286 -0.6110  1.5841
 9239TIP3    H249209   2.139   0.254   6.111 -3.5082 -0.5320 -0.9254
 9240TIP3   OH249210   5.871   3.491  11.607  0.1699 -0.5508 -0.3346
 9240TIP3    H149211   5.853   3.533  11.524 -0.1743 -0.4412 -0.2055
 9240TIP3    H249212   5.958   3.521  11.632  0.1476 -0.3476 -0.5092
 9241TIP3   OH249213   1.269   0.545  15.828  0.3547 -0.3537 -0.1343
 9241TIP3    H149214   1.310   0.630  15.844  0.2503 -0.2940 -0.1808
 9241TIP3    H249215   1.334   0.496  15.778  0.6516 -0.5144  0.4159
 9242TIP3   OH249216   0.116   6.304  14.265 -0.1628 -0.5417  0.3037
 9242TIP3    H149217   0.188   6.308  14.327 -1.3429 -3.2235  1.9409
 9242TIP3    H249218   0.067   6.385  14.279  0.0208 -0.7723  2.3594
 9243TIP3   OH249219   0.284   0.946  13.604  0.2603  0.1017  0.3343
 9243TIP3    H149220   0.307   0.980  13.518 -0.8204 -1.5624 -0.6302
 9243TIP3    H249221   0.197   0.981  13.621  0.5704  0.6300  0.8858
 9244TIP3   OH249222   3.236   0.921  11.699 -0.0311 -0.1202 -0.3135
 9244TIP3    H149223   3.275   0.863  11.765 -2.0687 -0.9555  0.2049
 9244TIP3    H249224   3.231   0.867  11.620  1.2517  0.4757 -0.8042
 9245TIP3   OH249225   0.530   2.464   4.751 -0.2020 -0.1187  0.2985
 9245TIP3    H149226   0.515   2.486   4.842  0.8194 -0.6871  0.6124
 9245TIP3    H249227   0.561   2.545   4.711 -0.7490  0.1566  0.4267
 9246TIP3   OH249228   0.227   0.456   0.959  0.1680 -0.1010 -0.1562
 9246TIP3    H149229   0.166   0.416   1.020 -1.8041  1.0926 -1.3000
 9246TIP3    H249230   0.268   0.527   1.010 -1.0000  0.4830 -0.0148
 9247TIP3   OH249231   6.187   5.993  13.171  0.2655 -0.6170 -0.2020
 9247TIP3    H149232   6.112   5.949  13.210  0.4547 -0.9660 -0.2253
 9247TIP3    H249233   6.258   5.929  13.177  0.4385 -0.4669 -0.6127
 9248TIP3   OH249234   6.063   5.835   5.076  0.2727  1.1323 -0.5565
 9248TIP3    H149235   6.107   5.843   4.992  0.3142 -0.4270 -0.6940
 9248TIP3    H249236   6.134   5.832   5.140  0.2798  1.1295 -0.5645
 9249TIP3   OH249237   4.531   6.645  14.929  0.1422  0.1295 -0.1345
 9249TIP3    H149238   4.501   6.612  14.844  0.6519 -0.5336 -0.0567
 9249TIP3    H249239   4.583   6.574  14.966 -0.0446  0.4273  0.7181
 9250TIP3   OH249240   1.493   2.928   2.641 -0.0788 -0.2006 -0.6635
 9250TIP3    H149241   1.451   2.945   2.726  1.1970 -1.7807  0.3087
 9250TIP3    H249242   1.571   2.983   2.642 -0.6196  0.5981 -1.2932
 9251TIP3   OH249243   5.249   1.889  15.849  0.1200 -0.2135 -0.0427
 9251TIP3    H149244   5.202   1.811  15.820  1.8612 -0.6735 -1.7089
 9251TIP3    H249245   5.226   1.897  15.941 -4.6946  0.6563 -1.1918
 9252TIP3   OH249246   4.351   5.972  11.454  0.1960  0.3852  0.6172
 9252TIP3    H149247   4.398   6.009  11.379 -1.5015  0.5936 -0.3814
 9252TIP3    H249248   4.306   5.895  11.418  0.0649 -0.0218  1.6314
 9253TIP3   OH249249   2.450   5.315   1.773 -0.0465  0.3950 -0.5922
 9253TIP3    H149250   2.521   5.347   1.717  1.5879 -1.9539  0.0447
 9253TIP3    H249251   2.483   5.327   1.862  0.3989 -2.4577 -0.3244
 9254TIP3   OH249252   1.138   2.774   4.723  0.2939 -0.2366  0.2991
 9254TIP3    H149253   1.151   2.797   4.631  0.1017  0.6341  0.4850
 9254TIP3    H249254   1.122   2.679   4.722  0.8723 -0.3355 -0.5010
 9255TIP3   OH249255   3.145   1.554  12.928  0.4057 -0.3555  0.0197
 9255TIP3    H149256   3.176   1.528  13.015 -1.0973  2.0582  1.3517
 9255TIP3    H249257   3.082   1.487  12.903  0.3922 -0.7473  1.0767
 9256TIP3   OH249258   1.721   1.554   2.246  0.0337 -0.2066 -0.6425
 9256TIP3    H149259   1.813   1.551   2.219 -0.0530 -0.5565 -0.9015
 9256TIP3    H249260   1.703   1.646   2.262 -0.2383  0.1594 -2.9061
 9257TIP3   OH249261   6.663   1.787   4.251  0.5239 -0.2041  0.2241
 9257TIP3    H149262   6.622   1.862   4.294  0.1869  0.7253 -1.6683
 9257TIP3    H249263   6.757   1.798   4.267  0.4515  0.4601  0.1783
 9258TIP3   OH249264   5.124   1.537  12.592 -0.2998 -0.0903  0.8702
 9258TIP3    H149265   5.034   1.511  12.610  0.4025 -2.0522  1.6936
 9258TIP3    H249266   5.118   1.592  12.514 -2.0127 -1.7675 -0.2290
 9259TIP3   OH249267   6.523   2.183   4.273  0.0900  0.3630  0.2261
 9259TIP3    H149268   6.604   2.234   4.270  1.0700 -1.1799 -0.2953
 9259TIP3    H249269   6.463   2.230   4.217  0.3375  1.9957  1.2872
 9260TIP3   OH249270   4.990   4.750   1.711  0.3704 -0.4409 -0.0649
 9260TIP3    H149271   4.928   4.756   1.783 -1.4519  1.2787 -1.7011
 9260TIP3    H249272   5.072   4.721   1.751 -0.5976  0.5012  2.6741
 9261TIP3   OH249273   4.363   5.335  13.729 -0.6567  0.2102  0.0004
 9261TIP3    H149274   4.430   5.288  13.778 -0.7189 -0.8805 -0.9482
 9261TIP3    H249275   4.287   5.336  13.787 -0.4198 -0.2039  0.3211
 9262TIP3   OH249276   3.607   0.058   4.398 -0.3080 -0.7953  0.4875
 9262TIP3    H149277   3.679   0.056   4.335 -0.2442  0.1433  0.5343
 9262TIP3    H249278   3.536   0.012   4.353 -0.3626  0.1237 -0.4020
 9263TIP3   OH249279   5.012   5.662  15.815  0.5447  0.1175 -0.4304
 9263TIP3    H149280   5.067   5.602  15.866  1.3439 -0.1189 -1.5575
 9263TIP3    H249281   5.068   5.688  15.742 -0.6674  0.3139 -1.2833
 9264TIP3   OH249282   5.634   2.531   3.603 -0.0706  0.2562  0.2639
 9264TIP3    H149283   5.633   2.627   3.599  0.4390  0.3686  2.2566
 9264TIP3    H249284   5.724   2.507   3.582 -0.4959  0.1339 -1.4623
 9265TIP3   OH249285   2.296   6.519   3.550  0.7618 -0.3343 -1.1943
 9265TIP3    H149286   2.247   6.441   3.576  0.0983  0.6613  0.5923
 9265TIP3    H249287   2.331   6.555   3.632  1.8591  0.7261 -2.0988
 9266TIP3   OH249288   4.860   0.989   0.187  0.4480 -0.2672 -0.6513
 9266TIP3    H149289   4.917   1.034   0.249  1.4663 -5.1307  2.1997
 9266TIP3    H249290   4.920   0.947   0.125 -0.3245 -0.2267 -1.4426
 9267TIP3   OH249291   0.035   6.190   4.113  0.0568  0.0583  0.1782
 9267TIP3    H149292   0.021   6.283   4.098  0.4983 -0.2925 -2.7523
 9267TIP3    H249293  -0.028   6.147   4.055 -2.0227 -1.5156  3.4760
 9268TIP3   OH249294   5.594   2.684   2.415 -0.0400  0.1940  0.7363
 9268TIP3    H149295   5.550   2.759   2.456  0.0168  0.7975 -0.2852
 9268TIP3    H249296   5.644   2.644   2.486  0.3932  1.4755  1.1827
 9269TIP3   OH249297   2.860   1.039  10.806 -0.7316 -0.4884  0.8474
 9269TIP3    H149298   2.873   0.995  10.890 -0.7688 -0.6001  0.7961
 9269TIP3    H249299   2.930   1.104  10.801 -0.1242 -1.1574  0.5182
 9270TIP3   OH249300   6.058   2.911  16.723 -0.3515 -0.1612 -0.2645
 9270TIP3    H149301   6.067   2.827  16.769 -0.9122 -0.4389 -0.6598
 9270TIP3    H249302   5.972   2.944  16.750 -1.2770 -0.9722 -2.1616
 9271TIP3   OH249303   5.019   6.367   3.497  0.1895 -0.2643  0.2570
 9271TIP3    H149304   5.005   6.445   3.551  2.6416  0.1450  0.3415
 9271TIP3    H249305   4.956   6.376   3.425  0.0682  1.5275  0.5723
 9272TIP3   OH249306   5.466   4.877  11.791  0.0777  0.4160 -0.1357
 9272TIP3    H149307   5.503   4.905  11.708  0.4129 -0.5467 -0.3097
 9272TIP3    H249308   5.513   4.929  11.857 -0.2265  1.2164 -0.5428
 9273TIP3   OH249309   0.720   0.614  12.735  0.1769 -0.4232 -0.4151
 9273TIP3    H149310   0.644   0.559  12.754  1.0583 -0.9006  1.8881
 9273TIP3    H249311   0.683   0.700  12.715 -1.0630 -1.1107 -1.1556
 9274TIP3   OH249312   1.696   3.795  14.337 -0.2342  0.4304  0.1792
 9274TIP3    H149313   1.760   3.778  14.268 -0.1961  0.6714  0.1553
 9274TIP3    H249314   1.731   3.749  14.414  0.6505  1.6520  0.5244
 9275TIP3   OH249315   5.530   0.310  16.203  0.0909  0.3350 -0.4192
 9275TIP3    H149316   5.445   0.268  16.197 -0.4194  1.1708  0.6134
 9275TIP3    H249317   5.582   0.251  16.258 -0.4365  0.7534  0.5430
 9276TIP3   OH249318   2.481   5.454  11.552  0.3651  0.2100  0.1218
 9276TIP3    H149319   2.544   5.466  11.623 -0.0008  0.2529  0.4388
 9276TIP3    H249320   2.484   5.536  11.503  1.4177 -0.2245 -0.5567
 9277TIP3   OH249321   3.293   3.280   3.260 -0.8521 -0.0526 -0.1283
 9277TIP3    H149322   3.364   3.330   3.220 -1.1495  0.7359  0.3208
 9277TIP3    H249323   3.312   3.282   3.354 -0.1199 -1.9539 -0.2014
 9278TIP3   OH249324   6.559   3.575  15.807  0.0936 -0.2696 -0.1076
 9278TIP3    H149325   6.596   3.638  15.746 -1.1869 -1.6859 -2.4138
 9278TIP3    H249326   6.529   3.502  15.752 -0.5871 -1.8433  2.2528
 9279TIP3   OH249327   2.841   5.470  12.454  0.4147  0.1024 -0.0693
 9279TIP3    H149328   2.764   5.415  12.442  1.0256 -1.4305  2.5072
 9279TIP3    H249329   2.905   5.437  12.390 -0.3298 -0.0335 -0.7455
 9280TIP3   OH249330   0.394   3.085  13.358 -0.0393 -0.3810 -0.2766
 9280TIP3    H149331   0.450   3.157  13.327 -0.2131 -0.7960 -1.6158
 9280TIP3    H249332   0.309   3.102  13.317 -0.2557 -1.0037 -0.0881
 9281TIP3   OH249333   2.279   0.048   5.395 -0.1297  0.1197 -0.0507
 9281TIP3    H149334   2.292   0.134   5.437  0.2577 -1.0013  2.1945
 9281TIP3    H249335   2.210   0.007   5.447 -2.1101  0.0218 -2.6498
 9282TIP3   OH249336   0.457   5.612  13.947  0.0198 -0.3215  0.4247
 9282TIP3    H149337   0.484   5.520  13.942 -2.7450 -1.2155  0.9781
 9282TIP3    H249338   0.508   5.648  14.020  3.6956 -0.4042 -1.9384
 9283TIP3   OH249339   4.828   6.237  11.917  0.6360  0.1012 -0.0515
 9283TIP3    H149340   4.806   6.322  11.956  1.3788  0.2850 -0.0399
 9283TIP3    H249341   4.749   6.212  11.870  0.3139  0.6651  0.1812
 9284TIP3   OH249342   5.966   4.648   2.045 -0.1012  0.2486  0.1905
 9284TIP3    H149343   5.964   4.564   2.091 -1.1089  0.6497  0.9084
 9284TIP3    H249344   5.908   4.637   1.970  1.8791 -0.5442 -1.2772
 9285TIP3   OH249345   4.894   5.547  16.068 -0.1911  0.2131  0.0999
 9285TIP3    H149346   4.908   5.583  15.980  0.0954 -0.1011  0.0109
 9285TIP3    H249347   4.916   5.454  16.058 -1.6932 -0.1527  0.1198
 9286TIP3   OH249348   6.728   3.635  16.641  0.3799 -0.0405 -0.2181
 9286TIP3    H149349   6.769   3.595  16.718  0.2851 -0.1368 -0.2182
 9286TIP3    H249350   6.654   3.684  16.676 -0.6039 -1.3478 -0.4044
 9287TIP3   OH249351   5.029   4.868   2.534 -0.0026 -0.0431 -0.1678
 9287TIP3    H149352   5.005   4.779   2.507 -1.2556  0.5020 -0.9006
 9287TIP3    H249353   4.952   4.921   2.513  0.9303  1.3196 -0.2285
 9288TIP3   OH249354   1.667   3.517  13.400  0.5391 -0.5621 -0.0112
 9288TIP3    H149355   1.640   3.460  13.328 -1.6858  1.8102 -1.1353
 9288TIP3    H249356   1.759   3.538  13.381  0.5404 -1.4879 -1.1038
 9289TIP3   OH249357   1.040   0.691  17.166  0.5267  0.5123 -0.4134
 9289TIP3    H149358   0.995   0.607  17.174  1.6188  0.0711  1.4272
 9289TIP3    H249359   0.981   0.754  17.208  1.5151 -0.0519  1.9222
 9290TIP3   OH249360   6.495   1.688  12.159 -0.1360 -0.3665 -0.6421
 9290TIP3    H149361   6.427   1.710  12.096 -1.0978 -0.3883  0.3713
 9290TIP3    H249362   6.528   1.772  12.190  0.1684 -0.3557 -0.9978
 9291TIP3   OH249363   3.282   5.919  13.671  0.0339 -0.1388 -0.4677
 9291TIP3    H149364   3.191   5.942  13.689 -0.2787 -0.6991 -1.2915
 9291TIP3    H249365   3.315   5.885  13.754 -0.7337 -0.6384 -0.3596
 9292TIP3   OH249366   0.399   0.487  16.661  0.1261  0.1416  0.3301
 9292TIP3    H149367   0.468   0.544  16.625  0.0862 -0.3200 -0.4802
 9292TIP3    H249368   0.401   0.505  16.755  1.7582 -0.3088  0.3950
 9293TIP3   OH249369   2.132   6.769   4.312 -0.2228 -0.0968  0.0892
 9293TIP3    H149370   2.151   6.842   4.254 -0.7657 -0.7141 -0.8644
 9293TIP3    H249371   2.218   6.740   4.343 -0.0256  1.1150  0.6904
 9294TIP3   OH249372   4.497   4.230   2.868 -0.4286 -0.5259 -0.2340
 9294TIP3    H149373   4.563   4.298   2.878  1.4433 -2.2337 -0.5018
 9294TIP3    H249374   4.488   4.193   2.956 -2.3984  0.8748  0.1938
 9295TIP3   OH249375   5.358   6.147   4.607 -0.1038 -0.2103 -0.2076
 9295TIP3    H149376   5.422   6.131   4.676  0.4328 -0.2878 -0.7146
 9295TIP3    H249377   5.403   6.120   4.527 -1.6476 -2.6331 -0.2983
 9296TIP3   OH249378   5.988   1.540  11.049  0.3497 -0.0741 -0.1284
 9296TIP3    H149379   5.920   1.472  11.052  1.0043 -0.7840 -0.7518
 9296TIP3    H249380   6.045   1.512  10.977  0.5439  1.2326 -0.4959
 9297TIP3   OH249381   1.628   1.347  12.790 -0.2436  0.0017  0.2837
 9297TIP3    H149382   1.584   1.425  12.758 -0.1715 -0.4762 -0.9848
 9297TIP3    H249383   1.626   1.286  12.717  1.5461 -0.4220  0.5569
 9298TIP3   OH249384   3.930   6.549   0.314  0.1984 -0.4006 -0.6304
 9298TIP3    H149385   3.903   6.602   0.389 -1.2899  0.4991 -1.7742
 9298TIP3    H249386   3.940   6.612   0.242 -1.0171 -1.5834 -1.8674
 9299TIP3   OH249387   5.531   2.058   2.228  0.2062  0.4278 -0.1367
 9299TIP3    H149388   5.511   2.042   2.136  0.8652 -1.3382  0.0060
 9299TIP3    H249389   5.501   1.979   2.273  1.4258  0.5623  0.9349
 9300TIP3   OH249390   6.302   1.091   0.293  0.1008 -0.4262  0.2176
 9300TIP3    H149391   6.381   1.122   0.248 -0.3301 -0.2663 -0.4412
 9300TIP3    H249392   6.279   1.163   0.352 -0.1925  0.0045 -0.4117
 9301TIP3   OH249393   1.637   6.396   3.278 -0.0598 -0.3617 -0.3211
 9301TIP3    H149394   1.696   6.418   3.350  0.6082 -0.0575 -0.9506
 9301TIP3    H249395   1.645   6.470   3.217 -1.2002 -0.2462 -0.3502
 9302TIP3   OH249396   6.789   3.774  11.496 -0.0012  0.6117  0.0545
 9302TIP3    H149397   6.806   3.694  11.446 -0.5477 -0.5996  1.7851
 9302TIP3    H249398   6.715   3.815  11.450  1.5049  1.1638 -1.9884
 9303TIP3   OH249399   2.203   0.322   3.387  0.2170  0.1888  0.1446
 9303TIP3    H149400   2.165   0.370   3.460  1.8464  0.4914  0.8021
 9303TIP3    H249401   2.276   0.376   3.358 -0.9542  0.5237 -2.3042
 9304TIP3   OH249402   1.992   5.250  11.637 -0.5602 -0.6750  0.0103
 9304TIP3    H149403   1.899   5.228  11.626 -0.1727 -1.9162 -0.7866
 9304TIP3    H249404   2.016   5.291  11.554 -0.2108 -0.9759 -0.0342
 9305TIP3   OH249405   2.167   0.791  10.839  0.0482 -0.3011 -0.2369
 9305TIP3    H149406   2.195   0.834  10.758 -0.1682 -0.7376 -0.5530
 9305TIP3    H249407   2.082   0.752  10.816 -0.9134  1.1777  0.7727
 9306TIP3   OH249408   2.683   3.354   5.500 -0.0838  0.1190 -0.1410
 9306TIP3    H149409   2.610   3.366   5.562  0.2005 -0.5374  0.3272
 9306TIP3    H249410   2.760   3.342   5.556 -0.1489 -2.6286 -0.5505
 9307TIP3   OH249411   2.558   0.470   0.047  0.1468 -0.0794  0.0774
 9307TIP3    H149412   2.520   0.474  -0.040 -0.4024  0.3245  0.3345
 9307TIP3    H249413   2.499   0.414   0.097 -0.2430  0.7184  0.5326
 9308TIP3   OH249414   2.630   1.442  16.448 -0.2484  1.1333  0.6127
 9308TIP3    H149415   2.721   1.472  16.454  0.6670 -1.2392 -0.7835
 9308TIP3    H249416   2.631   1.354  16.483 -2.4121  1.7288  2.3133
 9309TIP3   OH249417   5.804   0.568   4.425 -0.1843  0.0146  0.0305
 9309TIP3    H149418   5.831   0.482   4.456 -2.7061 -1.1480 -0.8485
 9309TIP3    H249419   5.877   0.599   4.372 -0.3789 -2.8375 -1.9792
 9310TIP3   OH249420   5.818   4.444   3.481 -0.0609  0.1756 -0.5279
 9310TIP3    H149421   5.877   4.374   3.507  1.9092  1.6444 -0.9569
 9310TIP3    H249422   5.771   4.467   3.562 -0.2015 -1.1206 -0.2320
 9311TIP3   OH249423   5.072   4.300  13.407 -0.3408  0.5543 -0.4129
 9311TIP3    H149424   5.017   4.275  13.333  0.7653  1.3255 -1.5243
 9311TIP3    H249425   5.137   4.359  13.369  1.0210 -0.0543  0.9394
 9312TIP3   OH249426   4.364   2.515   2.449  0.2245 -1.1629  0.0469
 9312TIP3    H149427   4.369   2.606   2.478 -2.4788 -1.0860  0.3615
 9312TIP3    H249428   4.408   2.466   2.518 -0.1598 -0.2894  0.9283
 9313TIP3   OH249429   0.881   6.793   4.876 -0.2315  0.1797 -0.9425
 9313TIP3    H149430   0.792   6.809   4.909 -0.7162  0.1237 -2.1890
 9313TIP3    H249431   0.923   6.742   4.945 -0.9721  0.7241 -0.0745
 9314TIP3   OH249432   4.823   4.769   6.021  0.0646 -0.5557  0.6815
 9314TIP3    H149433   4.753   4.797   6.080  0.1716  1.6836 -0.1977
 9314TIP3    H249434   4.876   4.710   6.073 -1.1118 -0.3760  2.1170
 9315TIP3   OH249435   5.621   4.228  15.522  0.2934  0.3138  0.8240
 9315TIP3    H149436   5.702   4.194  15.559  0.5273  1.4487  1.3726
 9315TIP3    H249437   5.559   4.228  15.595 -0.2445 -0.6723  0.3756
 9316TIP3   OH249438   1.470   0.984   2.211  0.3764 -0.0707  0.5846
 9316TIP3    H149439   1.402   0.998   2.278  1.3814 -0.2316  1.6544
 9316TIP3    H249440   1.463   0.891   2.190 -0.6791  0.2115 -0.3547
 9317TIP3   OH249441   4.897   3.256  11.334  0.0845 -0.0091 -0.0078
 9317TIP3    H149442   4.926   3.166  11.354  0.4737  0.3938  1.2894
 9317TIP3    H249443   4.821   3.244  11.277  0.4999 -1.1568 -0.3508
 9318TIP3   OH249444   2.610   1.331  15.528  0.4544 -0.4842 -0.3691
 9318TIP3    H149445   2.541   1.358  15.588 -0.7263 -0.0564 -1.8848
 9318TIP3    H249446   2.626   1.239  15.550  0.7352 -0.0594  1.2500
 9319TIP3   OH249447   6.802   5.185   4.294  0.2873  0.0289 -0.0222
 9319TIP3    H149448   6.709   5.198   4.310 -0.0290  0.3171 -1.8972
 9319TIP3    H249449   6.805   5.122   4.221  1.5378  0.2527 -0.1792
 9320TIP3   OH249450   2.486   3.537  15.740 -0.2008  0.0382 -0.1081
 9320TIP3    H149451   2.478   3.521  15.835  1.0525 -0.5007 -0.0712
 9320TIP3    H249452   2.494   3.450  15.702  1.9709  0.3500 -0.4236
 9321TIP3   OH249453   0.943   2.686  12.971  0.0863  0.3964  0.2308
 9321TIP3    H149454   0.854   2.651  12.963  0.1217  0.3999 -0.1828
 9321TIP3    H249455   0.931   2.777  12.999 -0.1143  1.0947 -2.0624
 9322TIP3   OH249456   0.672   3.534   1.550 -0.3614  0.2186 -0.1474
 9322TIP3    H149457   0.693   3.483   1.471 -1.4871  1.1604 -1.0667
 9322TIP3    H249458   0.754   3.580   1.570  0.4971 -1.4399  0.3510
 9323TIP3   OH249459   5.877   0.803   0.711 -0.0976  0.1095  0.1682
 9323TIP3    H149460   5.946   0.777   0.772 -0.4147 -0.0795  0.4473
 9323TIP3    H249461   5.797   0.803   0.763 -0.4299 -0.4013 -0.3273
 9324TIP3   OH249462   1.444   1.012  16.463  0.2052  0.7706  0.2347
 9324TIP3    H149463   1.402   1.037  16.380  0.1332  0.2599  0.1073
 9324TIP3    H249464   1.420   1.081  16.524 -1.6158  0.0001  0.4152
 9325TIP3   OH249465   6.812   1.075   6.098  0.0558 -0.3805 -0.1062
 9325TIP3    H149466   6.788   1.008   6.162  3.2658 -1.3875  0.1515
 9325TIP3    H249467   6.905   1.092   6.115  0.0100  2.1292 -2.0109
 9326TIP3   OH249468   4.125   5.751   5.129  0.0709  0.0562 -0.0076
 9326TIP3    H149469   4.093   5.812   5.062 -0.6570 -0.8339 -0.4738
 9326TIP3    H249470   4.075   5.774   5.208  0.1311  0.3698 -0.0596
 9327TIP3   OH249471   4.195   1.078   5.650  0.0198  0.4832 -0.1980
 9327TIP3    H149472   4.226   1.053   5.737  1.5918  0.3390 -0.7802
 9327TIP3    H249473   4.229   1.166   5.637 -3.2662  1.9899  0.7619
 9328TIP3   OH249474   3.953   1.310   3.872 -0.7240  0.9916 -0.0982
 9328TIP3    H149475   4.036   1.358   3.885 -0.2497  0.5405 -1.3631
 9328TIP3    H249476   3.969   1.255   3.795 -0.6672 -2.5353  2.3181
 9329TIP3   OH249477   2.837   0.613  15.249 -0.0261  0.5025  0.6075
 9329TIP3    H149478   2.916   0.560  15.234 -0.2316  0.0365  1.1421
 9329TIP3    H249479   2.789   0.565  15.316 -0.9083  0.6410  0.0768
 9330TIP3   OH249480   3.075   3.007  11.267 -0.2821  0.0311 -0.1020
 9330TIP3    H149481   3.067   2.944  11.194 -1.5430  0.2631 -0.1835
 9330TIP3    H249482   2.996   2.992  11.319  0.8361 -0.4338  1.4775
 9331TIP3   OH249483   4.936   1.837  13.916 -0.4876  0.1420  0.6533
 9331TIP3    H149484   4.892   1.787  13.985 -2.0617  0.1567 -0.3068
 9331TIP3    H249485   4.892   1.922  13.917  1.8656  1.3927  1.9771
 9332TIP3   OH249486   2.096   4.719  11.292  0.3553 -0.0698 -0.6174
 9332TIP3    H149487   2.021   4.735  11.235 -0.5744 -1.0917  0.2828
 9332TIP3    H249488   2.121   4.805  11.325 -0.8028  0.2174 -0.4710
 9333TIP3   OH249489   1.207   3.433   2.720 -0.0277 -0.2872  0.3601
 9333TIP3    H149490   1.286   3.379   2.723 -0.8796 -1.5197  1.0538
 9333TIP3    H249491   1.229   3.512   2.770  0.7499 -0.6333  0.5627
 9334TIP3   OH249492   1.186   2.315  10.965  0.2076 -0.2349 -0.2392
 9334TIP3    H149493   1.114   2.258  10.992 -0.3779  1.1338  1.1858
 9334TIP3    H249494   1.146   2.379  10.907  0.9771 -1.5836 -2.3141
 9335TIP3   OH249495   1.186   4.311   1.382  0.1994  0.0468 -0.0450
 9335TIP3    H149496   1.122   4.364   1.430  0.7873  0.4137  0.3300
 9335TIP3    H249497   1.153   4.221   1.391  0.2638  0.1146  0.9912
 9336TIP3   OH249498   0.030   6.548   4.489 -0.1357  0.4991 -0.6775
 9336TIP3    H149499  -0.014   6.627   4.522 -0.3609 -0.4847  1.3899
 9336TIP3    H249500   0.119   6.577   4.470 -0.3368  1.3575 -0.3443
 9337TIP3   OH249501   5.457   2.800  12.130  0.3230  0.7472  0.0756
 9337TIP3    H149502   5.501   2.725  12.170 -0.3211  0.3995  0.1505
 9337TIP3    H249503   5.429   2.853  12.204  0.6097  0.9616  0.0306
 9338TIP3   OH249504   1.670   0.478   5.544 -0.2017 -0.2619 -0.5288
 9338TIP3    H149505   1.733   0.415   5.580  0.3032  0.7132  0.3241
 9338TIP3    H249506   1.587   0.454   5.585 -0.1074 -0.6468 -0.5537
 9339TIP3   OH249507   6.111   3.901   2.665 -0.3976 -0.0534 -0.6840
 9339TIP3    H149508   6.142   3.811   2.661 -0.4068 -0.0011 -2.2530
 9339TIP3    H249509   6.024   3.895   2.704 -0.2788 -0.6787 -0.5125
 9340TIP3   OH249510   6.330   4.016   5.951 -0.0589 -1.1009  0.5285
 9340TIP3    H149511   6.405   3.970   5.989  0.6666 -1.1500 -0.9464
 9340TIP3    H249512   6.316   4.091   6.009  1.8606 -0.4332  0.1695
 9341TIP3   OH249513   4.793   5.793  17.106  0.4061  0.1765  0.1480
 9341TIP3    H149514   4.716   5.764  17.057  0.1441 -1.0123  1.2345
 9341TIP3    H249515   4.855   5.821  17.039 -0.3130 -0.5155 -0.8222
 9342TIP3   OH249516   1.067   4.084   6.051  0.3579 -0.4798 -0.5572
 9342TIP3    H149517   1.004   4.136   6.002 -0.0549 -1.0374 -0.6273
 9342TIP3    H249518   1.151   4.127   6.036  0.6425 -1.9405 -3.6966
 9343TIP3   OH249519   1.995   2.128  12.806  0.1917  0.1515  0.2560
 9343TIP3    H149520   2.067   2.104  12.747 -0.3631 -1.5255  0.2335
 9343TIP3    H249521   1.957   2.045  12.832  0.3631  0.8686  2.9358
 9344TIP3   OH249522   6.776   6.098   4.587  0.2173 -0.1988  0.6416
 9344TIP3    H149523   6.797   6.024   4.645 -1.0704  0.0672  1.4697
 9344TIP3    H249524   6.759   6.058   4.502  1.3045 -0.6754  0.6421
 9345TIP3   OH249525   3.352   5.084   2.562  0.9189 -0.2996 -0.0289
 9345TIP3    H149526   3.269   5.058   2.522  1.5861  0.1409 -1.7219
 9345TIP3    H249527   3.394   5.139   2.496  2.7745 -0.9207  0.6138
 9346TIP3   OH249528   2.384   3.110  10.471  0.2220 -0.6628  0.1501
 9346TIP3    H149529   2.408   3.158  10.392  1.5875 -1.1955  0.2228
 9346TIP3    H249530   2.378   3.018  10.443  1.2599 -0.9263  0.7645
 9347TIP3   OH249531   0.960   6.048  12.829  0.1644  0.1931  0.2516
 9347TIP3    H149532   1.014   6.124  12.808  2.4421 -1.1220  1.1376
 9347TIP3    H249533   1.022   5.976  12.840 -1.8774 -1.6646  0.1220
 9348TIP3   OH249534   5.251   1.320   4.224  0.3980 -0.6323 -0.5219
 9348TIP3    H149535   5.198   1.284   4.295  0.7481 -0.7670 -0.3278
 9348TIP3    H249536   5.200   1.394   4.191  0.7902  0.1793  0.6619
 9349TIP3   OH249537   0.543   2.762  11.685  0.5408  0.2028  0.2135
 9349TIP3    H149538   0.603   2.787  11.754  2.3691  1.5991 -1.8166
 9349TIP3    H249539   0.479   2.833  11.681  2.3333  1.7829 -1.6407
 9350TIP3   OH249540   1.382   0.390   5.221 -0.1520  0.7946  0.6163
 9350TIP3    H149541   1.476   0.376   5.235 -0.5604 -1.0171  1.6615
 9350TIP3    H249542   1.376   0.426   5.132  1.4141 -0.6634 -0.1129
 9351TIP3   OH249543   1.837   2.701  15.795 -0.4596 -0.0470 -0.2235
 9351TIP3    H149544   1.837   2.696  15.699  0.4673 -1.2112 -0.1728
 9351TIP3    H249545   1.848   2.794  15.814 -0.9758  0.2266 -1.2494
 9352TIP3   OH249546   2.392   0.834   2.624  0.1779  0.0293  0.3542
 9352TIP3    H149547   2.467   0.837   2.684  0.3634  0.2688  0.1126
 9352TIP3    H249548   2.378   0.741   2.609  0.2923 -0.0243  0.5697
 9353TIP3   OH249549   5.239   3.476  12.619  0.2863  0.2798 -0.3995
 9353TIP3    H149550   5.332   3.486  12.599  0.2472 -0.4225 -0.9707
 9353TIP3    H249551   5.233   3.494  12.713  0.8365  1.3074 -0.5521
 9354TIP3   OH249552   1.779   6.180  14.835 -0.3283  0.2216  0.2857
 9354TIP3    H149553   1.815   6.102  14.876  0.1396  0.2195 -0.1162
 9354TIP3    H249554   1.849   6.245  14.842 -0.9008  0.7567  1.0704
 9355TIP3   OH249555   0.314   2.507   4.541 -0.0445  0.0858  0.2866
 9355TIP3    H149556   0.255   2.580   4.560  0.7174  0.9702 -0.6651
 9355TIP3    H249557   0.367   2.497   4.620 -1.1233 -0.3782  0.9551
 9356TIP3   OH249558   4.336   0.909  14.944  0.3900  0.9842  0.4012
 9356TIP3    H149559   4.278   0.883  14.872 -0.2586  1.8547  0.6091
 9356TIP3    H249560   4.421   0.871  14.921  0.2701  1.5511 -1.0129
 9357TIP3   OH249561   3.507   1.491   4.105 -0.0600  0.2292 -0.3013
 9357TIP3    H149562   3.509   1.553   4.032  1.4140  0.7791  0.1924
 9357TIP3    H249563   3.558   1.416   4.073  2.6465  1.4520  1.0019
 9358TIP3   OH249564   4.562   1.719  11.955 -0.7543 -0.1884 -0.4432
 9358TIP3    H149565   4.565   1.782  11.882 -1.6074 -2.5234 -2.5791
 9358TIP3    H249566   4.488   1.662  11.934  0.5277 -2.4211  0.9671
 9359TIP3   OH249567   6.123   1.508   4.828  0.5155 -0.0459  0.4489
 9359TIP3    H149568   6.195   1.571   4.833  0.9813 -0.5687  0.4233
 9359TIP3    H249569   6.069   1.528   4.905  1.1901 -0.2473  0.9825
 9360TIP3   OH249570   0.113   3.511  12.554 -0.4631 -0.4776  0.1496
 9360TIP3    H149571   0.040   3.448  12.557 -0.9169  0.0487  0.3168
 9360TIP3    H249572   0.095   3.565  12.478 -0.5061 -0.0409  0.4678
 9361TIP3   OH249573   4.266   2.725  15.855  0.0031  0.2006 -0.4107
 9361TIP3    H149574   4.183   2.701  15.813 -0.4995  0.1774  0.5913
 9361TIP3    H249575   4.311   2.642  15.869  0.8198  0.3196 -2.2283
 9362TIP3   OH249576   5.588   5.717   2.946  0.6906 -0.4493  0.3890
 9362TIP3    H149577   5.570   5.624   2.931  0.1982 -0.0962 -1.3428
 9362TIP3    H249578   5.662   5.717   3.006  1.6857 -1.9915 -0.7881
 9363TIP3   OH249579   2.672   1.889   1.321  0.0045  0.0816  0.1147
 9363TIP3    H149580   2.721   1.937   1.387 -0.8432  0.0948  0.7457
 9363TIP3    H249581   2.709   1.918   1.238  1.5676 -0.4606  0.5911
 9364TIP3   OH249582   2.229   4.495   1.472  0.3094 -0.4378  0.1760
 9364TIP3    H149583   2.161   4.513   1.538 -0.4487 -3.1007  0.1766
 9364TIP3    H249584   2.274   4.578   1.461 -1.6374  0.8741  1.7056
 9365TIP3   OH249585   0.564   4.196  16.260 -0.0242  0.0413 -0.1756
 9365TIP3    H149586   0.502   4.252  16.212  0.0145 -0.0725 -0.3583
 9365TIP3    H249587   0.513   4.160  16.332 -0.3164 -0.4603 -0.6242
 9366TIP3   OH249588   1.934   5.195  14.795  0.1197 -0.1197 -0.2310
 9366TIP3    H149589   1.928   5.123  14.858  0.6604  1.2288  1.4318
 9366TIP3    H249590   1.956   5.271  14.849  1.7374  0.8605 -2.2253
 9367TIP3   OH249591   5.779   5.295  15.209 -0.2991  0.2013 -0.0493
 9367TIP3    H149592   5.826   5.375  15.184  1.0097 -0.8495 -1.0333
 9367TIP3    H249593   5.689   5.309  15.179  0.3205  0.6151 -1.7680
 9368TIP3   OH249594   6.471   6.081   1.786  0.4034  0.1579 -0.7161
 9368TIP3    H149595   6.406   6.011   1.795  0.1016  0.0948 -3.2751
 9368TIP3    H249596   6.425   6.160   1.813 -0.4928 -0.0133 -1.7469
 9369TIP3   OH249597   6.281   3.259   6.347 -0.1588  0.2918  0.0869
 9369TIP3    H149598   6.198   3.218   6.323  0.4687 -0.4971 -0.7168
 9369TIP3    H249599   6.333   3.189   6.387 -0.3722  1.0842  1.8382
 9370TIP3   OH249600   6.813   0.765   0.265  0.4344  0.9223 -0.2766
 9370TIP3    H149601   6.797   0.810   0.183  1.3796  1.4349 -0.1920
 9370TIP3    H249602   6.854   0.831   0.321  2.0440 -0.0720 -0.2274
 9371TIP3   OH249603   1.259   1.968  15.265 -0.2623  0.2633 -0.1561
 9371TIP3    H149604   1.256   2.056  15.228  0.7711  0.8030  0.9924
 9371TIP3    H249605   1.284   1.981  15.356 -0.8092 -1.1750  0.2130
 9372TIP3   OH249606   1.642   6.422   3.651 -0.3046  0.0735 -0.0707
 9372TIP3    H149607   1.553   6.419   3.615 -0.1270 -2.3954 -0.4089
 9372TIP3    H249608   1.649   6.343   3.704  0.8912  1.4896  1.9596
 9373TIP3   OH249609   3.128   0.425   1.354 -0.1152  0.1738 -0.0451
 9373TIP3    H149610   3.187   0.451   1.283  0.1905 -1.4893 -0.4178
 9373TIP3    H249611   3.057   0.379   1.311 -0.8405  0.7115  0.5679
 9374TIP3   OH249612   4.270   4.715  11.408  0.1941 -0.9684  0.0174
 9374TIP3    H149613   4.228   4.658  11.344  1.4982  0.5707 -2.2469
 9374TIP3    H249614   4.364   4.704  11.392  0.5972 -1.2371  2.2897
 9375TIP3   OH249615   1.730   2.249   1.923  0.3680  0.1352 -0.0577
 9375TIP3    H149616   1.769   2.336   1.926  0.3725  0.1097  0.8494
 9375TIP3    H249617   1.649   2.261   1.874 -0.2626  0.9098  1.1396
 9376TIP3   OH249618   3.351   5.609   1.274  0.5256  0.2624 -0.6394
 9376TIP3    H149619   3.335   5.633   1.365  1.1718  0.5823 -0.6082
 9376TIP3    H249620   3.426   5.662   1.248  1.5042 -1.2058 -0.8026
 9377TIP3   OH249621   5.969   3.107   0.124 -0.2149 -0.0553 -0.2823
 9377TIP3    H149622   5.896   3.094   0.184 -0.0302 -0.5584 -0.1611
 9377TIP3    H249623   6.045   3.117   0.181  0.1278 -1.5889 -0.4321
 9378TIP3   OH249624   1.954   2.233  16.265 -0.0074 -0.2019  0.3390
 9378TIP3    H149625   1.923   2.255  16.176  0.2167 -3.0661 -0.4902
 9378TIP3    H249626   1.877   2.198  16.309  0.5228 -1.3793  0.3515
 9379TIP3   OH249627   3.027   0.517  16.256  0.2155  0.2331 -0.0587
 9379TIP3    H149628   3.037   0.425  16.282  1.2043 -0.3351 -2.3583
 9379TIP3    H249629   3.114   0.555  16.269 -0.2476  0.9294  1.1100
 9380TIP3   OH249630   3.839   6.217   3.905 -0.1507 -1.0198 -0.4815
 9380TIP3    H149631   3.871   6.273   3.976 -0.7362 -0.4808 -0.6416
 9380TIP3    H249632   3.917   6.169   3.877  0.3729 -0.2571 -0.3762
 9381TIP3   OH249633   6.609   2.467   0.666 -0.0632 -0.3062  0.1532
 9381TIP3    H149634   6.552   2.516   0.608 -0.2377 -1.5124 -0.7233
 9381TIP3    H249635   6.593   2.503   0.753 -1.3078  0.1380 -0.2549
 9382TIP3   OH249636   0.357   1.762  11.964 -0.6510  0.5106  0.1319
 9382TIP3    H149637   0.309   1.844  11.953 -1.6970 -0.3095 -1.6069
 9382TIP3    H249638   0.305   1.713  12.028  0.0400  1.2181  1.2653
 9383TIP3   OH249639   6.081   4.628  14.518  0.0199  0.4716  0.2506
 9383TIP3    H149640   6.137   4.705  14.508 -1.2806  1.5020  0.7975
 9383TIP3    H249641   6.100   4.595  14.606  1.2725 -0.4027 -0.3364
 9384TIP3   OH249642   3.623   6.560  12.054  0.1573  0.2763 -0.0720
 9384TIP3    H149643   3.612   6.605  11.970 -2.1297  0.2943  0.2076
 9384TIP3    H249644   3.625   6.467  12.031  1.3975  0.3636 -0.3226
 9385TIP3   OH249645   2.332   0.954   4.392  0.2913  0.2582  0.4499
 9385TIP3    H149646   2.275   0.958   4.316 -0.1479  1.3998  0.8415
 9385TIP3    H249647   2.280   0.910   4.459  0.3099  0.1960  0.4237
 9386TIP3   OH249648   4.104   2.794  16.241 -0.2836  0.1808 -0.2600
 9386TIP3    H149649   4.099   2.865  16.176 -1.0436  0.6443  0.2977
 9386TIP3    H249650   4.189   2.807  16.283 -1.1698  1.8673  1.0793
 9387TIP3   OH249651   4.239   0.104   0.849  0.2799  0.4205  0.5038
 9387TIP3    H149652   4.319   0.146   0.817 -0.1187  1.0050  0.2652
 9387TIP3    H249653   4.261   0.077   0.938  1.1734 -0.6053 -0.0140
 9388TIP3   OH249654   1.048   2.977  10.895 -0.1170 -0.0904 -0.2829
 9388TIP3    H149655   1.008   2.940  10.973 -0.3118  0.2855 -0.2026
 9388TIP3    H249656   1.080   2.902  10.845  0.5060 -0.2985  0.4321
 9389TIP3   OH249657   6.789   2.908  16.504 -0.4287 -0.0240  0.5724
 9389TIP3    H149658   6.833   2.983  16.465  1.1972 -1.7465 -1.0326
 9389TIP3    H249659   6.696   2.922  16.488 -0.0919  1.3645 -0.1770
 9390TIP3   OH249660   0.501   4.520   1.776 -0.2875  0.7812  0.6577
 9390TIP3    H149661   0.425   4.468   1.751  0.8789 -0.4592 -0.3738
 9390TIP3    H249662   0.529   4.483   1.860  0.4217 -0.1558  0.0205
 9391TIP3   OH249663   2.106   1.284  12.245  0.1492 -0.1056  0.1814
 9391TIP3    H149664   2.145   1.294  12.158 -0.8878  3.1232  0.0046
 9391TIP3    H249665   2.045   1.210  12.236  0.7014 -0.3611 -1.5933
 9392TIP3   OH249666   3.828   0.511  12.744  0.5861  0.0105 -0.0825
 9392TIP3    H149667   3.772   0.434  12.736 -0.6867  1.0707 -1.7739
 9392TIP3    H249668   3.778   0.570  12.801  0.7106  0.3128 -0.2878
 9393TIP3   OH249669   4.414   2.272   0.748  0.4300 -0.1402 -0.4782
 9393TIP3    H149670   4.322   2.267   0.772  0.8516 -0.2769  1.2233
 9393TIP3    H249671   4.443   2.180   0.743  0.2323 -0.1242 -2.0230
 9394TIP3   OH249672   2.225   3.562  11.318 -0.2732  0.2835  0.2389
 9394TIP3    H149673   2.254   3.609  11.240  0.6271 -1.6596 -0.6364
 9394TIP3    H249674   2.299   3.504  11.340 -1.6290 -1.2582  0.8311
 9395TIP3   OH249675   3.179   2.134  11.912 -0.0402 -0.8464  0.3786
 9395TIP3    H149676   3.163   2.152  11.819 -1.9044  1.9219  1.1559
 9395TIP3    H249677   3.256   2.186  11.933 -0.4895 -0.3102  0.7102
 9396TIP3   OH249678   3.296   3.408   4.359  0.1385  0.1204 -0.0211
 9396TIP3    H149679   3.374   3.397   4.305 -0.0446 -0.7669 -0.1280
 9396TIP3    H249680   3.247   3.479   4.317 -0.7486 -1.5749 -1.9673
 9397TIP3   OH249681   1.397   5.279  11.915  0.6214  0.6166 -0.0167
 9397TIP3    H149682   1.343   5.250  11.988  2.9111  0.3362  1.6523
 9397TIP3    H249683   1.451   5.203  11.894  3.3713  2.0997  1.2721
 9398TIP3   OH249684   1.219   6.763   5.232  0.5985 -0.0463  0.3891
 9398TIP3    H149685   1.132   6.748   5.196  0.4792  1.4020  0.0172
 9398TIP3    H249686   1.279   6.744   5.160  0.2679  4.8977 -1.4167
 9399TIP3   OH249687   3.819   6.418   5.372  0.5613  0.1343  0.2654
 9399TIP3    H149688   3.739   6.470   5.362  0.7639  0.6454  1.2621
 9399TIP3    H249689   3.812   6.350   5.305 -0.8587 -0.0184  0.5559
 9400TIP3   OH249690   2.851   0.993  16.921 -0.1631 -0.5514  0.5572
 9400TIP3    H149691   2.799   0.916  16.939  0.0592 -0.8619 -0.0985
 9400TIP3    H249692   2.941   0.967  16.939  0.0389 -0.7997 -0.7213
 9401TIP3   OH249693   0.937   0.076   2.957  0.1385 -0.0797 -0.4201
 9401TIP3    H149694   1.020   0.034   2.934  0.2381  0.1629 -0.5079
 9401TIP3    H249695   0.963   0.149   3.014  0.1092  0.8472 -1.5643
 9402TIP3   OH249696   0.968   1.029   3.710 -0.1784  0.3634 -0.0251
 9402TIP3    H149697   0.992   0.964   3.644 -0.5507 -1.1607  1.3081
 9402TIP3    H249698   0.876   1.049   3.691 -0.2199  0.0929 -0.1106
 9403TIP3   OH249699   4.121   4.996   5.649  0.0705 -0.3315 -0.0917
 9403TIP3    H149700   4.093   5.062   5.713 -0.5114 -0.2691 -0.4087
 9403TIP3    H249701   4.047   4.936   5.642  0.3464 -0.6514 -0.2931
 9404TIP3   OH249702   2.069   2.125   5.746 -0.3239 -0.0429 -0.0401
 9404TIP3    H149703   2.084   2.203   5.693  0.8880 -0.1541  0.1066
 9404TIP3    H249704   2.148   2.117   5.799 -0.8226 -0.8598  0.5955
 9405TIP3   OH249705   4.825   3.090   4.811 -0.1321 -0.5353  0.0343
 9405TIP3    H149706   4.897   3.051   4.859  0.3217  2.8151  2.2291
 9405TIP3    H249707   4.771   3.133   4.878 -0.5191  2.6172 -2.1498
 9406TIP3   OH249708   1.803   0.035  13.320  0.2146  0.4083 -0.1927
 9406TIP3    H149709   1.732   0.083  13.278  1.2558  1.1867 -1.0904
 9406TIP3    H249710   1.879   0.093  13.312  0.8417 -0.1986  1.1865
 9407TIP3   OH249711   5.968   0.010  14.238  0.1618  0.0671 -0.1538
 9407TIP3    H149712   6.014   0.091  14.263 -1.1119  1.1143 -1.1155
 9407TIP3    H249713   5.963   0.015  14.143 -3.1481  0.6649  0.0064
 9408TIP3   OH249714   0.976   4.135  15.854 -0.3095  0.0496 -0.0759
 9408TIP3    H149715   0.954   4.100  15.940 -0.4125  1.0044  0.2920
 9408TIP3    H249716   0.893   4.167  15.819  0.1011  1.7284  0.4317
 9409TIP3   OH249717   1.923   3.262   5.660 -0.2509  0.3618 -0.4223
 9409TIP3    H149718   1.982   3.316   5.712 -0.1335  1.2448 -1.4622
 9409TIP3    H249719   1.954   3.272   5.570 -1.6015  0.3270 -0.8976
 9410TIP3   OH249720   3.994   1.297   2.370  0.2733  0.7484  0.4344
 9410TIP3    H149721   3.949   1.262   2.293  1.9815  1.0408 -0.7475
 9410TIP3    H249722   4.034   1.221   2.411  0.5102  0.7718  0.2469
 9411TIP3   OH249723   4.694   2.908  11.370 -0.3368  0.2293 -0.2521
 9411TIP3    H149724   4.622   2.869  11.320  0.7960 -1.9601 -0.2036
 9411TIP3    H249725   4.765   2.918  11.306  0.4121 -0.6426  0.4260
 9412TIP3   OH249726   2.053   6.800   1.408  0.0622 -0.1836 -0.0083
 9412TIP3    H149727   2.107   6.873   1.436  0.4511  0.2935 -1.9443
 9412TIP3    H249728   2.069   6.792   1.314 -1.7505 -1.2577 -0.2636
 9413TIP3   OH249729   5.786   1.964   5.090  0.3498 -0.1476 -0.1178
 9413TIP3    H149730   5.841   2.032   5.130 -1.6956  1.0665  0.7260
 9413TIP3    H249731   5.729   2.011   5.029 -0.3093 -1.2502 -0.3779
 9414TIP3   OH249732   6.286   4.928  11.277  0.0110  0.2734  0.4868
 9414TIP3    H149733   6.371   4.971  11.284 -0.8065  1.7622  1.7604
 9414TIP3    H249734   6.254   4.951  11.190  0.7208  0.0645  0.1706
 9415TIP3   OH249735   2.798   4.324  16.266 -0.0868 -0.8355 -0.1448
 9415TIP3    H149736   2.891   4.302  16.270 -0.1126 -0.8247  0.5888
 9415TIP3    H249737   2.785   4.361  16.179  0.7645 -0.0623  0.0612
 9416TIP3   OH249738   6.305   3.976  14.103  0.0825 -0.0284  0.6704
 9416TIP3    H149739   6.306   3.914  14.031 -2.4305 -0.9244  1.3544
 9416TIP3    H249740   6.249   4.048  14.072  1.9417  1.3357  0.3673
 9417TIP3   OH249741   0.794   3.887   0.024  0.2832 -0.0224 -0.1891
 9417TIP3    H149742   0.730   3.878   0.094  0.1851  1.1223 -0.1187
 9417TIP3    H249743   0.755   3.843  -0.051 -0.1710 -0.1350  0.1129
 9418TIP3   OH249744   1.593   2.808   6.453  0.6064  0.0898  0.2321
 9418TIP3    H149745   1.626   2.777   6.537 -1.0020  1.1890  1.3133
 9418TIP3    H249746   1.663   2.790   6.391  1.2004 -2.1773  1.5224
 9419TIP3   OH249747   2.280   2.605   1.384  0.4542 -0.3130  0.4627
 9419TIP3    H149748   2.189   2.578   1.376  0.5667 -1.1284  1.8155
 9419TIP3    H249749   2.321   2.577   1.303 -0.2009 -1.1298  0.4132
 9420TIP3   OH249750   1.895   2.259  15.994  0.3676  0.0575  0.1198
 9420TIP3    H149751   1.933   2.326  15.936  0.7892 -1.1361 -1.0144
 9420TIP3    H249752   1.802   2.258  15.970  0.4564 -0.1204 -0.2168
 9421TIP3   OH249753   6.014   5.732  14.276  0.8018  0.0530  0.2516
 9421TIP3    H149754   6.100   5.745  14.315  0.6239  0.8965  0.3684
 9421TIP3    H249755   5.955   5.729  14.351  0.4938  1.3837  0.0776
 9422TIP3   OH249756   0.222   3.441   0.644 -0.1330  0.3148  0.2234
 9422TIP3    H149757   0.308   3.432   0.603 -0.3157 -0.9002  0.1123
 9422TIP3    H249758   0.162   3.394   0.586 -1.4947  3.9504 -1.5391
 9423TIP3   OH249759   6.206   3.436  13.338  0.3390 -0.3794  0.3706
 9423TIP3    H149760   6.299   3.456  13.327  1.1012 -2.8266  1.7668
 9423TIP3    H249761   6.184   3.472  13.424  0.0281  0.0371  0.1198
 9424TIP3   OH249762   5.691   2.452   5.891  0.4568  0.6164 -0.3095
 9424TIP3    H149763   5.720   2.414   5.973  0.1359  0.6316 -0.1884
 9424TIP3    H249764   5.765   2.504   5.860  0.7121  0.3029 -0.2213
 9425TIP3   OH249765   2.879   4.053   3.356  0.1381  0.2819  0.6869
 9425TIP3    H149766   2.922   4.133   3.386  0.4139  0.5360 -0.3858
 9425TIP3    H249767   2.828   4.080   3.280 -1.8635 -0.0183  1.8596
 9426TIP3   OH249768   4.820   5.033   5.906  0.2856 -0.2793 -0.0853
 9426TIP3    H149769   4.796   4.946   5.937  1.2404 -1.0864 -1.5158
 9426TIP3    H249770   4.774   5.043   5.822 -1.2211  1.3211  0.9063
 9427TIP3   OH249771   0.767   0.248  13.263 -0.9398 -0.7139  0.1143
 9427TIP3    H149772   0.714   0.301  13.324 -0.9988 -1.4803  0.7329
 9427TIP3    H249773   0.707   0.181  13.231 -0.2565 -1.8099  1.0998
 9428TIP3   OH249774   4.787   0.223   3.949 -0.7883  0.5280  0.0708
 9428TIP3    H149775   4.872   0.202   3.988 -1.0917  0.4158  0.6806
 9428TIP3    H249776   4.792   0.316   3.929  0.4526 -0.0176 -2.3461
 9429TIP3   OH249777   3.448   2.680   5.928 -0.7256 -0.0793  0.5085
 9429TIP3    H149778   3.538   2.672   5.897 -1.2257  1.1983 -1.4263
 9429TIP3    H249779   3.411   2.592   5.919  0.2024 -0.5067  0.8678
 9430TIP3   OH249780   0.084   0.859  16.006  0.9718 -0.1842 -0.9133
 9430TIP3    H149781   0.052   0.941  16.042 -0.4701 -1.1505  0.0594
 9430TIP3    H249782   0.095   0.876  15.913 -0.8046  0.6671 -0.9886
 9431TIP3   OH249783   4.896   5.912  11.133  0.6153 -0.8145  0.1731
 9431TIP3    H149784   4.944   5.920  11.215  0.5474  0.9089  0.0597
 9431TIP3    H249785   4.961   5.923  11.065  0.6946 -2.3881 -0.0302
 9432TIP3   OH249786   5.771   2.521   4.506 -0.0300  0.0140  0.8090
 9432TIP3    H149787   5.795   2.453   4.443 -0.0112 -0.4466  1.3074
 9432TIP3    H249788   5.689   2.558   4.473  1.0582  1.2036 -0.6017
 9433TIP3   OH249789   5.428   6.552   3.089 -0.1852 -0.6109 -1.1781
 9433TIP3    H149790   5.333   6.561   3.095 -0.1044  0.0498 -0.8329
 9433TIP3    H249791   5.445   6.531   2.998 -0.5924  0.2377 -1.4548
 9434TIP3   OH249792   2.937   3.821  12.256 -0.6165 -0.3980 -0.2236
 9434TIP3    H149793   2.933   3.728  12.232  1.1653 -0.5226 -0.1344
 9434TIP3    H249794   3.001   3.858  12.194  2.7456 -0.3698  3.1087
 9435TIP3   OH249795   3.131   4.808   2.867  0.1546 -0.3967  0.1770
 9435TIP3    H149796   3.057   4.809   2.806 -0.5422 -2.0240  0.9662
 9435TIP3    H249797   3.198   4.862   2.824 -2.4018  3.3549  0.6488
 9436TIP3   OH249798   1.420   5.468  13.614 -0.2337 -0.1800 -0.4796
 9436TIP3    H149799   1.416   5.473  13.709  0.8284 -0.6822 -0.3967
 9436TIP3    H249800   1.513   5.457  13.594 -0.3962  0.3571 -1.5985
 9437TIP3   OH249801   4.531   2.229   3.971 -0.1607  0.2703  0.1970
 9437TIP3    H149802   4.477   2.189   3.903  1.2783 -0.8960 -0.2954
 9437TIP3    H249803   4.513   2.323   3.964  0.9099  0.3149 -2.6636
 9438TIP3   OH249804   0.960   0.498   5.431  0.5801  0.4639 -0.3606
 9438TIP3    H149805   0.997   0.566   5.487  0.9604  0.9258 -1.1490
 9438TIP3    H249806   1.024   0.427   5.433 -0.6959 -0.6538  1.9373
 9439TIP3   OH249807   5.944   3.427  14.384 -0.0146  0.3142  0.2223
 9439TIP3    H149808   5.849   3.437  14.397  0.2199  1.1803  1.3673
 9439TIP3    H249809   5.965   3.344  14.427 -0.4707 -0.6016 -1.2789
 9440TIP3   OH249810   1.902   2.428   4.161  0.1769 -0.0816 -0.3332
 9440TIP3    H149811   1.888   2.397   4.251  1.1025 -2.5825 -1.0374
 9440TIP3    H249812   1.814   2.443   4.127 -0.2837 -1.7912  0.0749
 9441TIP3   OH249813   0.704   5.997   5.963  0.4653  0.6258  0.0516
 9441TIP3    H149814   0.787   5.998   5.915  2.1538  1.6883  2.8631
 9441TIP3    H249815   0.722   5.943   6.040 -1.5895  0.5504  0.4876
 9442TIP3   OH249816   0.140   1.385  13.417 -0.0604  0.5706  0.0017
 9442TIP3    H149817   0.130   1.367  13.510 -0.2934  3.6114  0.5888
 9442TIP3    H249818   0.232   1.410  13.407  0.0351 -0.0119 -0.6469
 9443TIP3   OH249819   6.367   4.845  13.835 -0.0744 -0.5448  0.3310
 9443TIP3    H149820   6.362   4.933  13.799 -0.0135 -0.8846 -0.5287
 9443TIP3    H249821   6.276   4.816  13.841  0.0120 -1.2172 -1.4088
 9444TIP3   OH249822   5.483   5.203  15.878 -0.2933  0.1151 -0.1543
 9444TIP3    H149823   5.414   5.171  15.936 -1.4800  0.3291 -1.4051
 9444TIP3    H249824   5.549   5.134  15.879 -0.2685  0.1405  1.4704
 9445TIP3   OH249825   3.171   0.606  13.823  0.2834  0.3702 -0.2264
 9445TIP3    H149826   3.198   0.632  13.735 -3.2893  4.1037 -0.3715
 9445TIP3    H249827   3.234   0.648  13.881  0.0483  1.6075 -0.8553
 9446TIP3   OH249828   5.780   0.158  13.510  0.4231 -0.5049 -0.1232
 9446TIP3    H149829   5.794   0.115  13.426  2.6327 -1.4454  0.6935
 9446TIP3    H249830   5.847   0.226  13.515 -0.8705  0.7884  0.0953
 9447TIP3   OH249831   5.016   4.364  16.133  0.0338  0.5131 -0.1042
 9447TIP3    H149832   5.017   4.281  16.181  0.4658 -0.5639 -1.8949
 9447TIP3    H249833   4.927   4.397  16.144 -0.0397 -0.0227  0.9266
 9448TIP3   OH249834   0.851   6.069   4.394 -0.1104  0.3236 -0.2246
 9448TIP3    H149835   0.757   6.058   4.381 -0.2169 -1.0402  1.4972
 9448TIP3    H249836   0.873   6.006   4.463  2.0317  0.7479 -0.4909
 9449TIP3   OH249837   3.499   1.740   1.325  0.1221  0.2216  0.2387
 9449TIP3    H149838   3.582   1.724   1.370 -1.3114 -0.7097  2.6016
 9449TIP3    H249839   3.478   1.657   1.283  0.7009  0.6621 -0.9656
 9450TIP3   OH249840   0.119   6.505  11.227 -1.0308  0.2431 -0.5009
 9450TIP3    H149841   0.033   6.498  11.186 -1.5759  0.3132  0.6170
 9450TIP3    H249842   0.117   6.440  11.298 -0.9978  1.8594  0.9962
 9451TIP3   OH249843   2.298   0.324  11.870 -0.3639 -0.6448  0.2401
 9451TIP3    H149844   2.309   0.261  11.941 -0.9003  0.0306  0.9174
 9451TIP3    H249845   2.223   0.290  11.820 -0.4694 -0.6974  0.4356
 9452TIP3   OH249846   2.827   1.859  14.479  0.2835 -0.2452 -0.2288
 9452TIP3    H149847   2.885   1.856  14.555  0.6501 -0.2936 -0.5071
 9452TIP3    H249848   2.877   1.908  14.413 -0.0750 -0.1068 -0.4025
 9453TIP3   OH249849   3.570   6.571  13.916 -0.2002 -0.6075 -0.0596
 9453TIP3    H149850   3.527   6.558  13.831  0.1084 -3.0342  0.1319
 9453TIP3    H249851   3.633   6.642  13.900 -0.6923 -0.5053 -1.6557
 9454TIP3   OH249852   1.675   3.787   5.279  0.0286 -0.4120  0.0926
 9454TIP3    H149853   1.683   3.803   5.185  0.4223  1.1822  0.3862
 9454TIP3    H249854   1.749   3.729   5.300 -0.5722 -1.4916 -0.7256
 9455TIP3   OH249855   3.241   0.398  12.510  0.0653 -0.6231 -0.8440
 9455TIP3    H149856   3.154   0.366  12.486  0.0509 -1.2909  0.0919
 9455TIP3    H249857   3.223   0.467  12.575  0.1466  0.6024 -2.0883
 9456TIP3   OH249858   1.739   4.197  16.348 -0.6072  0.6100 -0.4466
 9456TIP3    H149859   1.734   4.103  16.366  1.0071  0.4885 -0.5842
 9456TIP3    H249860   1.732   4.203  16.253 -2.0831  0.7422 -0.3448
 9457TIP3   OH249861   6.009   3.576   1.892 -0.5966 -0.7459  0.0706
 9457TIP3    H149862   6.008   3.609   1.982 -1.0984 -2.1966  0.6133
 9457TIP3    H249863   5.923   3.600   1.857 -0.2893  0.0821 -0.1225
 9458TIP3   OH249864   5.014   0.345   4.282  0.1766  0.2869 -0.0851
 9458TIP3    H149865   4.937   0.338   4.226 -0.2776 -0.5538  0.6178
 9458TIP3    H249866   5.078   0.285   4.244  0.3538  0.7070 -0.4557
 9459TIP3   OH249867   3.470   6.183  13.869  0.3804  0.4553 -0.1443
 9459TIP3    H149868   3.556   6.223  13.856  0.8574 -0.4237  0.2687
 9459TIP3    H249869   3.488   6.090  13.878 -0.3066  0.5488  2.7668
 9460TIP3   OH249870   0.118   3.473   1.762 -0.1454 -0.0590  0.4247
 9460TIP3    H149871   0.120   3.383   1.730 -2.8159  0.0629 -0.1435
 9460TIP3    H249872   0.184   3.518   1.709  1.3622 -1.6726  0.8505
 9461TIP3   OH249873   0.838   2.702  15.214  0.7029 -0.4902  0.1870
 9461TIP3    H149874   0.771   2.651  15.258 -0.3514  0.9082  0.2576
 9461TIP3    H249875   0.830   2.679  15.122 -0.9195  0.8018 -0.0116
 9462TIP3   OH249876   6.447   6.782   0.407 -0.4617  0.1835 -0.1152
 9462TIP3    H149877   6.388   6.845   0.365 -0.6349  0.4606  0.5532
 9462TIP3    H249878   6.501   6.749   0.335 -1.5312 -0.1891 -0.7600
 9463TIP3   OH249879   1.703   0.411   0.045 -1.1519  0.2006 -0.1089
 9463TIP3    H149880   1.608   0.407   0.033 -1.1164  0.4596 -0.5119
 9463TIP3    H249881   1.717   0.482   0.106 -1.1686  0.7369 -0.7198
 9464TIP3   OH249882   4.695   1.000  14.342 -0.0323  0.0130 -0.6429
 9464TIP3    H149883   4.599   1.003  14.344 -0.0699 -1.0640 -0.4681
 9464TIP3    H249884   4.719   1.040  14.258 -0.4336  4.0303  1.0280
 9465TIP3   OH249885   4.018   4.908   5.162  0.1216 -0.2433 -0.2195
 9465TIP3    H149886   4.071   4.948   5.231  0.6454 -2.7644  0.9226
 9465TIP3    H249887   4.081   4.883   5.095 -0.1282  0.3508 -0.6743
 9466TIP3   OH249888   0.265   6.056  12.816 -0.6890  0.0852 -0.7503
 9466TIP3    H149889   0.346   6.102  12.837 -0.6982  0.0968 -0.7412
 9466TIP3    H249890   0.199   6.096  12.873 -0.2129 -1.5708  1.0379
 9467TIP3   OH249891   6.417   3.683   5.864 -0.5801  0.4990  0.0123
 9467TIP3    H149892   6.506   3.716   5.853 -0.4800  0.3734  0.4386
 9467TIP3    H249893   6.395   3.702   5.955 -1.2251  1.0988 -0.2669
 9468TIP3   OH249894   3.660   2.501   3.864  0.1524 -0.4953 -0.0802
 9468TIP3    H149895   3.681   2.570   3.927  0.0104 -1.1484  0.6978
 9468TIP3    H249896   3.638   2.425   3.919  0.6880 -1.2652 -0.9255
 9469TIP3   OH249897   1.731   1.733  16.316  0.0840  0.8171  0.1517
 9469TIP3    H149898   1.651   1.762  16.359 -0.7130 -0.9986 -0.0680
 9469TIP3    H249899   1.793   1.720  16.387 -0.7315 -0.6279  0.6131
 9470TIP3   OH249900   3.399   4.299  13.859 -0.1118 -0.0104 -0.2973
 9470TIP3    H149901   3.346   4.308  13.939  0.5909 -1.3167  0.3325
 9470TIP3    H249902   3.359   4.361  13.797 -1.5489 -0.0031  0.5982
 9471TIP3   OH249903   3.770   6.626  12.300 -0.0206  0.1006  0.0570
 9471TIP3    H149904   3.822   6.547  12.313  2.0424  1.0925 -1.9246
 9471TIP3    H249905   3.711   6.604  12.227 -0.6843 -0.1813  0.6692
 9472TIP3   OH249906   0.925   0.639  13.708  0.1955  0.1355  0.0494
 9472TIP3    H149907   0.916   0.689  13.789 -3.3952 -1.6194  0.8402
 9472TIP3    H249908   0.981   0.566  13.731 -1.6823 -0.9492  1.3136
 9473TIP3   OH249909   5.424   4.384   0.660  0.0992  0.0787  0.0062
 9473TIP3    H149910   5.403   4.291   0.669  1.4086 -0.0602  1.9280
 9473TIP3    H249911   5.517   4.386   0.636  0.0388  0.9021 -0.2003
 9474TIP3   OH249912   4.269   5.735   3.176  0.1154 -0.6029  0.7323
 9474TIP3    H149913   4.360   5.762   3.190 -0.4494  1.1719  1.0030
 9474TIP3    H249914   4.246   5.687   3.256  0.6775 -0.7242  0.8248
 9475TIP3   OH249915   6.085   6.257  11.763 -0.9821  0.0165  0.0544
 9475TIP3    H149916   6.073   6.351  11.774  0.5928  0.3100 -0.5552
 9475TIP3    H249917   6.037   6.236  11.683 -0.0664  0.6016 -0.6623
 9476TIP3   OH249918   3.548   2.303  16.693  0.3979 -0.5817  0.1806
 9476TIP3    H149919   3.503   2.382  16.721  0.6490 -0.0862 -0.8159
 9476TIP3    H249920   3.583   2.323  16.606  0.4850 -1.7665 -0.0800
 9477TIP3   OH249921   1.558   2.108  13.490 -0.4930 -0.0368 -0.0243
 9477TIP3    H149922   1.569   2.169  13.563 -1.2180  1.1844 -0.9180
 9477TIP3    H249923   1.621   2.138  13.424 -0.0182 -0.9777 -0.0055
 9478TIP3   OH249924   2.145   0.737  13.720 -0.0932 -0.0032  0.1068
 9478TIP3    H149925   2.092   0.673  13.673  2.0468 -0.1402 -2.2815
 9478TIP3    H249926   2.175   0.797  13.652  2.8781 -0.0376  1.3068
 9479TIP3   OH249927   1.088   3.492  14.300 -0.0753 -0.3855 -1.1610
 9479TIP3    H149928   1.018   3.544  14.260  1.7486  2.9073 -0.3156
 9479TIP3    H249929   1.169   3.539  14.277  1.5500 -2.1169  0.7843
 9480TIP3   OH249930   3.631   1.049   6.966  0.7819  0.0551 -0.1057
 9480TIP3    H149931   3.716   1.053   6.922  0.5773  1.8800 -0.3854
 9480TIP3    H249932   3.604   0.957   6.958  2.4710 -0.4296 -0.4778
 9481TIP3   OH249933   2.644   4.122   3.859  0.5361 -0.0937  0.1379
 9481TIP3    H149934   2.739   4.115   3.852  0.4070  0.6678 -3.1249
 9481TIP3    H249935   2.610   4.053   3.801 -0.9096 -0.0691  0.9211
 9482TIP3   OH249936   3.083   6.052  16.322 -0.2168 -0.1210  0.0893
 9482TIP3    H149937   3.018   6.115  16.293  1.3412  2.1884  1.4650
 9482TIP3    H249938   3.100   5.997  16.245 -1.7315  1.0128 -1.0736
 9483TIP3   OH249939   2.264   4.199   5.067 -0.2525  0.1341 -0.2115
 9483TIP3    H149940   2.350   4.204   5.025 -0.0732  1.9771  0.3135
 9483TIP3    H249941   2.271   4.258   5.142 -1.4341 -1.0387  0.8431
 9484TIP3   OH249942   3.055   0.688   0.011 -0.2053  0.2770  0.0220
 9484TIP3    H149943   3.108   0.612  -0.012 -1.5011 -1.1778  1.7244
 9484TIP3    H249944   3.113   0.742   0.065  0.4511  0.1167 -0.5188
 9485TIP3   OH249945   3.781   5.721   0.983 -0.1110  0.6843 -0.8085
 9485TIP3    H149946   3.729   5.653   0.939 -0.8217  1.2501 -0.8435
 9485TIP3    H249947   3.869   5.711   0.946 -0.0050 -0.7650 -0.2000
 9486TIP3   OH249948   0.578   5.099  14.683 -0.0083  0.4989  0.0370
 9486TIP3    H149949   0.501   5.043  14.672  0.6477 -0.1019 -1.6500
 9486TIP3    H249950   0.550   5.185  14.650  0.8582 -0.4153 -3.2889
 9487TIP3   OH249951   6.803   6.699  14.414 -0.0475 -0.0614  0.0655
 9487TIP3    H149952   6.815   6.610  14.446 -0.3562 -0.2110 -0.2364
 9487TIP3    H249953   6.891   6.736  14.416 -0.1131  0.0641  1.4514
 9488TIP3   OH249954   3.606   1.726  12.468  0.1895  0.1532 -0.2931
 9488TIP3    H149955   3.527   1.780  12.465 -0.1037 -0.0606  2.2025
 9488TIP3    H249956   3.678   1.788  12.460 -0.1973  0.6845  0.2771
 9489TIP3   OH249957   1.150   1.015   0.189  0.0778  0.4551  0.0549
 9489TIP3    H149958   1.159   1.033   0.096 -0.3937  0.4735  0.0081
 9489TIP3    H249959   1.217   1.069   0.231  0.5941  0.0986 -0.3061
 9490TIP3   OH249960   2.326   6.265  14.550  0.2821  0.3628  0.6153
 9490TIP3    H149961   2.390   6.309  14.606 -0.1773 -1.1762  2.4161
 9490TIP3    H249962   2.375   6.240  14.472  1.4689  0.6584  1.2541
 9491TIP3   OH249963   6.764   3.442   0.128 -0.5146 -0.9569 -0.0312
 9491TIP3    H149964   6.718   3.524   0.113  1.1093 -0.3627 -2.0320
 9491TIP3    H249965   6.773   3.437   0.223 -1.5412  0.6623  0.1760
 9492TIP3   OH249966   6.696   5.607   2.885 -0.7379 -0.0472  0.7525
 9492TIP3    H149967   6.643   5.591   2.962 -0.6986 -0.9631  0.5897
 9492TIP3    H249968   6.642   5.577   2.812  0.6067 -2.4503  0.7040
 9493TIP3   OH249969   3.011   4.563  13.990 -0.4795 -0.0723 -0.8534
 9493TIP3    H149970   2.997   4.471  13.969  0.1630 -0.2202 -0.6596
 9493TIP3    H249971   2.971   4.611  13.918 -2.1101 -0.4615 -0.2229
 9494TIP3   OH249972   4.832   4.201  12.205 -0.3331 -0.2401 -0.0840
 9494TIP3    H149973   4.918   4.227  12.172 -0.1541  0.5173  0.9224
 9494TIP3    H249974   4.770   4.241  12.145 -0.0714  2.9446  1.6449
 9495TIP3   OH249975   2.733   6.464   4.423 -0.3849  0.1312  0.6894
 9495TIP3    H149976   2.672   6.523   4.379  0.2582  0.3762  0.1081
 9495TIP3    H249977   2.679   6.413   4.483 -1.3948 -0.7722 -0.9611
 9496TIP3   OH249978   6.104   2.383  11.510 -0.1734  0.4518 -0.7850
 9496TIP3    H149979   6.127   2.366  11.419 -0.1592 -0.9859 -0.5130
 9496TIP3    H249980   6.117   2.477  11.520  0.2198  0.5556 -2.1528
 9497TIP3   OH249981   3.633   3.749  15.420 -0.4440 -0.4159  0.0296
 9497TIP3    H149982   3.670   3.741  15.332  1.7983  4.8145  0.3456
 9497TIP3    H249983   3.701   3.715  15.478  0.1986  0.8696  0.0392
 9498TIP3   OH249984   2.581   2.083   2.243  0.2178  0.4059 -0.0825
 9498TIP3    H149985   2.626   2.003   2.269  1.7840  1.4715  0.5671
 9498TIP3    H249986   2.636   2.121   2.175 -0.5869  0.8676 -0.4929
 9499TIP3   OH249987   2.685   4.199   1.588 -0.1709  0.2729 -0.3992
 9499TIP3    H149988   2.738   4.120   1.577 -1.4233 -1.1966  3.2343
 9499TIP3    H249989   2.618   4.193   1.520 -0.7407 -2.2603  0.3362
 9500TIP3   OH249990   3.397   1.882  16.761 -0.3110 -0.2810 -0.0009
 9500TIP3    H149991   3.466   1.868  16.697  0.0402 -0.6117  0.4528
 9500TIP3    H249992   3.345   1.954  16.725 -0.2086 -0.5682 -0.7336
 9501TIP3   OH249993   1.828   1.573   0.125  0.2781  0.3004  0.1005
 9501TIP3    H149994   1.921   1.594   0.129  0.1532  0.7290  0.8257
 9501TIP3    H249995   1.816   1.505   0.191  0.4975 -1.4191 -1.5622
 9502TIP3   OH249996   4.639   1.903  13.841  0.0890  0.3673 -0.1522
 9502TIP3    H149997   4.682   1.954  13.910 -0.2778  1.1924 -0.5186
 9502TIP3    H249998   4.545   1.916  13.856  0.0084  1.6115 -1.5533
 9503TIP3   OH249999   0.926   4.229  14.480  0.2321  0.0755  0.5085
 9503TIP3    H150000   0.963   4.313  14.452  1.4425  0.3701  2.8861
 9503TIP3    H250001   0.947   4.170  14.408  1.9271  1.1562  0.0797
 9504TIP3   OH250002   4.518   3.925   5.263 -0.2618 -0.8876  0.1379
 9504TIP3    H150003   4.526   3.829   5.260  1.4604 -0.7380 -0.1501
 9504TIP3    H250004   4.597   3.955   5.307 -0.2383  0.4875 -0.8001
 9505TIP3   OH250005   5.099   2.139  12.644 -0.1898  0.6952 -0.3001
 9505TIP3    H150006   5.098   2.045  12.662 -1.8002  0.4231 -1.6345
 9505TIP3    H250007   5.171   2.173  12.696 -0.3508 -1.0944  1.1446
 9506TIP3   OH250008   6.441   2.015  15.296  0.2525 -0.1702 -0.4128
 9506TIP3    H150009   6.349   2.039  15.297  0.0470 -0.9553 -0.3047
 9506TIP3    H250010   6.461   1.993  15.387  0.5682  0.0647 -0.4222
 9507TIP3   OH250011   0.447   2.263   0.775 -0.0892 -0.0843  0.2836
 9507TIP3    H150012   0.529   2.246   0.823  0.0105 -1.3464 -0.2973
 9507TIP3    H250013   0.460   2.219   0.691 -1.7746 -1.1976  0.5815
 9508TIP3   OH250014   5.816   3.997  14.035 -0.3507 -0.0523 -0.8772
 9508TIP3    H150015   5.824   3.914  14.082 -1.0491  0.6883  0.5928
 9508TIP3    H250016   5.724   4.021  14.046  0.1531  1.5888 -0.0951
 9509TIP3   OH250017   6.717   4.581   3.457 -0.7697  0.3522 -0.2785
 9509TIP3    H150018   6.787   4.643   3.439  0.2530 -1.0073 -1.1628
 9509TIP3    H250019   6.740   4.504   3.405 -2.3199 -0.5412  0.3191
 9510TIP3   OH250020   1.590   0.711  15.875 -0.6464 -0.1153  0.5328
 9510TIP3    H150021   1.536   0.717  15.954 -0.0305  0.0285  0.9512
 9510TIP3    H250022   1.623   0.621  15.876 -1.2003 -0.3285  0.0582
 9511TIP3   OH250023   4.095   1.379   4.727 -0.5429 -0.0617  0.5413
 9511TIP3    H150024   4.018   1.324   4.715 -0.7710  0.1008  1.2625
 9511TIP3    H250025   4.127   1.395   4.638 -2.2654  1.1865  0.1246
 9512TIP3   OH250026   4.487   5.797   2.746 -0.0179  0.7881 -0.1813
 9512TIP3    H150027   4.409   5.769   2.698  0.1129 -0.5029  0.3147
 9512TIP3    H250028   4.459   5.871   2.799 -0.5917  1.1340 -0.9756
 9513TIP3   OH250029   3.475   0.865   4.201  0.0704  0.1038  0.6452
 9513TIP3    H150030   3.559   0.898   4.233  0.6240 -0.7146  0.0603
 9513TIP3    H250031   3.458   0.915   4.122  1.0053 -1.1180 -0.3515
 9514TIP3   OH250032   3.349   1.050  13.206 -0.0758 -0.0657  0.2422
 9514TIP3    H150033   3.284   1.118  13.188 -0.5592 -1.1721 -2.4288
 9514TIP3    H250034   3.367   1.011  13.121  0.9205 -2.6586  1.5871
 9515TIP3   OH250035   5.394   2.335  16.513  0.5736 -0.6326 -0.3474
 9515TIP3    H150036   5.360   2.267  16.455 -2.2073 -0.0317  0.5240
 9515TIP3    H250037   5.399   2.413  16.459 -3.1546  0.2258  0.4545
 9516TIP3   OH250038   0.565   4.112  10.929  0.2360  0.3115 -0.3550
 9516TIP3    H150039   0.504   4.185  10.943  0.1703  0.6753 -2.3625
 9516TIP3    H250040   0.535   4.071  10.848  1.2017 -0.9986 -0.0563
 9517TIP3   OH250041   1.846   2.130   6.483 -0.4073 -0.3326 -0.2870
 9517TIP3    H150042   1.926   2.138   6.534 -0.6430 -0.3167  0.0798
 9517TIP3    H250043   1.788   2.198   6.518 -0.7885 -0.7213 -0.1652
 9518TIP3   OH250044   1.208   3.492   1.532  0.1678 -0.3982 -0.1887
 9518TIP3    H150045   1.233   3.451   1.615 -1.7095  0.2957  0.7576
 9518TIP3    H250046   1.160   3.424   1.485 -0.1054 -0.3066 -0.0409
 9519TIP3   OH250047   3.586   0.782   6.929 -0.2996 -0.2221  0.3973
 9519TIP3    H150048   3.518   0.729   6.972 -1.5935  0.8117 -0.3228
 9519TIP3    H250049   3.544   0.812   6.848  0.8053  0.9759  0.2667
 9520TIP3   OH250050   3.017   1.089   1.330  0.5313  0.4032 -0.0434
 9520TIP3    H150051   2.976   1.172   1.306  0.7690  0.2513 -0.9764
 9520TIP3    H250052   3.082   1.073   1.262  0.8411 -0.2993  0.4030
 9521TIP3   OH250053   1.061   0.211  10.611 -0.3809  0.5446 -0.5027
 9521TIP3    H150054   1.095   0.276  10.673  0.5052  1.0161 -1.4596
 9521TIP3    H250055   1.081   0.126  10.651  0.8854  0.8369 -0.5176
 9522TIP3   OH250056   4.205   2.985   4.878  0.0428  0.0339  0.2005
 9522TIP3    H150057   4.224   3.078   4.890  0.1292 -0.2103  2.0060
 9522TIP3    H250058   4.269   2.940   4.933 -0.9797 -1.0461  0.5213
 9523TIP3   OH250059   0.406   5.719   5.201 -0.3089  0.6520 -0.1707
 9523TIP3    H150060   0.328   5.719   5.255 -1.4951  0.7885 -1.8331
 9523TIP3    H250061   0.442   5.631   5.209 -2.1014 -0.2214 -1.4166
 9524TIP3   OH250062   5.215   4.547   3.512 -0.0415  0.2045 -0.2757
 9524TIP3    H150063   5.123   4.547   3.482 -0.2962  0.0090  0.5016
 9524TIP3    H250064   5.263   4.586   3.440 -0.5138 -1.2466 -1.4142
 9525TIP3   OH250065   4.834   2.748  12.456  0.2795 -0.3089  0.4687
 9525TIP3    H150066   4.838   2.817  12.389 -0.1065  0.9650  1.7180
 9525TIP3    H250067   4.911   2.694  12.439  0.8531  0.7053 -0.2532
 9526TIP3   OH250068   3.021   1.266   2.018  0.1973 -0.2775 -0.5343
 9526TIP3    H150069   2.955   1.320   1.975  1.0059 -0.4871 -2.0799
 9526TIP3    H250070   2.974   1.186   2.043  0.1815 -1.1183 -3.0748
 9527TIP3   OH250071   6.106   2.697  12.905 -0.8073  0.1601  0.1880
 9527TIP3    H150072   6.064   2.694  12.991  0.8755  0.0177  1.0084
 9527TIP3    H250073   6.173   2.630  12.908  0.5946  1.4980 -0.5453
 9528TIP3   OH250074   6.404   5.483  13.436  1.6666 -0.4194  0.0275
 9528TIP3    H150075   6.402   5.422  13.363  0.7757  0.2709 -0.5369
 9528TIP3    H250076   6.493   5.517  13.436  1.7345 -0.5905 -0.5976
 9529TIP3   OH250077   6.201   0.837  12.545 -0.3890 -0.1717  0.3360
 9529TIP3    H150078   6.238   0.771  12.486 -2.2725 -0.4165 -0.6080
 9529TIP3    H250079   6.244   0.822  12.629  2.2345  0.0747 -0.9316
 9530TIP3   OH250080   6.180   1.013   4.438 -0.3831 -0.0561 -0.1927
 9530TIP3    H150081   6.160   1.106   4.453  0.4889  0.2522 -0.8532
 9530TIP3    H250082   6.100   0.967   4.462 -1.3765  1.0100 -1.4014
 9531TIP3   OH250083   3.437   3.584  14.146 -0.4468 -0.1344 -0.2167
 9531TIP3    H150084   3.487   3.603  14.226 -1.6141  0.2421  0.4354
 9531TIP3    H250085   3.371   3.520  14.174 -0.2054 -0.7859 -1.1180
 9532TIP3   OH250086   5.875   1.937   3.731 -0.1520 -0.3856 -0.1135
 9532TIP3    H150087   5.807   1.940   3.798  0.7855  1.2444  0.8263
 9532TIP3    H250088   5.957   1.928   3.781  0.4776 -0.2433 -1.0989
 9533TIP3   OH250089   4.922   2.726   2.945  0.1064 -0.6099  0.0902
 9533TIP3    H150090   4.911   2.747   2.853 -0.0417 -1.9480 -0.2123
 9533TIP3    H250091   5.016   2.709   2.955  0.0262 -1.1003  0.0368
 9534TIP3   OH250092   5.264   0.857   1.723 -0.3200 -0.1531  0.2440
 9534TIP3    H150093   5.239   0.947   1.706 -0.2316  0.0282  1.0267
 9534TIP3    H250094   5.195   0.824   1.781  1.5629  0.5718  3.0164
 9535TIP3   OH250095   6.249   5.394   4.064 -0.1430  0.0865  0.0038
 9535TIP3    H150096   6.248   5.376   3.970 -2.6505 -0.5985  0.1308
 9535TIP3    H250097   6.322   5.342   4.098 -0.2804 -0.9962 -1.3100
 9536TIP3   OH250098   5.393   5.718   3.786 -0.4359  0.0971 -0.6578
 9536TIP3    H150099   5.316   5.663   3.799  0.0770 -1.0429 -2.1584
 9536TIP3    H250100   5.443   5.672   3.718  1.2631  1.1245 -0.1273
 9537TIP3   OH250101   5.084   6.222   2.860  0.5766 -0.0879  0.0495
 9537TIP3    H150102   5.145   6.212   2.787 -0.1706 -0.5644 -0.5232
 9537TIP3    H250103   5.009   6.167   2.836  0.2998 -0.1905  1.1505
 9538TIP3   OH250104   2.055   0.477   2.779  0.4725  0.1529 -0.0952
 9538TIP3    H150105   2.002   0.416   2.728  1.1757  0.4141 -1.1797
 9538TIP3    H250106   2.133   0.427   2.803 -0.4064 -0.3418  1.8053
 9539TIP3   OH250107   0.825   4.657  15.922 -0.4268 -0.4776 -0.1887
 9539TIP3    H150108   0.873   4.578  15.897  1.5930  0.5144  0.4487
 9539TIP3    H250109   0.812   4.703  15.839  0.4968 -0.3367 -0.2625
 9540TIP3   OH250110   4.692   2.248   2.519 -0.8744 -0.1148 -1.0964
 9540TIP3    H150111   4.602   2.272   2.539 -1.4096 -0.6517 -2.8392
 9540TIP3    H250112   4.713   2.298   2.440  1.0454  1.5742  0.4241
 9541TIP3   OH250113   3.700   1.283   4.010  0.2249 -0.6938 -0.1808
 9541TIP3    H150114   3.740   1.284   4.096  2.2369 -0.2270 -1.1020
 9541TIP3    H250115   3.770   1.258   3.950 -1.2804 -1.6424 -1.6339
 9542TIP3   OH250116   1.139   2.090  16.512 -0.7592 -0.2625 -0.2414
 9542TIP3    H150117   1.173   2.001  16.523 -0.2453  0.0271  0.5839
 9542TIP3    H250118   1.087   2.105  16.591  2.8861  1.8370  1.8840
 9543TIP3   OH250119   5.411   0.905  14.112 -0.3300  0.1046 -0.0204
 9543TIP3    H150120   5.478   0.840  14.133  0.0004 -0.1795 -1.8399
 9543TIP3    H250121   5.419   0.971  14.181 -0.0071 -1.2908  1.2956
 9544TIP3   OH250122   1.896   5.504   3.928 -0.4966 -0.1890  0.2049
 9544TIP3    H150123   1.859   5.416   3.914 -0.1004 -0.1988 -0.8694
 9544TIP3    H250124   1.986   5.497   3.895  0.5772 -0.2437  3.0423
 9545TIP3   OH250125   3.003   3.403  15.589 -0.4319 -0.4355 -0.0222
 9545TIP3    H150126   2.941   3.406  15.662 -0.4921  0.0253 -0.0887
 9545TIP3    H250127   3.069   3.469  15.612 -0.7461  0.0978 -0.6494
 9546TIP3   OH250128   5.905   4.182  13.822  0.4957  0.0234 -0.5175
 9546TIP3    H150129   5.838   4.149  13.762  0.2526  0.6987 -0.6207
 9546TIP3    H250130   5.882   4.147  13.907 -1.0469  1.7366 -0.1942
 9547TIP3   OH250131   1.829   4.396   4.019  0.2619  0.2241 -0.6333
 9547TIP3    H150132   1.878   4.314   4.008  0.8840  0.7187 -1.6884
 9547TIP3    H250133   1.759   4.375   4.079  2.3028 -0.3008  1.6222
 9548TIP3   OH250134   6.290   6.486  14.659  0.4199  0.3636  0.0687
 9548TIP3    H150135   6.243   6.433  14.723  0.8757  0.7850  0.7600
 9548TIP3    H250136   6.335   6.552  14.711  1.3456  0.2895 -0.6273
 9549TIP3   OH250137   4.120   0.884  14.438 -0.7498 -0.0844 -0.0578
 9549TIP3    H150138   4.033   0.845  14.431 -0.3728 -1.0607  0.5670
 9549TIP3    H250139   4.161   0.868  14.353 -0.5498 -1.1791  0.2373
 9550TIP3   OH250140   2.717   1.540  12.859 -0.4049  0.0751  0.0337
 9550TIP3    H150141   2.644   1.538  12.796  0.4978  1.6192 -1.0926
 9550TIP3    H250142   2.710   1.626  12.900  1.5464  0.7622 -1.0172
 9551TIP3   OH250143   1.001   4.547  11.997 -0.4653 -0.7221 -0.0988
 9551TIP3    H150144   0.951   4.541  12.079 -1.2317 -2.2487 -0.6464
 9551TIP3    H250145   1.055   4.468  11.996 -2.2058 -1.9377 -2.1545
 9552TIP3   OH250146   2.123   4.561   3.492 -0.3050 -0.1003 -0.2571
 9552TIP3    H150147   2.031   4.536   3.503 -0.3974  0.1441 -0.4607
 9552TIP3    H250148   2.169   4.478   3.476 -0.2777 -0.3804  1.1848
 9553TIP3   OH250149   4.421   3.943  13.175  0.1134 -0.4032 -0.1178
 9553TIP3    H150150   4.365   3.989  13.112 -0.7897 -1.2020  0.0943
 9553TIP3    H250151   4.382   3.962  13.260  1.4831  0.8815  0.2336
 9554TIP3   OH250152   1.593   4.146  15.437 -0.4426  0.2454 -0.0442
 9554TIP3    H150153   1.647   4.077  15.400  0.9923  1.4309 -0.1932
 9554TIP3    H250154   1.514   4.101  15.468 -0.0771 -1.2618 -1.2694
 9555TIP3   OH250155   1.815   4.199  12.092  0.4442  0.4190 -0.7070
 9555TIP3    H150156   1.780   4.174  12.007 -1.1836 -0.2331  0.1349
 9555TIP3    H250157   1.809   4.120  12.145  3.7045  0.1205 -0.6404
 9556TIP3   OH250158   3.866   3.183   4.601  0.4411 -0.0964 -0.1774
 9556TIP3    H150159   3.873   3.169   4.696  0.0562 -0.2961 -0.1764
 9556TIP3    H250160   3.955   3.201   4.573  0.9205 -2.2876 -0.1432
 9557TIP3   OH250161   4.971   4.881   3.372 -0.4330  0.4796 -0.1132
 9557TIP3    H150162   4.923   4.953   3.412  0.8225  0.5897  1.2414
 9557TIP3    H250163   4.959   4.808   3.432 -1.3293 -0.3309 -1.2550
 9558TIP3   OH250164   3.840   6.278   5.085 -0.0102 -0.8018  0.3813
 9558TIP3    H150165   3.902   6.245   5.151  0.2858  0.3060  0.6721
 9558TIP3    H250166   3.889   6.274   5.003  0.6949  0.6509  0.7030
 9559TIP3   OH250167   5.872   1.044  13.249 -0.4830  0.1276 -0.4100
 9559TIP3    H150168   5.838   0.984  13.316 -0.0183 -0.3675 -0.6119
 9559TIP3    H250169   5.937   1.097  13.296  1.4039 -1.6416 -0.9112
 9560TIP3   OH250170   5.870   5.485  12.906 -0.1603  0.3967 -0.1533
 9560TIP3    H150171   5.870   5.566  12.957 -0.1671 -0.0366  0.5498
 9560TIP3    H250172   5.779   5.454  12.911  0.1176 -0.3340  0.7058
 9561TIP3   OH250173   1.505   1.756   2.991 -0.7681  0.4629 -0.1993
 9561TIP3    H150174   1.597   1.747   2.970 -0.6366  0.8977  0.1848
 9561TIP3    H250175   1.474   1.666   3.001 -0.5012  0.3043 -0.8063
 9562TIP3   OH250176   4.195   3.715  12.007 -0.1783  0.4585  0.0020
 9562TIP3    H150177   4.137   3.741  12.078 -3.1282 -1.9503 -1.4235
 9562TIP3    H250178   4.150   3.742  11.927  1.2210 -0.3742 -1.1039
 9563TIP3   OH250179   0.791   6.479   4.990  0.1549  0.0449  0.1081
 9563TIP3    H150180   0.841   6.425   4.930  2.4676  0.8934  1.2148
 9563TIP3    H250181   0.735   6.533   4.934  1.7768  0.3450 -1.2362
 9564TIP3   OH250182   5.889   6.667  16.556 -0.3392 -0.0343  0.3294
 9564TIP3    H150183   5.900   6.705  16.469 -0.3664  0.0948  0.3813
 9564TIP3    H250184   5.831   6.592  16.543  0.3335 -0.5155  0.1017
 9565TIP3   OH250185   4.517   4.500   6.553  0.1194  0.3879 -0.4667
 9565TIP3    H150186   4.566   4.472   6.630  1.1984  1.3615 -0.7820
 9565TIP3    H250187   4.583   4.506   6.483 -0.9662 -1.2722 -1.6919
 9566TIP3   OH250188   2.167   3.844   0.294 -0.2772  0.6028 -0.0832
 9566TIP3    H150189   2.219   3.915   0.257 -0.0307  1.3049  1.5869
 9566TIP3    H250190   2.223   3.767   0.289 -0.3982  0.5800 -1.5219
 9567TIP3   OH250191   0.369   5.777   4.851 -0.0178 -0.5394 -0.4328
 9567TIP3    H150192   0.354   5.728   4.932  0.1875  0.4022  0.1898
 9567TIP3    H250193   0.370   5.711   4.782  0.7960 -1.4661  0.4580
 9568TIP3   OH250194   1.452   2.629  11.667  0.3801 -0.2288 -0.0531
 9568TIP3    H150195   1.523   2.669  11.616 -0.2231 -0.3921 -1.0268
 9568TIP3    H250196   1.402   2.703  11.701 -1.0818 -0.1339 -2.3395
 9569TIP3   OH250197   3.639   2.378   5.963 -0.3232  0.1035 -0.1742
 9569TIP3    H150198   3.670   2.301   6.010 -1.3816 -0.8456 -1.0029
 9569TIP3    H250199   3.551   2.394   5.999 -0.0724  0.9999  0.0662
 9570TIP3   OH250200   3.957   6.115   5.253  0.0978 -0.2592 -0.5009
 9570TIP3    H150201   3.984   6.149   5.338 -2.2973  0.6155 -0.0307
 9570TIP3    H250202   3.900   6.041   5.274 -0.3267 -0.1797 -1.3270
 9571TIP3   OH250203   3.130   4.991   0.110 -0.4877  0.5358 -0.4522
 9571TIP3    H150204   3.073   4.925   0.071 -1.2234 -0.0147  1.4639
 9571TIP3    H250205   3.078   5.071   0.111 -0.2312  0.7158 -1.1751
 9572TIP3   OH250206   2.037   0.129   5.261 -0.5798  0.7739  0.0705
 9572TIP3    H150207   2.058   0.078   5.183 -1.9547 -1.1108  0.8974
 9572TIP3    H250208   2.074   0.079   5.334 -0.3203  1.9163  0.7435
 9573TIP3   OH250209   6.245   4.389   2.699 -0.1307  0.4757  0.5740
 9573TIP3    H150210   6.183   4.446   2.653 -0.6435  0.6933  1.5264
 9573TIP3    H250211   6.209   4.381   2.788  1.0670  0.3880  1.0551
 9574TIP3   OH250212   3.033   4.833   3.683 -0.1295  0.0099 -0.6322
 9574TIP3    H150213   3.002   4.753   3.641  1.9193 -1.0816 -0.1076
 9574TIP3    H250214   3.003   4.826   3.773 -0.5206  0.1593 -0.7484
 9575TIP3   OH250215   1.513   0.424   4.422 -0.0090 -0.3055 -0.2453
 9575TIP3    H150216   1.598   0.404   4.383  0.1047  0.5353 -0.4351
 9575TIP3    H250217   1.492   0.512   4.390 -0.8526 -0.4284 -0.0323
 9576TIP3   OH250218   6.433   6.592   3.889 -0.0361  0.0874  0.3174
 9576TIP3    H150219   6.421   6.566   3.798 -1.0840  2.5953 -0.2872
 9576TIP3    H250220   6.345   6.610   3.921  0.4233  0.2574  1.5141
 9577TIP3   OH250221   6.765   5.282  13.377 -0.0429  0.9423 -0.4840
 9577TIP3    H150222   6.781   5.375  13.363 -0.6257  1.2176  0.6307
 9577TIP3    H250223   6.679   5.266  13.338 -0.9489  1.3679  1.2648
 9578TIP3   OH250224   0.638   4.418   0.422  0.2958  0.0980  0.3442
 9578TIP3    H150225   0.661   4.395   0.332  2.4118 -1.5311  1.2545
 9578TIP3    H250226   0.545   4.440   0.418  0.8450  2.1331 -2.6139
 9579TIP3   OH250227   0.161   5.754   4.414 -0.3308  0.1369 -0.5945
 9579TIP3    H150228   0.236   5.777   4.359  0.9019  0.0535  1.0120
 9579TIP3    H250229   0.136   5.667   4.384 -2.1754  1.6334 -3.6608
 9580TIP3   OH250230   5.556   1.249  14.904 -0.3390 -0.6081  0.6718
 9580TIP3    H150231   5.603   1.303  14.968 -0.0030 -1.6307  1.2909
 9580TIP3    H250232   5.499   1.194  14.956 -1.5918 -0.0010 -0.0352
 9581TIP3   OH250233   6.255   4.109  10.959  0.4251  0.0195 -0.3669
 9581TIP3    H150234   6.328   4.119  10.898  0.0483  0.8889 -0.6921
 9581TIP3    H250235   6.206   4.033  10.926  1.6500 -1.0872  0.3472
 9582TIP3   OH250236   5.029   5.830   4.458 -0.4511  0.1525  0.2238
 9582TIP3    H150237   5.024   5.925   4.461 -0.3181  0.1376  0.9555
 9582TIP3    H250238   5.123   5.811   4.457 -0.4663 -0.0019  1.2348
 9583TIP3   OH250239   3.396   5.776   0.540 -0.1120  0.3896  0.1405
 9583TIP3    H150240   3.462   5.719   0.581 -1.1099 -0.9217 -0.0359
 9583TIP3    H250241   3.392   5.746   0.449 -0.7742  0.6341  0.0870
 9584TIP3   OH250242   2.624   1.993  13.677 -0.3803 -0.5022 -0.0455
 9584TIP3    H150243   2.545   2.030  13.717 -0.1808  0.3104 -0.4000
 9584TIP3    H250244   2.665   1.943  13.748 -0.5673  0.0842  0.4758
 9585TIP3   OH250245   0.021   5.897  15.986  0.2699  0.2423  0.4559
 9585TIP3    H150246  -0.035   5.886  16.062 -0.1575 -0.7056  0.0070
 9585TIP3    H250247   0.084   5.824  15.992  1.8345  1.6130  1.2733
 9586TIP3   OH250248   6.061   2.532   0.104  0.2584  0.2050 -1.0620
 9586TIP3    H150249   6.119   2.547   0.178 -0.5970 -0.0815 -0.3344
 9586TIP3    H250250   5.978   2.507   0.143 -0.4537  0.9270 -2.0961
 9587TIP3   OH250251   3.252   1.597   0.227  0.3279 -0.1406  0.0676
 9587TIP3    H150252   3.218   1.512   0.199  3.9583 -1.0898 -1.8058
 9587TIP3    H250253   3.336   1.577   0.268  0.6928  2.4387  0.6722
 9588TIP3   OH250254   5.058   1.094  14.305 -0.1825 -0.0452 -0.0178
 9588TIP3    H150255   5.029   1.034  14.374 -1.2174  0.7169  0.2297
 9588TIP3    H250256   5.005   1.072  14.229  0.8395 -0.7697 -0.5316
 9589TIP3   OH250257   2.012   3.648  12.159  0.8529  0.4749  0.6710
 9589TIP3    H150258   2.054   3.574  12.114 -1.7775 -0.1695 -0.8286
 9589TIP3    H250259   2.042   3.725  12.112 -1.8643 -0.1881 -2.3146
 9590TIP3   OH250260   5.066   4.710   0.172 -0.4552 -0.4661 -0.2452
 9590TIP3    H150261   5.066   4.801   0.143  0.3010 -0.1758  0.6565
 9590TIP3    H250262   5.143   4.702   0.228 -0.2686 -1.7716 -0.6565
 9591TIP3   OH250263   1.515   2.858  12.378  0.6951  0.5270 -0.1545
 9591TIP3    H150264   1.503   2.908  12.297 -0.1343  1.0818  0.3026
 9591TIP3    H250265   1.439   2.882  12.432  0.6133 -0.7679  0.3045
 9592TIP3   OH250266   4.434   6.582   6.094 -0.1669  0.4813 -0.1454
 9592TIP3    H150267   4.509   6.627   6.054 -1.5185  4.1565  1.2259
 9592TIP3    H250268   4.456   6.578   6.187  0.1458 -2.2805 -0.2987
 9593TIP3   OH250269   1.335   1.626   5.009 -0.6288 -0.0654 -0.7229
 9593TIP3    H150270   1.335   1.645   4.915 -2.1775  3.1349 -0.1160
 9593TIP3    H250271   1.245   1.600   5.028 -0.5593  0.2630  0.0593
 9594TIP3   OH250272   5.993   3.890   1.746  0.1689  0.4222  0.0912
 9594TIP3    H150273   5.987   3.848   1.660  0.6294  0.7121 -0.0829
 9594TIP3    H250274   6.085   3.882   1.771 -0.0452 -0.0249  0.7437
 9595TIP3   OH250275   0.413   3.711   5.002  0.3869 -0.7897  0.1369
 9595TIP3    H150276   0.396   3.672   4.916 -0.7863  0.0406 -0.0275
 9595TIP3    H250277   0.482   3.776   4.985 -0.2984 -0.1697 -0.3150
 9596TIP3   OH250278   4.995   2.750  11.478 -0.1409 -0.1229  0.3850
 9596TIP3    H150279   4.959   2.667  11.448 -0.0931 -0.0529  0.1359
 9596TIP3    H250280   5.075   2.726  11.525  0.5067 -0.1221 -0.7113
 9597TIP3   OH250281   5.268   4.335   3.246 -0.1489 -0.6149  0.2687
 9597TIP3    H150282   5.343   4.350   3.302  0.8649  0.5679 -1.3592
 9597TIP3    H250283   5.225   4.420   3.239  0.4781 -0.4372 -1.7678
 9598TIP3   OH250284   0.333   1.157   3.811 -0.2046 -0.5448 -0.6378
 9598TIP3    H150285   0.316   1.198   3.726 -0.3608 -1.1580 -0.8997
 9598TIP3    H250286   0.364   1.230   3.866 -3.9482  0.6909 -0.0398
 9599TIP3   OH250287   5.512   6.250   3.299 -0.0171 -0.1079  0.0371
 9599TIP3    H150288   5.456   6.328   3.298 -0.3517 -0.3215  0.9500
 9599TIP3    H250289   5.453   6.179   3.324  0.0919 -0.8273 -1.6717
 9600TIP3   OH250290   1.398   5.095   1.822  0.0233  0.0706  0.6215
 9600TIP3    H150291   1.443   5.173   1.853  0.5045  0.0715 -0.0674
 9600TIP3    H250292   1.307   5.107   1.851 -0.1512  1.4188 -0.4452
 9601TIP3   OH250293   1.561   1.575   4.146  0.4020 -0.1025 -0.3384
 9601TIP3    H150294   1.488   1.632   4.170  0.6377  0.2448 -0.4282
 9601TIP3    H250295   1.525   1.487   4.148  0.8859 -0.2634  3.1118
 9602TIP3   OH250296   6.537   3.576   3.010  0.0990  0.1366 -0.0471
 9602TIP3    H150297   6.505   3.496   2.967  0.5656 -0.9707  1.6209
 9602TIP3    H250298   6.496   3.575   3.096  0.8296  1.2300  0.3197
 9603TIP3   OH250299   3.896   3.680   2.535  0.6326 -0.2736 -0.2612
 9603TIP3    H150300   3.991   3.682   2.526  0.5852 -1.5815 -1.2574
 9603TIP3    H250301   3.880   3.626   2.612  0.7119  0.3730  0.2074
 9604TIP3   OH250302   4.002   3.873  13.878  0.3534 -0.0382 -0.1053
 9604TIP3    H150303   4.094   3.877  13.905  0.3793  0.6788 -0.3019
 9604TIP3    H250304   3.965   3.803  13.932  0.7048  0.5386  0.9019
 9605TIP3   OH250305   5.327   2.988   3.312  0.1814  0.2245  0.6441
 9605TIP3    H150306   5.311   3.048   3.239  2.1517 -1.4253 -1.2320
 9605TIP3    H250307   5.284   2.907   3.286 -1.9510  0.6086  2.8847
 9606TIP3   OH250308   4.764   2.993   2.388 -0.1563 -0.1225  0.4584
 9606TIP3    H150309   4.718   3.010   2.471  1.5030  0.6531  1.2363
 9606TIP3    H250310   4.833   2.931   2.411 -0.5994 -1.0567 -0.6527
 9607TIP3   OH250311   6.336   2.745  12.478  0.9887  0.5594  0.4941
 9607TIP3    H150312   6.270   2.775  12.542  1.7055 -0.4844  1.7553
 9607TIP3    H250313   6.403   2.812  12.480 -0.4607  2.1049 -1.4897
 9608TIP3   OH250314   1.459   2.193  14.313  0.3680  0.3820 -0.1902
 9608TIP3    H150315   1.511   2.212  14.236  0.1803  0.1448 -0.3755
 9608TIP3    H250316   1.517   2.214  14.387  0.4459  0.8847 -0.3928
 9609TIP3   OH250317   5.132   0.067   3.019 -0.2261 -0.3052  0.1351
 9609TIP3    H150318   5.202   0.131   3.007 -0.0018 -0.5778 -0.0301
 9609TIP3    H250319   5.171   0.000   3.076  0.2976 -1.4319 -1.5051
 9610TIP3   OH250320   4.873   5.483   5.671  0.3100 -0.2356  0.4090
 9610TIP3    H150321   4.939   5.550   5.656  1.1316 -1.0354  0.4282
 9610TIP3    H250322   4.844   5.457   5.584  1.9791 -1.8079  0.2984
 9611TIP3   OH250323   4.672   2.102  14.734 -0.2883 -0.1609  0.0818
 9611TIP3    H150324   4.660   2.093  14.828 -1.2471 -2.6649 -0.2544
 9611TIP3    H250325   4.716   2.187  14.724 -0.4332  0.2769  2.7347
 9612TIP3   OH250326   3.857   0.952   6.795 -0.1411 -0.5284 -0.1582
 9612TIP3    H150327   3.855   0.899   6.715  1.0173 -1.2023  0.2365
 9612TIP3    H250328   3.871   1.042   6.764  0.3156 -0.7866 -0.7244
 9613TIP3   OH250329   5.168   0.405  15.664  0.3193  0.3630 -0.1830
 9613TIP3    H150330   5.250   0.358  15.646  0.0833  0.2456 -0.9705
 9613TIP3    H250331   5.103   0.336  15.675  0.2962  0.4606  0.2909
 9614TIP3   OH250332   3.165   1.694   2.645  0.0602  0.1494  0.4405
 9614TIP3    H150333   3.196   1.621   2.592  1.0911  1.9654 -1.5312
 9614TIP3    H250334   3.077   1.713   2.611 -0.1411 -0.0448  0.8411
 9615TIP3   OH250335   0.779   3.239  12.592  0.5303  0.3335 -0.2778
 9615TIP3    H150336   0.824   3.286  12.521  1.5055  0.2461  0.2801
 9615TIP3    H250337   0.697   3.211  12.553  0.1673  2.0303 -0.7948
 9616TIP3   OH250338   1.438   1.105   4.988 -0.4200  0.0008  0.1431
 9616TIP3    H150339   1.427   1.040   4.918 -0.3086  0.0043  0.1230
 9616TIP3    H250340   1.373   1.172   4.969 -0.4593 -0.0495  0.1003
 9617TIP3   OH250341   2.994   4.869   4.450 -0.5997  0.1638  0.2161
 9617TIP3    H150342   2.931   4.877   4.522 -1.3424  2.6933 -0.6508
 9617TIP3    H250343   3.061   4.935   4.470  0.8373 -1.2665  0.1852
 9618TIP3   OH250344   2.732   0.227   0.218 -0.1445 -0.2542 -0.0125
 9618TIP3    H150345   2.808   0.284   0.201  0.1938 -1.2993 -2.0731
 9618TIP3    H250346   2.711   0.189   0.133 -1.6199 -1.6796  0.9750
 9619TIP3   OH250347   6.307   6.602   4.866  0.4296 -0.2672 -0.2231
 9619TIP3    H150348   6.395   6.576   4.892  0.1491 -1.3637 -0.3348
 9619TIP3    H250349   6.316   6.633   4.776  0.8937  0.7031  0.1541
 9620TIP3   OH250350   1.798   0.728   0.093 -1.1251 -0.1098  0.0637
 9620TIP3    H150351   1.818   0.769   0.009 -0.9018 -1.4467 -0.5532
 9620TIP3    H250352   1.873   0.672   0.111 -1.0279  0.4236  1.3188
 9621TIP3   OH250353   3.054   2.607  16.626 -0.0996 -0.7395  0.3534
 9621TIP3    H150354   3.002   2.554  16.687  0.2674 -0.7788  0.6340
 9621TIP3    H250355   3.102   2.543  16.574  0.9801 -0.6779  1.2490
 9622TIP3   OH250356   5.921   3.743   3.597  0.3332  0.2299 -0.3493
 9622TIP3    H150357   5.934   3.665   3.543  2.1561  0.3911 -0.1840
 9622TIP3    H250358   6.006   3.757   3.639  0.2134  2.6153 -0.8297
 9623TIP3   OH250359   4.833   6.545  14.552 -0.1498  0.7836 -0.0871
 9623TIP3    H150360   4.917   6.584  14.577 -0.4668  1.0438  0.5961
 9623TIP3    H250361   4.854   6.454  14.529  0.6194  1.3992 -1.8512
 9624TIP3   OH250362   0.324   5.183   1.110  0.4574 -0.3841 -0.5874
 9624TIP3    H150363   0.409   5.223   1.130 -0.2096  0.4660  0.6284
 9624TIP3    H250364   0.297   5.224   1.028  1.9508 -1.8446 -1.8376
 9625TIP3   OH250365   5.538   0.577   4.511 -0.6461  0.5706 -0.3437
 9625TIP3    H150366   5.626   0.589   4.477 -0.4668 -1.0686 -0.5184
 9625TIP3    H250367   5.538   0.623   4.595  1.0912 -1.3118  0.7356
 9626TIP3   OH250368   6.710   1.770  15.559  0.2019  0.3084 -0.3352
 9626TIP3    H150369   6.796   1.809  15.573  0.6771 -1.5351  2.2245
 9626TIP3    H250370   6.648   1.841  15.579  1.0585  1.3162 -1.1434
 9627TIP3   OH250371   5.346   3.627   4.344 -0.2115 -0.1115  0.2348
 9627TIP3    H150372   5.395   3.616   4.262 -1.8405 -0.5562 -0.7015
 9627TIP3    H250373   5.406   3.596   4.412  0.3075 -1.9754 -1.0218
 9628TIP3   OH250374   5.310   0.888   3.506  0.2004  0.1778 -0.2296
 9628TIP3    H150375   5.239   0.861   3.564 -0.3757 -1.7799 -1.7968
 9628TIP3    H250376   5.317   0.983   3.520 -0.8306 -0.0385  1.9910
 9629TIP3   OH250377   0.004   2.298  16.229  0.2118  0.0935  0.0462
 9629TIP3    H150378   0.099   2.309  16.229  0.0511  1.5912  0.4645
 9629TIP3    H250379  -0.011   2.219  16.282  1.1282  0.7897  1.3676
 9630TIP3   OH250380   3.172   4.495   1.230  0.0891  0.3727 -0.2633
 9630TIP3    H150381   3.192   4.468   1.140  0.3255 -0.0790 -0.0804
 9630TIP3    H250382   3.252   4.476   1.279 -0.0806  0.4995  0.0671
 9631TIP3   OH250383   3.184   4.746  12.495  0.1988 -0.0097 -0.2975
 9631TIP3    H150384   3.107   4.739  12.551  0.6113 -0.4540  0.2205
 9631TIP3    H250385   3.166   4.688  12.421 -0.5466  0.9278 -0.8664
 9632TIP3   OH250386   0.027   1.317  12.084  0.9319 -0.1831  0.1051
 9632TIP3    H150387  -0.022   1.299  12.164  0.6131 -1.5621 -0.3945
 9632TIP3    H250388  -0.010   1.257  12.019 -0.5970  2.6677 -1.7924
 9633TIP3   OH250389   6.786   3.934  17.046 -0.6595 -0.4086  0.7438
 9633TIP3    H150390   6.756   4.024  17.030  1.7329  0.5076  1.2727
 9633TIP3    H250391   6.775   3.922  17.140  2.0980  0.5376  1.2400
 9634TIP3   OH250392   4.645   3.117  11.544 -0.3861 -0.1207  0.3052
 9634TIP3    H150393   4.621   3.070  11.465 -0.4725  0.5552 -0.0747
 9634TIP3    H250394   4.712   3.062  11.586  0.0193 -0.2353 -0.4885
 9635TIP3   OH250395   0.060   6.003  12.039 -0.1189  0.2648  0.1213
 9635TIP3    H150396   0.022   5.935  12.095  0.0206  1.4523  1.6838
 9635TIP3    H250397  -0.011   6.025  11.979  0.7111 -3.2309 -2.3001
 9636TIP3   OH250398   6.210   3.359   2.272 -0.3027  1.2250 -0.0170
 9636TIP3    H150399   6.131   3.313   2.245 -1.0739  1.3519  1.9592
 9636TIP3    H250400   6.276   3.291   2.280 -1.2787  0.5264  2.2843
 9637TIP3   OH250401   2.183   2.283   5.354  0.0573 -0.5165 -0.0056
 9637TIP3    H150402   2.125   2.209   5.369 -0.3233 -0.0110  1.0754
 9637TIP3    H250403   2.124   2.355   5.329  0.1296  0.1740  1.7428
 9638TIP3   OH250404   4.801   6.777  11.874  0.0387  0.2496 -0.6576
 9638TIP3    H150405   4.812   6.862  11.831 -0.2068  0.0376 -1.1394
 9638TIP3    H250406   4.853   6.716  11.821  2.9706  0.6837  1.5662
 9639TIP3   OH250407   0.735   5.443   1.997 -0.5378 -0.1132 -0.1965
 9639TIP3    H150408   0.659   5.394   1.964 -0.3879 -0.6521  0.2466
 9639TIP3    H250409   0.721   5.448   2.092  0.4254 -1.0069  0.0007
 9640TIP3   OH250410   3.247   5.582  12.610 -0.2810 -0.4577 -0.3949
 9640TIP3    H150411   3.239   5.642  12.684  2.0795 -0.4239 -0.1130
 9640TIP3    H250412   3.187   5.616  12.545  0.6427  1.9623 -0.0492
 9641TIP3   OH250413   2.565   1.474   4.833  0.5721 -0.5314  0.2688
 9641TIP3    H150414   2.567   1.390   4.788  1.2384 -0.3803  0.0091
 9641TIP3    H250415   2.497   1.523   4.788  0.1399 -0.9551  0.4602
 9642TIP3   OH250416   0.042   4.484   5.732  0.3429 -0.0594 -0.0968
 9642TIP3    H150417   0.102   4.456   5.800 -0.5867 -1.6844  0.0938
 9642TIP3    H250418   0.035   4.579   5.742  1.0189 -0.1666  1.3909
 9643TIP3   OH250419   3.878   3.385   4.939 -0.0775 -0.3084  0.0798
 9643TIP3    H150420   3.897   3.291   4.932 -0.4900 -0.4143  0.3218
 9643TIP3    H250421   3.900   3.421   4.854 -0.6822 -0.7677 -0.2773
 9644TIP3   OH250422   3.855   0.038  16.282 -0.1220 -0.1510  0.1301
 9644TIP3    H150423   3.950   0.031  16.278 -0.0050  1.1650  0.4340
 9644TIP3    H250424   3.829   0.062  16.193 -0.0198  1.1377  0.4449
 9645TIP3   OH250425   4.456   0.580  15.067 -0.1239 -0.8690 -0.4499
 9645TIP3    H150426   4.442   0.499  15.019 -0.0713 -1.2458  0.1579
 9645TIP3    H250427   4.551   0.594  15.065 -0.1525 -0.7222 -0.7186
 9646TIP3   OH250428   1.686   5.831  14.291  0.6177 -0.0022 -0.3892
 9646TIP3    H150429   1.624   5.860  14.357  1.0714 -2.8446  1.3902
 9646TIP3    H250430   1.634   5.825  14.210 -0.0999  2.8104 -0.1640
 9647TIP3   OH250431   3.738   1.933   3.996 -0.3556  0.2247  0.4310
 9647TIP3    H150432   3.663   1.876   4.017  0.0338 -1.4323 -2.4291
 9647TIP3    H250433   3.702   2.000   3.938  0.1718  0.0326 -0.1166
 9648TIP3   OH250434   2.994   0.849   0.991  1.0146  0.3997  0.3947
 9648TIP3    H150435   3.049   0.807   0.926 -0.8283 -0.6177 -0.5608
 9648TIP3    H250436   2.948   0.777   1.035 -1.6001  1.3008 -0.7476
 9649TIP3   OH250437   5.679   6.002   1.573  0.2690 -0.5493  0.4857
 9649TIP3    H150438   5.600   6.051   1.593  0.8895  0.0115  1.6319
 9649TIP3    H250439   5.727   5.999   1.656  1.1361 -1.4391 -0.0400
 9650TIP3   OH250440   1.108   5.540   4.028 -0.4679 -0.1826  0.1016
 9650TIP3    H150441   1.037   5.600   4.003 -1.5161 -2.3903 -2.4245
 9650TIP3    H250442   1.182   5.598   4.044 -2.0334  1.9735 -0.1049
 9651TIP3   OH250443   4.529   3.729  16.835 -0.2860  0.1182  0.0355
 9651TIP3    H150444   4.582   3.786  16.891 -0.8815 -0.9848  1.7514
 9651TIP3    H250445   4.593   3.688  16.776  0.5195  0.3513  0.7242
 9652TIP3   OH250446   0.567   1.553  16.956  0.2078  0.2609 -0.0930
 9652TIP3    H150447   0.656   1.588  16.943  0.2600  0.3486  0.4958
 9652TIP3    H250448   0.547   1.572  17.047  0.2225 -1.2387  0.2331
 9653TIP3   OH250449   5.709   1.822   6.066 -0.3643  0.5001 -0.0979
 9653TIP3    H150450   5.745   1.733   6.076 -1.4006 -0.0213 -1.0040
 9653TIP3    H250451   5.782   1.873   6.029 -0.3123 -0.3924 -1.2633
 9654TIP3   OH250452   4.315   5.026  11.410  0.4283 -0.0720 -0.4205
 9654TIP3    H150453   4.399   5.071  11.418  0.8295 -0.6364 -1.3013
 9654TIP3    H250454   4.335   4.935  11.430 -0.4070  0.1450  1.5117
 9655TIP3   OH250455   3.445   2.502   5.572  0.5657 -0.0695  0.6339
 9655TIP3    H150456   3.516   2.484   5.633 -0.5716  0.1621  2.0554
 9655TIP3    H250457   3.423   2.594   5.587  0.2525 -0.0187 -0.1074
 9656TIP3   OH250458   1.824   0.981   0.474 -0.3230 -0.5913  0.2503
 9656TIP3    H150459   1.827   0.908   0.413 -1.5021 -0.4173 -0.0306
 9656TIP3    H250460   1.905   1.030   0.457 -1.6146  0.6331 -2.6594
 9657TIP3   OH250461   1.524   1.608   4.579 -0.5418  0.2458  0.4385
 9657TIP3    H150462   1.483   1.663   4.513 -0.7298 -1.9076 -1.3191
 9657TIP3    H250463   1.617   1.609   4.556 -0.9523 -2.7580 -1.6914
 9658TIP3   OH250464   2.878   4.183   6.174  0.0007 -0.0098 -0.4391
 9658TIP3    H150465   2.866   4.089   6.158  0.1795 -0.3230  1.1947
 9658TIP3    H250466   2.805   4.208   6.230  1.1348  0.3496  0.8936
 9659TIP3   OH250467   1.111   0.867   3.862 -0.4317  0.1572 -0.5402
 9659TIP3    H150468   1.067   0.935   3.813 -2.7157  0.0732  1.2939
 9659TIP3    H250469   1.044   0.799   3.874  1.3268 -1.7085 -0.9654
 9660TIP3   OH250470   2.144   3.338   1.008  0.0417 -0.2453 -0.2842
 9660TIP3    H150471   2.125   3.337   0.914 -0.8603  2.1720 -0.1669
 9660TIP3    H250472   2.213   3.404   1.017  0.4615 -0.8197  0.6859
 9661TIP3   OH250473   0.025   3.110   3.126  0.3560 -0.0220 -0.3433
 9661TIP3    H150474  -0.022   3.073   3.051  0.5871  1.8285 -1.4312
 9661TIP3    H250475  -0.043   3.121   3.192 -0.5134  1.3244 -1.4186
 9662TIP3   OH250476   5.707   6.511  11.546 -0.3800 -0.7517  0.5645
 9662TIP3    H150477   5.666   6.590  11.580  0.2369 -0.5308  0.7990
 9662TIP3    H250478   5.660   6.439  11.587  0.5388 -0.4862  2.1166
 9663TIP3   OH250479   6.097   4.560  13.020  0.1643 -0.1290 -0.0753
 9663TIP3    H150480   6.183   4.521  13.004 -0.7162 -2.5224  0.8109
 9663TIP3    H250481   6.038   4.485  13.027 -2.2806  1.5138 -2.2238
 9664TIP3   OH250482   0.406   2.974  11.563 -0.3105 -0.6284  0.6266
 9664TIP3    H150483   0.499   2.954  11.551  1.0563  3.4263  3.2698
 9664TIP3    H250484   0.383   3.030  11.489 -0.1003 -0.1086  0.9490
 9665TIP3   OH250485   6.796   1.846   4.604  0.1420 -0.0080  0.3777
 9665TIP3    H150486   6.857   1.856   4.531 -1.7811  3.0832 -0.9483
 9665TIP3    H250487   6.757   1.760   4.592  3.0124 -1.3354  0.3130
 9666TIP3   OH250488   3.080   2.773   4.399  0.3345  0.2449  0.2252
 9666TIP3    H150489   3.011   2.776   4.332  0.7215 -1.1809 -0.2608
 9666TIP3    H250490   3.139   2.703   4.369  1.7121  1.1062  0.9090
 9667TIP3   OH250491   5.800   0.632  16.824 -0.1209  0.0462  0.1993
 9667TIP3    H150492   5.868   0.597  16.767 -0.1402  0.8439 -0.3392
 9667TIP3    H250493   5.730   0.658  16.764 -0.4845  0.1353  0.6598
 9668TIP3   OH250494   4.634   0.773   0.082  0.3276 -0.2063  0.1543
 9668TIP3    H150495   4.685   0.851   0.104 -0.2772  0.0810  0.5514
 9668TIP3    H250496   4.555   0.779   0.136 -0.5206 -0.2228 -1.0600
 9669TIP3   OH250497   4.798   4.428   4.672 -0.5102  0.4666  0.1785
 9669TIP3    H150498   4.816   4.437   4.766 -0.8554  0.1944  0.2719
 9669TIP3    H250499   4.758   4.512   4.648  0.4982  0.9175  0.0556
 9670TIP3   OH250500   4.922   2.383   2.076  0.0831 -0.0156  0.5489
 9670TIP3    H150501   4.902   2.289   2.079  1.7978 -0.5000 -1.6012
 9670TIP3    H250502   5.014   2.389   2.101  0.3108  0.9628 -0.4738
 9671TIP3   OH250503   5.668   1.005   2.035  0.0088  0.4073  0.5945
 9671TIP3    H150504   5.710   1.081   2.076 -0.7255  0.4701  1.2382
 9671TIP3    H250505   5.735   0.937   2.036  0.2208  0.6245  1.2593
 9672TIP3   OH250506   0.754   1.576   2.405 -0.7489  0.0387 -0.6402
 9672TIP3    H150507   0.848   1.589   2.421 -0.9881 -1.0522  1.9449
 9672TIP3    H250508   0.738   1.486   2.433 -3.2796  1.4021  2.6410
 9673TIP3   OH250509   0.119   0.819   5.644  0.4524 -0.0880 -0.2542
 9673TIP3    H150510   0.040   0.831   5.592  0.1156 -0.2423  0.2194
 9673TIP3    H250511   0.088   0.786   5.728  0.8975  1.0686  0.3877
 9674TIP3   OH250512   0.973   4.484  13.492 -0.7137  0.3937  0.5454
 9674TIP3    H150513   0.992   4.578  13.484  0.0120  0.1356 -0.8888
 9674TIP3    H250514   1.012   4.460  13.577 -0.3089  1.2474  0.6159
 9675TIP3   OH250515   5.196   3.617  15.466 -0.1976 -0.3445 -0.0950
 9675TIP3    H150516   5.187   3.590  15.375 -1.2218  0.1192 -0.1295
 9675TIP3    H250517   5.168   3.708  15.467 -0.4174 -0.4165  0.7290
 9676TIP3   OH250518   2.790   4.062  13.778  0.2074 -0.5719  0.0101
 9676TIP3    H150519   2.731   3.994  13.745 -0.9435 -0.1864  1.2233
 9676TIP3    H250520   2.812   4.035  13.866  1.2768 -0.3343 -0.1746
 9677TIP3   OH250521   1.475   3.368   2.828  0.1284  0.2748  0.2103
 9677TIP3    H150522   1.435   3.454   2.844  0.4751  0.2078  1.4976
 9677TIP3    H250523   1.420   3.307   2.878 -1.7323 -0.6499 -2.8271
 9678TIP3   OH250524   5.597   0.917  12.951  0.2069 -0.1700 -0.4076
 9678TIP3    H150525   5.556   0.868  13.022  1.2469  0.1540  0.4323
 9678TIP3    H250526   5.524   0.948  12.898 -0.8582  2.9468  2.7086
 9679TIP3   OH250527   3.141   1.175   2.419 -0.2599 -0.2675  0.3228
 9679TIP3    H150528   3.067   1.159   2.478  0.0983  0.2597  0.9180
 9679TIP3    H250529   3.156   1.090   2.376 -1.1622 -0.3932  0.2474
 9680TIP3   OH250530   1.322   0.904  11.560 -0.0599  0.3646 -0.1842
 9680TIP3    H150531   1.413   0.894  11.532  0.0852 -0.0992  0.4388
 9680TIP3    H250532   1.288   0.814  11.562 -0.1545  0.4131  0.8132
 9681TIP3   OH250533   6.615   6.263   3.242 -0.1682 -0.5165  0.2269
 9681TIP3    H150534   6.674   6.333   3.214  0.0853 -1.3103 -1.3271
 9681TIP3    H250535   6.642   6.243   3.331 -0.9318  2.0543  1.0484
 9682TIP3   OH250536   5.060   0.842   3.673 -0.1995  0.1169 -0.1161
 9682TIP3    H150537   5.092   0.864   3.761 -0.8425 -1.7951  0.6213
 9682TIP3    H250538   4.964   0.844   3.682 -0.2666 -2.3496 -0.1715
 9683TIP3   OH250539   3.692   3.452   5.747  0.5596  0.3915  0.1604
 9683TIP3    H150540   3.776   3.429   5.786 -0.4407 -2.0969  0.9391
 9683TIP3    H250541   3.668   3.535   5.790  1.8653  0.3010  1.0920
 9684TIP3   OH250542   4.252   3.393   1.835 -0.1796 -0.6940 -0.6316
 9684TIP3    H150543   4.277   3.480   1.801 -1.8527  0.1513  0.2592
 9684TIP3    H250544   4.176   3.368   1.782  0.0450 -1.4354 -0.6022
 9685TIP3   OH250545   2.971   6.541   6.119 -0.4756  0.2833 -0.1247
 9685TIP3    H150546   2.970   6.546   6.215 -0.2423 -0.3461 -0.0878
 9685TIP3    H250547   3.048   6.489   6.098 -0.9851 -0.2900 -0.6181
 9686TIP3   OH250548   0.143   6.114  11.552  0.0016 -0.1924 -0.2828
 9686TIP3    H150549   0.079   6.164  11.603  0.9325  1.2757 -0.5179
 9686TIP3    H250550   0.109   6.115  11.463 -0.5904 -0.9982 -0.0628
 9687TIP3   OH250551   5.957   6.623  11.450  0.2761 -0.0509 -0.3865
 9687TIP3    H150552   5.936   6.676  11.373 -0.6735 -0.4990 -0.4458
 9687TIP3    H250553   5.876   6.622  11.501  1.1386  0.9301  1.0463
 9688TIP3   OH250554   6.108   5.638  15.379 -0.3935 -0.3650 -0.6980
 9688TIP3    H150555   6.107   5.677  15.291 -1.9847 -1.1005 -1.0221
 9688TIP3    H250556   6.185   5.581  15.379  0.6812  1.0694 -0.9704
 9689TIP3   OH250557   1.768   0.858  15.729  0.2049 -0.6229  0.8349
 9689TIP3    H150558   1.732   0.936  15.686 -0.1668 -0.9008  0.6468
 9689TIP3    H250559   1.694   0.822  15.778  0.8122  0.1455  2.3630
 9690TIP3   OH250560   0.524   5.372  15.878  0.1015 -0.3849  0.2945
 9690TIP3    H150561   0.579   5.383  15.955 -1.0609  0.1807  1.0738
 9690TIP3    H250562   0.519   5.278  15.864 -0.9361 -0.5808  1.8586
 9691TIP3   OH250563   0.479   4.768   1.924  0.3155 -0.3817 -0.3289
 9691TIP3    H150564   0.506   4.683   1.888 -1.8714 -1.9786  1.6622
 9691TIP3    H250565   0.391   4.752   1.958 -0.9380  3.2177 -1.6872
 9692TIP3   OH250566   0.838   2.483  12.350 -0.2793 -0.9138 -0.9015
 9692TIP3    H150567   0.922   2.523  12.326  0.1636 -0.9112  0.6185
 9692TIP3    H250568   0.829   2.408  12.290  0.1499 -0.1183 -1.9749
 9693TIP3   OH250569   1.828   3.364  15.599  0.6084  0.4163  0.8521
 9693TIP3    H150570   1.769   3.429  15.560 -1.8575 -1.0017  2.0854
 9693TIP3    H250571   1.821   3.379  15.693  0.8511 -0.9004  1.0876
 9694TIP3   OH250572   6.106   5.841  12.884 -0.2674  0.2811 -0.5992
 9694TIP3    H150573   6.116   5.805  12.972  0.2574 -0.0905 -0.8038
 9694TIP3    H250574   6.184   5.811  12.837 -0.6590  0.2731 -1.2580
 9695TIP3   OH250575   4.938   0.981   1.872 -0.0077  0.2448  0.2916
 9695TIP3    H150576   4.877   1.038   1.918  0.6977  0.0723  1.4566
 9695TIP3    H250577   4.934   0.898   1.919 -1.2375 -0.7937 -1.5595
 9696TIP3   OH250578   2.211   1.245  17.064 -0.1882 -0.7992 -0.8959
 9696TIP3    H150579   2.233   1.325  17.112 -0.9462 -0.6481 -0.7957
 9696TIP3    H250580   2.290   1.191  17.069  0.1568 -0.2602 -0.5435
 9697TIP3   OH250581   6.227   2.943   4.053 -0.5439  0.0827 -0.2834
 9697TIP3    H150582   6.252   2.858   4.088 -1.0848 -0.4682 -1.1993
 9697TIP3    H250583   6.195   2.992   4.128  0.1158 -0.3881  0.3150
 9698TIP3   OH250584   5.272   2.905  16.719 -0.6392 -0.2216  0.2377
 9698TIP3    H150585   5.191   2.887  16.767 -1.5347 -0.1750 -1.2086
 9698TIP3    H250586   5.314   2.975  16.768 -0.8069 -1.1609  1.7593
 9699TIP3   OH250587   3.483   4.448  15.657 -0.4403  0.1325  0.4121
 9699TIP3    H150588   3.540   4.386  15.613 -0.7108  0.5444 -0.5507
 9699TIP3    H250589   3.459   4.511  15.588 -2.4274 -0.3116  0.6661
 9700TIP3   OH250590   1.974   0.393  16.568 -0.0026 -0.1028 -0.3410
 9700TIP3    H150591   1.889   0.434  16.583 -0.8532 -1.7466 -0.4769
 9700TIP3    H250592   1.962   0.341  16.488  1.1483 -0.2854 -0.4112
 9701TIP3   OH250593   4.249   4.214   3.107  0.1485  0.7815 -0.4311
 9701TIP3    H150594   4.294   4.137   3.142 -0.1490  1.5780  1.7803
 9701TIP3    H250595   4.169   4.179   3.067  0.6095 -0.1807 -0.5312
 9702TIP3   OH250596   0.228   2.442  16.061 -0.0376  0.2892 -0.1170
 9702TIP3    H150597   0.311   2.477  16.029 -1.0100  1.4906 -1.4057
 9702TIP3    H250598   0.185   2.407  15.983 -1.1464  0.5633  0.3616
 9703TIP3   OH250599   4.010   6.380  15.101 -0.3866 -0.9990 -0.2030
 9703TIP3    H150600   4.066   6.432  15.043 -1.8236  0.7583 -0.0686
 9703TIP3    H250601   3.958   6.325  15.042 -1.8546  0.7898 -0.6547
 9704TIP3   OH250602   5.565   1.199  14.223  0.3474 -0.2472 -0.0418
 9704TIP3    H150603   5.615   1.179  14.302  0.2527 -1.0406 -0.1786
 9704TIP3    H250604   5.477   1.163  14.241  0.2184 -0.0845 -0.3482
 9705TIP3   OH250605   2.241   6.770   2.724 -0.1185 -0.3496  0.6353
 9705TIP3    H150606   2.262   6.756   2.632  0.9432  1.4234  0.5848
 9705TIP3    H250607   2.323   6.751   2.770  0.1761  1.5600  0.9282
 9706TIP3   OH250608   6.567   2.973  12.115 -0.2511  0.3349 -0.5895
 9706TIP3    H150609   6.623   2.919  12.059 -0.5041 -0.1913 -0.3351
 9706TIP3    H250610   6.572   3.061  12.076  0.3884  0.1930 -0.8309
 9707TIP3   OH250611   5.071   6.782  16.990 -0.7021  0.6677 -0.4512
 9707TIP3    H150612   5.088   6.806  16.899  0.6085  2.6626  0.2818
 9707TIP3    H250613   5.157   6.774  17.029 -1.2298 -1.2757  0.3824
 9708TIP3   OH250614   6.524   4.299   1.929  0.5000  0.4999  0.5563
 9708TIP3    H150615   6.567   4.213   1.933  0.1048  0.3525  1.5919
 9708TIP3    H250616   6.589   4.360   1.964  0.2323  0.4158  1.2011
 9709TIP3   OH250617   4.225   3.872  11.111 -0.1017 -0.3421 -0.6862
 9709TIP3    H150618   4.143   3.834  11.080 -0.6109 -0.4280  0.7401
 9709TIP3    H250619   4.220   3.865  11.206  1.1055  0.6001 -0.5474
 9710TIP3   OH250620   2.267   1.319  12.443 -0.0621 -0.3300 -0.0827
 9710TIP3    H150621   2.202   1.296  12.377 -0.0168  0.6720 -0.4737
 9710TIP3    H250622   2.352   1.305  12.400 -0.0168 -0.6984  0.1162
 9711TIP3   OH250623   0.241   2.807   2.369 -1.1055  0.1472 -0.3171
 9711TIP3    H150624   0.235   2.757   2.450  1.7822 -1.5266 -1.0502
 9711TIP3    H250625   0.293   2.884   2.392 -0.0086 -0.4912 -0.6294
 9712TIP3   OH250626   2.528   2.029   3.187  0.3663  0.2842  0.2851
 9712TIP3    H150627   2.617   2.062   3.200  0.2373  0.3744  0.9704
 9712TIP3    H250628   2.472   2.093   3.231  0.0109 -0.1260  0.4331
 9713TIP3   OH250629   5.082   2.502  14.733  0.1782 -0.1897  0.1518
 9713TIP3    H150630   5.146   2.436  14.759 -0.7603 -1.2680 -0.2218
 9713TIP3    H250631   5.050   2.472  14.648 -0.6572  0.4501  0.2313
 9714TIP3   OH250632   5.879   2.559   3.288  0.2907  0.2297  0.5442
 9714TIP3    H150633   5.791   2.591   3.304  0.4497  1.7597 -1.5739
 9714TIP3    H250634   5.912   2.535   3.376 -1.2020  2.2401  1.6803
 9715TIP3   OH250635   4.079   4.677  15.746  0.2780  0.0185  0.6371
 9715TIP3    H150636   4.072   4.763  15.788  1.4281  0.0514  0.7677
 9715TIP3    H250637   4.154   4.636  15.788  0.9692 -0.2668 -0.8524
 9716TIP3   OH250638   5.228   4.831  16.651  0.0387 -0.1705 -0.5315
 9716TIP3    H150639   5.253   4.921  16.673 -2.1884  0.7922 -1.7694
 9716TIP3    H250640   5.310   4.789  16.623  1.1564  1.3680  0.3642
 9717TIP3   OH250641   4.247   3.333  13.438  0.0094  0.2428  0.2992
 9717TIP3    H150642   4.320   3.271  13.437 -0.1552  0.0693 -1.4825
 9717TIP3    H250643   4.182   3.292  13.496  0.0518 -1.0786 -0.5701
 9718TIP3   OH250644   1.638   3.975  17.279 -0.1603  0.2078  0.4167
 9718TIP3    H150645   1.612   3.990  17.369  2.2257  0.1950  1.1615
 9718TIP3    H250646   1.591   4.040  17.228 -2.2316 -0.3763  1.5391
 9719TIP3   OH250647   1.768   1.476  12.113 -0.2264 -0.0334  0.6695
 9719TIP3    H150648   1.813   1.419  12.050 -3.0797 -0.9372 -0.6729
 9719TIP3    H250649   1.720   1.538  12.058 -0.6618  0.8475  2.0318
 9720TIP3   OH250650   0.547   3.148  12.919 -0.0755 -0.3525 -0.3192
 9720TIP3    H150651   0.563   3.160  12.826  1.0635  1.1741  0.0393
 9720TIP3    H250652   0.601   3.215  12.961 -0.7881 -0.8342  1.4209
 9721TIP3   OH250653   6.734   2.628  16.583  0.2325 -0.8520 -0.0630
 9721TIP3    H150654   6.767   2.716  16.562  0.9022 -1.0724  0.0337
 9721TIP3    H250655   6.703   2.594  16.499 -0.6603 -0.2704  0.0198
 9722TIP3   OH250656   3.571   0.023   2.559  0.2545  0.8052 -0.2394
 9722TIP3    H150657   3.645  -0.035   2.543  0.3565  0.3701  1.6212
 9722TIP3    H250658   3.507  -0.001   2.492  0.4737 -1.1908  0.2050
 9723TIP3   OH250659   2.283   3.389  14.624  0.1565  0.6366  0.0783
 9723TIP3    H150660   2.286   3.304  14.669  0.3120  0.1026 -0.9215
 9723TIP3    H250661   2.238   3.447  14.685 -1.6399 -0.6521  0.0091
 9724TIP3   OH250662   3.398   1.238   1.064 -0.7139  0.1948  0.0741
 9724TIP3    H150663   3.308   1.271   1.059 -0.8124 -0.1402 -0.3646
 9724TIP3    H250664   3.439   1.291   1.134 -0.6761  1.7001 -1.0595
 9725TIP3   OH250665   4.779   1.181   1.986 -0.5508 -0.0099 -0.2756
 9725TIP3    H150666   4.867   1.215   1.969 -0.4354  0.5210  1.2878
 9725TIP3    H250667   4.731   1.256   2.022 -1.4560 -0.4609 -0.5324
 9726TIP3   OH250668   2.796   1.674  16.783  0.1850 -0.3011 -0.1063
 9726TIP3    H150669   2.827   1.600  16.837  0.1533  0.2864  0.7274
 9726TIP3    H250670   2.774   1.742  16.847  0.0895  0.3842 -0.8667
 9727TIP3   OH250671   3.960   5.964   4.138 -0.7057  0.4402 -0.8458
 9727TIP3    H150672   3.930   5.982   4.049  0.7965  0.7431 -1.3042
 9727TIP3    H250673   4.048   6.001   4.142 -0.7294  0.3707  0.7498
 9728TIP3   OH250674   6.781   0.731  13.131 -0.4654  0.0770 -0.1160
 9728TIP3    H150675   6.760   0.664  13.196  1.1942 -0.3606 -0.0252
 9728TIP3    H250676   6.799   0.682  13.051 -1.3000  0.5474 -0.5997
 9729TIP3   OH250677   3.356   2.696   2.369  0.0783 -0.0039 -0.0086
 9729TIP3    H150678   3.417   2.770   2.365 -1.8374  1.5935 -0.3007
 9729TIP3    H250679   3.380   2.642   2.293  1.9204 -0.0573  0.5866
 9730TIP3   OH250680   2.697   2.200  11.203 -0.1758  0.0090  0.2918
 9730TIP3    H150681   2.651   2.117  11.195 -0.4933  0.3048 -1.1158
 9730TIP3    H250682   2.786   2.176  11.228 -0.7583 -0.6368  1.8035
 9731TIP3   OH250683   4.085   2.810   5.678  0.1483  0.1085  0.1553
 9731TIP3    H150684   4.158   2.871   5.682  0.5075 -0.3712  1.0608
 9731TIP3    H250685   4.012   2.861   5.643  0.7652  0.7321 -0.2319
 9732TIP3   OH250686   6.765   2.103   0.177 -0.0063  0.5217  0.7560
 9732TIP3    H150687   6.694   2.055   0.219  0.4944 -0.9573 -0.0592
 9732TIP3    H250688   6.721   2.176   0.133 -1.1841 -1.0560 -0.7330
 9733TIP3   OH250689   1.997   1.904   1.635  0.0310  0.5026 -0.0277
 9733TIP3    H150690   2.009   1.817   1.597  2.7464  1.0198 -0.5024
 9733TIP3    H250691   1.986   1.889   1.729  1.1224 -0.3264 -0.0246
 9734TIP3   OH250692   6.007   6.751  11.992 -0.5659 -0.1102 -0.1085
 9734TIP3    H150693   6.032   6.663  12.020 -0.1056 -0.0855 -0.4524
 9734TIP3    H250694   5.957   6.786  12.065  2.6158  0.8546  1.6823
 9735TIP3   OH250695   4.810   1.289  14.206  0.0757  0.5796  0.5169
 9735TIP3    H150696   4.788   1.203  14.170 -0.3432 -0.0373  2.2009
 9735TIP3    H250697   4.843   1.339  14.131 -0.6168 -0.7202 -0.6714
 9736TIP3   OH250698   5.674   4.040  13.679  0.0610 -0.3518  0.1772
 9736TIP3    H150699   5.646   4.002  13.762 -2.6025 -0.4493 -0.7249
 9736TIP3    H250700   5.600   4.027  13.620  1.8519 -0.1346 -2.1851
 9737TIP3   OH250701   5.770   6.639   0.499  0.0850 -0.3059 -0.3187
 9737TIP3    H150702   5.709   6.707   0.469  0.1194 -0.5224 -0.8780
 9737TIP3    H250703   5.747   6.626   0.591 -0.0049  0.3772 -0.2400
 9738TIP3   OH250704   1.666   2.991   3.782  0.4875  0.5260 -0.3511
 9738TIP3    H150705   1.760   3.001   3.764  0.5239  0.3497 -0.2618
 9738TIP3    H250706   1.623   3.014   3.699  0.5227  2.1358  0.0601
 9739TIP3   OH250707   3.403   5.864   4.499  0.0079  0.0695 -0.0513
 9739TIP3    H150708   3.419   5.803   4.572 -0.3248  0.3843  0.2897
 9739TIP3    H250709   3.429   5.949   4.533  2.8409 -0.2130 -1.3623
 9740TIP3   OH250710   5.865   5.001  14.217 -0.0120 -1.0564  0.1428
 9740TIP3    H150711   5.897   5.041  14.136  1.3225 -2.4124 -0.0194
 9740TIP3    H250712   5.933   5.021  14.282 -0.7354 -0.5800  0.7535
 9741TIP3   OH250713   6.547   5.106  14.065  0.4539  0.8255  0.1074
 9741TIP3    H150714   6.505   5.157  13.997  1.9330  0.5128 -1.0675
 9741TIP3    H250715   6.584   5.171  14.125 -0.5055  1.1011  0.3959
 9742TIP3   OH250716   2.711   2.951   2.905  0.3955  0.2619  0.4523
 9742TIP3    H150717   2.657   2.906   2.970 -0.9869  2.0311  0.5524
 9742TIP3    H250718   2.789   2.897   2.898 -0.3920 -1.1240  1.9823
 9743TIP3   OH250719   2.479   5.792  11.970 -0.0915 -0.4498 -0.2887
 9743TIP3    H150720   2.460   5.823  11.881 -0.3848 -0.9918 -0.4158
 9743TIP3    H250721   2.507   5.871  12.017 -1.1212  0.0751 -0.5352
 9744TIP3   OH250722   0.837   1.194   5.139  0.0969  0.0950 -0.2607
 9744TIP3    H150723   0.746   1.194   5.169  0.1467  0.0861 -0.1116
 9744TIP3    H250724   0.830   1.188   5.044 -0.0940  1.7125 -0.3637
 9745TIP3   OH250725   3.421   6.205   3.412 -0.0315 -0.1202 -0.2445
 9745TIP3    H150726   3.413   6.175   3.503  1.2082  1.4793  0.4205
 9745TIP3    H250727   3.332   6.226   3.386 -0.4670 -1.0843  0.4230
 9746TIP3   OH250728   3.424   4.576  12.093  0.3899 -0.6116  0.1695
 9746TIP3    H150729   3.333   4.561  12.068  0.7462 -0.9017 -0.9845
 9746TIP3    H250730   3.427   4.669  12.118 -0.3870 -0.8003  0.9742
 9747TIP3   OH250731   3.130   3.204   4.750 -0.3066 -0.4010 -0.2288
 9747TIP3    H150732   3.186   3.149   4.695 -0.5878 -0.6890 -0.2256
 9747TIP3    H250733   3.191   3.242   4.814  0.0341  0.0011 -0.7822
 9748TIP3   OH250734   2.343   0.026  12.853 -0.4633 -0.1562  0.1315
 9748TIP3    H150735   2.281  -0.042  12.824 -0.0958  0.2410 -1.6403
 9748TIP3    H250736   2.363   0.002  12.943 -1.2213 -1.7596 -0.0934
 9749TIP3   OH250737   3.279   4.824  14.755  0.0299 -0.0602  0.2812
 9749TIP3    H150738   3.326   4.873  14.823  0.2505 -0.0090  0.0883
 9749TIP3    H250739   3.244   4.748  14.802 -0.0364  0.1090  0.5093
 9750TIP3   OH250740   4.341   4.831  12.880  0.4876 -0.3241 -0.0946
 9750TIP3    H150741   4.372   4.774  12.951  0.0119  0.8197  1.0596
 9750TIP3    H250742   4.250   4.848  12.902  0.8765  1.5950  0.0614
 9751TIP3   OH250743   5.761   5.149   4.243  0.0893  0.2281  0.7861
 9751TIP3    H150744   5.829   5.195   4.193 -1.5212 -0.2058 -1.9186
 9751TIP3    H250745   5.698   5.217   4.264 -0.8217 -0.1533 -0.6285
 9752TIP3   OH250746   2.879   4.308  13.657  0.0710 -0.0561 -0.4141
 9752TIP3    H150747   2.971   4.287  13.670 -0.1317 -1.1490 -0.6938
 9752TIP3    H250748   2.832   4.228  13.680 -0.7428  0.1794 -1.2035
 9753TIP3   OH250749   5.221   2.059  12.375  0.1260 -0.5265  0.5547
 9753TIP3    H150750   5.185   2.121  12.312  1.1510  0.0760  0.5502
 9753TIP3    H250751   5.148   2.000  12.395 -0.2448 -0.6439 -1.0902
 9754TIP3   OH250752   4.113   4.791   4.109 -0.3923 -0.0982 -0.1678
 9754TIP3    H150753   4.093   4.770   4.018  0.9726  0.5643 -0.6445
 9754TIP3    H250754   4.162   4.716   4.141  0.0551  0.1258 -0.3171
 9755TIP3   OH250755   5.210   6.523  13.540  0.7487 -0.0661 -0.3793
 9755TIP3    H150756   5.209   6.443  13.592 -1.1980  0.8799  1.1105
 9755TIP3    H250757   5.136   6.513  13.479  1.0853  0.1798 -0.8319
 9756TIP3   OH250758   5.812   6.752   5.754  0.7047 -0.2525 -0.2208
 9756TIP3    H150759   5.749   6.804   5.704 -0.0380 -1.0127 -0.0855
 9756TIP3    H250760   5.850   6.692   5.689  0.3011 -0.7173 -0.0254
 9757TIP3   OH250761   2.326   0.659   1.096 -0.3836 -0.5071  0.0409
 9757TIP3    H150762   2.308   0.621   1.010 -1.2093 -2.1806  0.9379
 9757TIP3    H250763   2.414   0.628   1.118  0.2814  0.8251 -0.6613
 9758TIP3   OH250764   1.936   5.951  16.332  0.6420 -0.1154  0.0608
 9758TIP3    H150765   1.889   5.939  16.249  2.2031  2.2384 -1.2194
 9758TIP3    H250766   1.875   6.000  16.387  0.6187  0.7090 -0.6872
 9759TIP3   OH250767   3.081   5.804  12.452  0.3133  0.0292  0.5203
 9759TIP3    H150768   2.995   5.771  12.478  0.4416  0.9778  2.2118
 9759TIP3    H250769   3.066   5.895  12.427  0.4470 -0.4639 -1.4175
 9760TIP3   OH250770   6.476   3.547  12.824  0.4913 -0.0710  0.0781
 9760TIP3    H150771   6.486   3.596  12.906 -0.6682 -1.5672  1.1361
 9760TIP3    H250772   6.385   3.563  12.798  0.3206 -1.0719  0.0581
 9761TIP3   OH250773   4.096   2.982   5.372  0.0197 -0.2374  0.2482
 9761TIP3    H150774   4.020   2.931   5.344  0.5996 -1.3947  0.7438
 9761TIP3    H250775   4.066   3.028   5.451 -0.6233  0.4911 -0.4238
 9762TIP3   OH250776   6.673   2.138   0.935  0.1540 -0.3047  0.5201
 9762TIP3    H150777   6.643   2.152   0.845  2.1891  0.3908 -0.0877
 9762TIP3    H250778   6.625   2.203   0.986 -0.4263 -0.1668 -0.1829
 9763TIP3   OH250779   1.418   0.429   1.654 -0.2111  0.3246  0.4424
 9763TIP3    H150780   1.346   0.378   1.691 -0.5704  1.7400  1.7744
 9763TIP3    H250781   1.374   0.498   1.604  0.2447 -0.0381 -0.4513
 9764TIP3   OH250782   0.323   3.797  12.623  0.2348  0.6638  0.0574
 9764TIP3    H150783   0.374   3.869  12.660  0.2141  0.4215  0.5634
 9764TIP3    H250784   0.235   3.833  12.613 -0.0435  0.3588  1.3774
 9765TIP3   OH250785   2.331   4.048   4.683 -0.2575 -0.3042  0.0064
 9765TIP3    H150786   2.256   4.049   4.744 -0.3917  2.1369 -0.1163
 9765TIP3    H250787   2.371   4.135   4.694  1.7083 -1.0619 -0.9805
 9766TIP3   OH250788   6.143   0.945  12.189  0.2016 -0.5399  0.3125
 9766TIP3    H150789   6.091   0.999  12.249  0.3173 -0.6241  0.4881
 9766TIP3    H250790   6.077   0.897  12.138  0.0935 -0.1451  0.0694
 9767TIP3   OH250791   3.488   4.693  15.489  0.1828  0.3068 -0.0650
 9767TIP3    H150792   3.430   4.767  15.467 -1.1216 -0.4134  0.8855
 9767TIP3    H250793   3.525   4.667  15.405 -1.1486  0.5631 -0.7565
 9768TIP3   OH250794   1.328   4.925   0.986 -0.7009  0.3803  0.3751
 9768TIP3    H150795   1.404   4.973   0.954 -2.6341  3.5912  0.3943
 9768TIP3    H250796   1.273   4.914   0.908 -0.1582 -2.1394  0.3061
 9769TIP3   OH250797   0.640   5.979  16.221  0.0102 -0.9458  0.0605
 9769TIP3    H150798   0.689   5.983  16.139 -0.9453 -0.3074 -0.4929
 9769TIP3    H250799   0.581   5.905  16.210 -0.3184 -0.6843  0.0509
 9770TIP3   OH250800   6.031   2.085   3.076 -0.0003  1.0220  0.2557
 9770TIP3    H150801   5.947   2.039   3.079  1.1565 -1.2562 -0.6859
 9770TIP3    H250802   6.033   2.126   2.990  0.0510  0.6333  0.0679
 9771TIP3   OH250803   5.099   3.688  16.575 -0.0354 -0.6054 -0.1156
 9771TIP3    H150804   5.193   3.689  16.593 -0.0230 -1.2725 -0.1622
 9771TIP3    H250805   5.062   3.626  16.637 -0.4607 -0.2868 -0.0417
 9772TIP3   OH250806   0.543   0.732   1.813  0.0478  0.0541 -0.0051
 9772TIP3    H150807   0.502   0.802   1.863  0.5698  0.9769 -0.8700
 9772TIP3    H250808   0.566   0.666   1.879 -0.6519  0.5823  0.7792
 9773TIP3   OH250809   0.876   0.711   3.848 -0.1020  0.8041  0.3164
 9773TIP3    H150810   0.821   0.754   3.913 -1.0497 -1.1971  0.8679
 9773TIP3    H250811   0.856   0.756   3.766  0.9443  3.2033  1.3260
 9774TIP3   OH250812   2.773   4.124   5.272  0.6361 -0.2000 -0.4116
 9774TIP3    H150813   2.814   4.116   5.186 -1.4801 -3.7246 -1.1653
 9774TIP3    H250814   2.830   4.075   5.331  1.1285  0.7173 -0.1065
 9775TIP3   OH250815   2.163   0.571   3.992  0.1604  0.5042  0.3249
 9775TIP3    H150816   2.093   0.613   4.042  1.4857  2.0302  0.9383
 9775TIP3    H250817   2.124   0.490   3.961 -1.7382  1.0982  1.0523
 9776TIP3   OH250818   0.555   1.905  16.831 -0.8706  0.1209 -0.5447
 9776TIP3    H150819   0.576   1.840  16.764 -1.6387  2.0972 -2.8138
 9776TIP3    H250820   0.462   1.891  16.850 -0.5842 -0.6189  0.3214
 9777TIP3   OH250821   0.881   0.383  12.816  0.4866 -0.9010 -0.1826
 9777TIP3    H150822   0.824   0.459  12.812  2.7414  0.8942  0.4015
 9777TIP3    H250823   0.868   0.338  12.733 -0.5919  0.3240 -0.6944
 9778TIP3   OH250824   6.283   6.197  14.556 -0.0350  0.3904  0.4858
 9778TIP3    H150825   6.268   6.171  14.647  1.4389  1.2447  0.9957
 9778TIP3    H250826   6.307   6.290  14.562 -0.0525  0.4767 -0.7808
 9779TIP3   OH250827   6.738   4.933   4.738 -0.2134  0.0374  0.1984
 9779TIP3    H150828   6.825   4.955   4.771  0.5008 -0.0147 -1.5824
 9779TIP3    H250829   6.733   4.838   4.747  1.4280 -0.4519 -3.0850
 9780TIP3   OH250830   5.907   3.151   2.780 -0.5227 -0.0192 -0.2488
 9780TIP3    H150831   5.839   3.209   2.813  0.0093  0.5264 -0.0877
 9780TIP3    H250832   5.926   3.184   2.692  0.2946  0.5235  0.1174
 9781TIP3   OH250833   5.515   5.011   6.031  0.7183  0.0649 -0.4156
 9781TIP3    H150834   5.496   5.020   6.125  0.0297 -1.2099 -0.4187
 9781TIP3    H250835   5.594   5.063   6.018  2.7092 -2.3416  1.5296
 9782TIP3   OH250836   5.965   5.475  15.603 -0.3095 -0.2619  0.1853
 9782TIP3    H150837   5.996   5.388  15.627  1.7982  0.5944  0.6803
 9782TIP3    H250838   6.025   5.535  15.647  0.4893  1.4149 -3.0368
 9783TIP3   OH250839   2.004   6.230   5.381 -0.8867  0.1920  0.3306
 9783TIP3    H150840   2.055   6.150   5.390  0.9566  1.2911 -0.1372
 9783TIP3    H250841   2.010   6.252   5.288  1.8360  2.9050  1.0772
 9784TIP3   OH250842   4.470   3.484   5.753  0.4763  0.2381  0.4047
 9784TIP3    H150843   4.472   3.395   5.719 -1.6227 -0.2044  1.3715
 9784TIP3    H250844   4.427   3.477   5.838  0.3551  2.1695  0.5326
 9785TIP3   OH250845   3.957   6.664  16.621 -0.1773  0.8077 -0.5191
 9785TIP3    H150846   4.028   6.613  16.582  2.7428  3.8240  0.5532
 9785TIP3    H250847   3.910   6.602  16.677  1.4575 -1.3385 -1.4715
 9786TIP3   OH250848   3.187   6.611  14.515 -0.0471 -0.2769 -0.5372
 9786TIP3    H150849   3.245   6.661  14.459  1.2624 -1.8781 -0.6460
 9786TIP3    H250850   3.154   6.675  14.579 -0.0440  1.1341 -1.9182
 9787TIP3   OH250851   6.041   0.169  11.018  0.6059  0.2992  0.1593
 9787TIP3    H150852   5.957   0.168  11.064  0.8103  0.6327  0.5457
 9787TIP3    H250853   6.106   0.154  11.087  0.8374 -0.3629 -0.1983
 9788TIP3   OH250854   0.718   4.065   0.343 -0.0439  0.5629  0.7411
 9788TIP3    H150855   0.680   3.980   0.322 -1.0953  1.0674  0.6124
 9788TIP3    H250856   0.675   4.092   0.424 -0.1700  1.2693  0.4380
 9789TIP3   OH250857   0.731   1.543  12.475  1.1476 -0.5016  0.4768
 9789TIP3    H150858   0.699   1.493  12.551 -1.9521  0.3058 -0.2468
 9789TIP3    H250859   0.672   1.519  12.404  0.4333  3.1747 -0.2274
 9790TIP3   OH250860   6.132   1.513  11.308 -0.3743 -0.0492  0.1133
 9790TIP3    H150861   6.083   1.518  11.226 -1.3263  1.5516  0.7478
 9790TIP3    H250862   6.107   1.592  11.356  0.4457 -0.7680  1.7897
 9791TIP3   OH250863   2.276   2.333  16.588 -0.2076  0.6185  0.3548
 9791TIP3    H150864   2.279   2.418  16.544  0.1517  1.6675  2.3016
 9791TIP3    H250865   2.266   2.356  16.681 -0.4096 -1.4832  0.8642
 9792TIP3   OH250866   6.404   1.732  13.610 -0.1263 -0.1336  0.0061
 9792TIP3    H150867   6.394   1.747  13.704 -1.7378 -0.1053 -0.1618
 9792TIP3    H250868   6.432   1.641  13.603  1.2913  0.2449  0.5733
 9793TIP3   OH250869   5.963   6.258   3.416 -0.2444 -0.2182 -0.4679
 9793TIP3    H150870   5.903   6.323   3.379 -0.6545  0.4746  1.3610
 9793TIP3    H250871   6.041   6.264   3.362 -1.4325 -0.3823 -2.2335
 9794TIP3   OH250872   2.053   1.519  16.404 -0.0416  0.2043 -0.1010
 9794TIP3    H150873   2.038   1.449  16.468  1.0730 -0.1313 -0.2026
 9794TIP3    H250874   2.006   1.594  16.440 -3.1393 -1.1497 -1.0794
 9795TIP3   OH250875   1.150   3.808  13.791  0.1864  0.2620 -0.5005
 9795TIP3    H150876   1.201   3.877  13.832 -1.5844  2.1225 -1.3088
 9795TIP3    H250877   1.214   3.757  13.741  1.3117  2.2824 -1.1667
 9796TIP3   OH250878   1.736   4.896  16.846 -0.2759 -0.2013 -0.1354
 9796TIP3    H150879   1.719   4.837  16.919 -1.4629 -1.5236 -1.4476
 9796TIP3    H250880   1.657   4.950  16.839 -0.3750 -0.4318 -0.7821
 9797TIP3   OH250881   4.287   1.267  14.730  0.6060 -0.2948  0.0230
 9797TIP3    H150882   4.296   1.344  14.674 -1.3257 -0.6427 -0.7858
 9797TIP3    H250883   4.287   1.193  14.669 -2.2505 -0.6341  0.3720
 9798TIP3   OH250884   3.290   3.589  14.463 -0.3689 -0.0527  0.4482
 9798TIP3    H150885   3.288   3.666  14.406  0.4517 -0.9699 -0.8625
 9798TIP3    H250886   3.320   3.518  14.405  0.1677 -1.0736  1.9602
 9799TIP3   OH250887   1.936   4.953   4.515  0.0654  0.2974  0.6342
 9799TIP3    H150888   1.991   5.015   4.468  0.4677 -0.8034 -0.3789
 9799TIP3    H250889   1.847   4.988   4.507  0.3001  0.7768  0.1230
 9800TIP3   OH250890   4.852   2.120   3.771  0.2417 -0.4037 -0.0419
 9800TIP3    H150891   4.830   2.144   3.681  1.3678 -1.4807 -0.6163
 9800TIP3    H250892   4.780   2.155   3.824 -0.3260  0.3999 -1.3363
 9801TIP3   OH250893   6.458   0.277  16.268 -0.4079 -0.3716  0.6120
 9801TIP3    H150894   6.397   0.281  16.195  0.2261 -1.5671  0.0072
 9801TIP3    H250895   6.445   0.190  16.305  1.5631 -0.9857 -0.0854
 9802TIP3   OH250896   4.138   3.985  16.269 -0.4714 -0.0990  0.2031
 9802TIP3    H150897   4.085   3.942  16.337 -0.5923  0.6987  0.6270
 9802TIP3    H250898   4.218   4.011  16.315 -0.1532 -0.3900 -0.1880
 9803TIP3   OH250899   4.750   4.416   6.074 -0.1435  0.0320 -0.1522
 9803TIP3    H150900   4.667   4.384   6.108 -0.4960  0.7584 -0.3276
 9803TIP3    H250901   4.786   4.471   6.144  0.2092 -0.3082 -0.0619
 9804TIP3   OH250902   1.455   0.121   4.435 -0.0149 -0.7699  0.0572
 9804TIP3    H150903   1.433   0.215   4.433  0.2512 -0.5865  3.5923
 9804TIP3    H250904   1.534   0.114   4.382  0.1417  1.0690  0.0109
 9805TIP3   OH250905   2.372   0.371  14.939  0.1858  0.2594 -0.6499
 9805TIP3    H150906   2.358   0.276  14.943 -0.9437  0.4327 -0.1611
 9805TIP3    H250907   2.417   0.385  14.856 -1.7030 -0.4642 -1.8367
 9806TIP3   OH250908   1.128   4.668  13.045  0.3571  0.0861 -0.5680
 9806TIP3    H150909   1.041   4.641  13.016  0.0415 -1.2648  1.5657
 9806TIP3    H250910   1.169   4.703  12.966 -1.4601 -0.9731 -2.0261
 9807TIP3   OH250911   1.582   5.928  12.531  0.2643 -0.1367  0.0753
 9807TIP3    H150912   1.588   5.931  12.435 -0.6818 -1.5329 -0.0424
 9807TIP3    H250913   1.514   5.991  12.552 -0.2930 -0.6303 -0.2495
 9808TIP3   OH250914   0.077   5.848   2.339  0.0868 -0.0906 -0.6626
 9808TIP3    H150915   0.130   5.802   2.404  0.7788 -0.5685 -1.5475
 9808TIP3    H250916   0.050   5.929   2.383 -0.1010 -0.7647  0.4808
 9809TIP3   OH250917   6.562   0.934  12.609 -0.1703  0.4323  0.3577
 9809TIP3    H150918   6.528   0.997  12.546  1.4230  1.1571  0.2031
 9809TIP3    H250919   6.644   0.902  12.569  0.1289 -0.1429  1.4195
 9810TIP3   OH250920   3.864   3.625   5.312  0.3807 -0.2564  0.2435
 9810TIP3    H150921   3.890   3.703   5.263  0.8915  0.3092  1.3973
 9810TIP3    H250922   3.899   3.552   5.262  1.3433  0.3382  0.0316
 9811TIP3   OH250923   1.598   1.038   6.841 -0.0954 -0.6871  0.3197
 9811TIP3    H150924   1.560   1.096   6.907 -0.6980 -1.8054  0.9715
 9811TIP3    H250925   1.692   1.050   6.851 -0.2077 -0.0353  0.6383
 9812TIP3   OH250926   6.765   5.800  17.086  0.0250  0.3435  0.0886
 9812TIP3    H150927   6.692   5.849  17.050  0.3994  0.1187 -0.9900
 9812TIP3    H250928   6.732   5.710  17.095  0.2593  0.1834 -0.6616
 9813TIP3   OH250929   0.203   6.707   6.010 -0.2618  0.1337  0.7498
 9813TIP3    H150930   0.275   6.769   6.018 -0.5708  0.5765  0.0928
 9813TIP3    H250931   0.149   6.723   6.088  0.8932 -0.9125  1.7854
 9814TIP3   OH250932   4.615   3.842  13.927 -0.3408 -0.1136 -0.1844
 9814TIP3    H150933   4.600   3.926  13.884 -1.9222  0.0531  0.6416
 9814TIP3    H250934   4.610   3.862  14.021  4.6402 -0.1590  0.2090
 9815TIP3   OH250935   0.246   5.157   0.266  0.0122 -0.2621  0.3186
 9815TIP3    H150936   0.177   5.212   0.303 -0.1806 -0.6066  0.4816
 9815TIP3    H250937   0.213   5.129   0.181 -0.7908 -1.7807  1.0911
 9816TIP3   OH250938   4.304   4.433   2.209  0.5545  0.1697 -0.2051
 9816TIP3    H150939   4.398   4.445   2.225  0.6497  0.2822 -0.8055
 9816TIP3    H250940   4.300   4.374   2.134  0.1399 -0.0702  0.0051
 9817TIP3   OH250941   3.809   0.825   2.048  0.0001 -0.2400  0.2402
 9817TIP3    H150942   3.736   0.769   2.023 -0.5700  1.0023 -0.9449
 9817TIP3    H250943   3.844   0.786   2.128 -0.3277 -2.3384 -0.6197
 9818TIP3   OH250944   4.324   3.183  15.514  0.5387 -0.0180  0.1467
 9818TIP3    H150945   4.249   3.225  15.472 -0.6084 -1.5828  0.6069
 9818TIP3    H250946   4.326   3.220  15.602 -0.8948 -1.4003  0.7824
 9819TIP3   OH250947   1.119   6.058  11.610 -0.1247 -0.4226 -0.4486
 9819TIP3    H150948   1.143   5.999  11.681 -4.3215 -2.9753 -0.9983
 9819TIP3    H250949   1.080   6.134  11.654 -0.1334 -0.7123  0.0384
 9820TIP3   OH250950   6.506   3.361   2.699  0.4324  0.3468  0.0501
 9820TIP3    H150951   6.595   3.385   2.724  0.9621  0.0065 -1.4285
 9820TIP3    H250952   6.518   3.294   2.631 -0.9699 -1.6224  1.6760
 9821TIP3   OH250953   4.836   6.779   2.078 -0.0086  0.0508  0.1579
 9821TIP3    H150954   4.768   6.772   2.145  0.6205  0.9376  0.9028
 9821TIP3    H250955   4.873   6.690   2.073 -1.8521 -0.6824 -0.9579
 9822TIP3   OH250956   2.381   4.645  17.250 -0.0085  0.4947 -0.6460
 9822TIP3    H150957   2.293   4.622  17.218 -1.3551  3.0484  1.1020
 9822TIP3    H250958   2.437   4.636  17.173 -1.9599 -0.2663 -2.0246
 9823TIP3   OH250959   4.694   4.998  14.311  0.2634 -0.3218 -0.5449
 9823TIP3    H150960   4.711   4.904  14.298 -0.7922 -0.6869  0.5647
 9823TIP3    H250961   4.605   5.001  14.346  0.1309  1.1363 -0.9764
 9824TIP3   OH250962   2.172   0.633  11.168  0.7872  0.1377  0.0385
 9824TIP3    H150963   2.231   0.641  11.093 -0.2956  0.5504 -0.7744
 9824TIP3    H250964   2.211   0.563  11.221  1.0223 -0.8622 -1.4065
 9825TIP3   OH250965   3.709   5.957  12.082  0.1430  0.2906  0.1684
 9825TIP3    H150966   3.663   5.902  12.145  1.7786 -0.8286  0.4204
 9825TIP3    H250967   3.768   5.897  12.036 -0.6914  1.1580 -2.1197
 9826TIP3   OH250968   4.285   0.820  12.203  0.0447 -0.1552  0.5663
 9826TIP3    H150969   4.199   0.862  12.210  0.4630  1.6069 -3.4317
 9826TIP3    H250970   4.267   0.734  12.166 -0.0268  0.3115 -0.5163
 9827TIP3   OH250971   6.760   5.429   2.539  0.1891  0.9331  1.0219
 9827TIP3    H150972   6.728   5.440   2.629 -0.7289 -0.1813  0.8488
 9827TIP3    H250973   6.734   5.340   2.515  1.5823  0.7474  0.1066
 9828TIP3   OH250974   1.522   1.383  16.584  0.2266 -0.0815  0.0058
 9828TIP3    H150975   1.597   1.360  16.529 -0.4143 -0.9608 -0.5048
 9828TIP3    H250976   1.549   1.464  16.628  1.1723  0.0300 -0.7608
 9829TIP3   OH250977   5.376   4.957   1.773  0.0030  0.5465  0.0240
 9829TIP3    H150978   5.418   4.883   1.730 -0.4849 -0.1489  0.7300
 9829TIP3    H250979   5.424   5.034   1.742  1.8782 -0.2422  0.8914
 9830TIP3   OH250980   0.794   6.762  13.585  0.0433 -0.3872 -0.6594
 9830TIP3    H150981   0.708   6.798  13.605  0.9191  1.2168  0.3211
 9830TIP3    H250982   0.797   6.759  13.489 -1.4331 -1.3493 -0.6997
 9831TIP3   OH250983   0.593   4.036  14.086 -0.0204  0.5239  0.4519
 9831TIP3    H150984   0.519   4.097  14.088 -1.5794 -1.3175 -0.2254
 9831TIP3    H250985   0.615   4.021  14.178 -0.7796  0.7333  0.6709
 9832TIP3   OH250986   0.664   5.198   5.840 -0.2804 -0.5558 -0.2053
 9832TIP3    H150987   0.676   5.120   5.895 -2.3191 -0.1208  0.8815
 9832TIP3    H250988   0.679   5.272   5.899 -2.2334 -0.0841 -0.2706
 9833TIP3   OH250989   0.147   3.207   1.915  0.6025  0.0213  0.0010
 9833TIP3    H150990   0.108   3.189   2.000 -0.4762  3.2149  0.2230
 9833TIP3    H250991   0.240   3.219   1.933  0.3359  0.9619  0.8024
 9834TIP3   OH250992   0.797   2.039   4.979  0.4039 -0.1331 -0.0938
 9834TIP3    H150993   0.749   1.956   4.987 -0.1861  0.2626  0.4706
 9834TIP3    H250994   0.844   2.048   5.062  2.4343 -1.1066 -1.0899
 9835TIP3   OH250995   6.777   4.498  16.531  0.2820  0.4641  0.1254
 9835TIP3    H150996   6.791   4.472  16.621  1.1896  0.5101 -0.0028
 9835TIP3    H250997   6.797   4.592  16.529 -1.3219  0.8284  0.2221
 9836TIP3   OH250998   1.214   4.314  11.516  0.3587 -0.9169 -0.4602
 9836TIP3    H150999   1.200   4.384  11.452  0.6471  0.1208  0.6077
 9836TIP3    H251000   1.302   4.282  11.497  0.4374 -0.6222 -0.5951
 9837TIP3   OH251001   1.642   2.961   5.305 -0.2103  0.1133 -0.0130
 9837TIP3    H151002   1.601   2.904   5.369 -0.9444  0.4660 -0.1679
 9837TIP3    H251003   1.726   2.986   5.345 -0.7137  0.4341  0.8689
 9838TIP3   OH251004   3.593   0.157  16.198 -0.8009  0.2154  0.0867
 9838TIP3    H151005   3.654   0.124  16.264  1.1432 -0.7668 -2.1135
 9838TIP3    H251006   3.629   0.242  16.173 -1.0034  0.1641 -0.3804
 9839TIP3   OH251007   6.114   2.903   5.886 -0.6879 -0.1792 -0.0237
 9839TIP3    H151008   6.061   2.857   5.951 -1.5932 -0.6187 -1.0531
 9839TIP3    H251009   6.051   2.929   5.818  0.1220  0.9357 -0.3548
 9840TIP3   OH251010   2.372   3.502  13.167  0.3758 -0.2919  0.7928
 9840TIP3    H151011   2.372   3.583  13.116  0.4976 -0.7043  0.1362
 9840TIP3    H251012   2.348   3.433  13.104 -0.8671 -0.6155  1.5962
 9841TIP3   OH251013   6.193   5.352   0.389 -0.3776 -0.0278 -0.8133
 9841TIP3    H151014   6.257   5.299   0.341  2.9709  1.5398  1.6397
 9841TIP3    H251015   6.190   5.312   0.476 -1.2035  1.1567 -0.2843
 9842TIP3   OH251016   5.421   6.718   2.462  0.1847 -0.1033 -0.6090
 9842TIP3    H151017   5.418   6.728   2.557 -0.7762  1.3699 -0.7711
 9842TIP3    H251018   5.452   6.803   2.430 -0.5924 -0.2060 -1.6608
 9843TIP3   OH251019   5.032   4.588  13.279 -0.3407 -0.3764 -0.4773
 9843TIP3    H151020   5.041   4.671  13.232  0.8007 -0.6504 -0.7621
 9843TIP3    H251021   5.122   4.556  13.287 -0.3628  0.2893  3.0448
 9844TIP3   OH251022   2.296   0.310   5.005 -0.7152 -0.1819  0.1175
 9844TIP3    H151023   2.346   0.373   4.954 -1.2047  0.3404  0.2711
 9844TIP3    H251024   2.263   0.361   5.080  2.2343 -1.5055  2.4498
 9845TIP3   OH251025   5.681   6.050   3.627  0.7983 -0.3985 -0.6991
 9845TIP3    H151026   5.678   5.962   3.665 -1.2419 -0.2283 -0.3731
 9845TIP3    H251027   5.593   6.062   3.591  0.5390  2.1032  0.6649
 9846TIP3   OH251028   4.955   0.476  15.255 -0.4673  0.1265  0.1442
 9846TIP3    H151029   4.995   0.491  15.340 -0.5517 -2.3192  0.6638
 9846TIP3    H251030   5.029   0.478  15.193 -0.1939  0.4215  0.4809
 9847TIP3   OH251031   4.335   5.359   2.535  0.3171  0.4466 -0.2001
 9847TIP3    H151032   4.380   5.280   2.564  1.6627  1.1734 -0.2799
 9847TIP3    H251033   4.390   5.431   2.566 -0.9715  1.3633 -0.0012
 9848TIP3   OH251034   6.162   6.276  15.985  0.4597  0.4776 -0.0734
 9848TIP3    H151035   6.118   6.242  16.063  0.4385  1.3632  0.3033
 9848TIP3    H251036   6.097   6.333  15.944  0.8273  0.8231 -0.1784
 9849TIP3   OH251037   6.693   5.126  12.757 -0.0544  0.0931  0.3085
 9849TIP3    H151038   6.741   5.198  12.716  1.4129 -0.9860  0.0621
 9849TIP3    H251039   6.609   5.124  12.712  0.0070  1.4658  0.1192
 9850TIP3   OH251040   1.979   6.798   4.604  0.0517  0.4117  0.2364
 9850TIP3    H151041   1.931   6.880   4.598 -1.2065 -0.2782  0.6992
 9850TIP3    H251042   2.040   6.801   4.531 -0.1696  1.6386  0.0905
 9851TIP3   OH251043   1.508   6.688   5.946  0.2810  0.1746 -0.1904
 9851TIP3    H151044   1.597   6.677   5.912  0.3764 -1.1368  0.4524
 9851TIP3    H251045   1.521   6.724   6.034  0.0721  2.5788 -1.1256
 9852TIP3   OH251046   3.272   1.471   4.812 -0.1016  0.0515  0.1786
 9852TIP3    H151047   3.341   1.420   4.854 -1.0832 -0.0815  1.6606
 9852TIP3    H251048   3.190   1.430   4.841 -0.8751  1.7680  0.5075
 9853TIP3   OH251049   0.667   4.364  11.823  0.2419  0.3442  0.3279
 9853TIP3    H151050   0.760   4.364  11.803  0.0716 -3.1714 -0.8885
 9853TIP3    H251051   0.626   4.406  11.747  0.8182  1.8658  0.8510
 9854TIP3   OH251052   0.560   1.063   3.892  0.6620 -0.1152 -0.2873
 9854TIP3    H151053   0.602   1.149   3.900  1.1265 -0.3716  0.0807
 9854TIP3    H251054   0.471   1.083   3.862  0.4964  0.5554  0.6002
 9855TIP3   OH251055   5.073   1.592  12.270  0.3260 -0.4279  0.3929
 9855TIP3    H151056   5.025   1.631  12.343  1.9401  1.1567  0.6478
 9855TIP3    H251057   5.116   1.667  12.227  2.4958 -1.7842  0.1462
 9856TIP3   OH251058   2.198   5.295   5.879  0.3757 -0.1207 -0.2252
 9856TIP3    H151059   2.225   5.212   5.841 -0.1598  0.1183 -1.1425
 9856TIP3    H251060   2.135   5.271   5.947  4.2287 -0.8356  3.3243
 9857TIP3   OH251061   0.192   5.115  11.541 -0.1085  0.5338 -0.0657
 9857TIP3    H151062   0.262   5.070  11.494 -0.5864 -2.1442  1.6683
 9857TIP3    H251063   0.220   5.114  11.632 -0.3747  3.4114  0.0858
 9858TIP3   OH251064   1.325   1.816  12.664  0.2246 -0.3076  0.0238
 9858TIP3    H151065   1.289   1.789  12.749  1.7176  0.9579  1.0818
 9858TIP3    H251066   1.288   1.753  12.602  0.6190 -2.4624  1.8807
 9859TIP3   OH251067   2.307   3.233   0.293 -0.1389  0.1974 -0.2248
 9859TIP3    H151068   2.256   3.212   0.215  1.8179 -0.9646 -1.2264
 9859TIP3    H251069   2.373   3.164   0.299  0.9278  1.2934  1.4061
 9860TIP3   OH251070   5.073   1.078   0.361 -0.4855  0.1060  0.1459
 9860TIP3    H151071   5.117   0.995   0.341 -1.3342 -0.1565 -0.7147
 9860TIP3    H251072   5.144   1.138   0.382  0.3011 -0.2762 -1.3347
 9861TIP3   OH251073   0.914   5.432  10.696 -0.5987  0.6249 -0.0974
 9861TIP3    H151074   0.916   5.343  10.661  5.7520  0.2315  0.6400
 9861TIP3    H251075   0.909   5.421  10.791 -0.2201  0.9945 -0.0267
 9862TIP3   OH251076   2.518   6.243   6.395  0.2637  0.2392 -0.0391
 9862TIP3    H151077   2.563   6.172   6.351  0.3261  0.7467 -0.7972
 9862TIP3    H251078   2.483   6.204   6.475  1.6667 -0.2562  0.3286
 9863TIP3   OH251079   0.429   2.850  16.620 -0.4775 -0.1385  0.1552
 9863TIP3    H151080   0.404   2.929  16.669  0.3735 -1.6370  3.1268
 9863TIP3    H251081   0.346   2.820  16.582 -0.7700  2.3000 -1.2889
 9864TIP3   OH251082   6.572   6.562   4.864 -0.0557 -0.0649 -0.1908
 9864TIP3    H151083   6.611   6.481   4.832 -0.1796 -0.1970 -0.0078
 9864TIP3    H251084   6.637   6.630   4.845  0.0625 -0.2129 -0.3103
 9865TIP3   OH251085   2.808   0.821  16.596  0.1717  0.3940 -0.1626
 9865TIP3    H151086   2.714   0.818  16.614 -0.1580  0.0001 -1.8239
 9865TIP3    H251087   2.813   0.830  16.500  1.8170  0.8714 -0.0367
 9866TIP3   OH251088   3.287   2.163  15.488  0.4165 -0.1691  0.3352
 9866TIP3    H151089   3.279   2.156  15.583 -1.5037 -3.8786 -0.0132
 9866TIP3    H251090   3.349   2.095  15.463  2.1993  1.8555 -0.9680
 9867TIP3   OH251091   5.754   2.904  11.470 -0.4072  0.0007 -0.4513
 9867TIP3    H151092   5.794   2.934  11.388  0.1853 -0.3973 -0.3183
 9867TIP3    H251093   5.774   2.973  11.533  1.1079 -0.7206 -0.1017
 9868TIP3   OH251094   1.732   4.228   0.270  0.4343 -0.6228  0.3193
 9868TIP3    H151095   1.649   4.184   0.290 -0.0658  0.4824  0.7146
 9868TIP3    H251096   1.755   4.273   0.351  0.0508  1.2584 -0.6002
 9869TIP3   OH251097   3.214   3.223  13.646  0.8242  0.2230  0.1638
 9869TIP3    H151098   3.265   3.247  13.569  2.0024 -0.1847  0.7918
 9869TIP3    H251099   3.173   3.140  13.623 -1.1255  1.5062 -1.0447
 9870TIP3   OH251100   3.591   5.421   4.768 -0.2255 -0.0157  0.2250
 9870TIP3    H151101   3.675   5.440   4.726 -0.6322 -0.6517 -0.8998
 9870TIP3    H251102   3.531   5.488   4.734 -0.7106 -0.9071 -0.7487
 9871TIP3   OH251103   0.558   6.204   5.887 -0.4413  0.1650  0.3387
 9871TIP3    H151104   0.481   6.173   5.839 -0.6283  2.0079 -0.5853
 9871TIP3    H251105   0.613   6.126   5.895 -0.9354 -0.4743 -1.8864
 9872TIP3   OH251106   3.509   4.845   0.365 -0.3222 -0.4778  0.2617
 9872TIP3    H151107   3.508   4.816   0.456 -1.4099  0.3684  0.5252
 9872TIP3    H251108   3.418   4.843   0.337 -0.1523  0.5020 -0.4118
 9873TIP3   OH251109   1.192   6.606  12.114  0.5626 -0.1949  0.6180
 9873TIP3    H151110   1.102   6.619  12.141  0.7368 -1.3291  1.7788
 9873TIP3    H251111   1.243   6.666  12.168  0.7008 -0.9427  1.3122
 9874TIP3   OH251112   4.797   3.142  13.147 -0.2185 -0.6457 -0.2503
 9874TIP3    H151113   4.857   3.085  13.098 -1.3432  0.2365 -2.7861
 9874TIP3    H251114   4.727   3.084  13.176  0.2647 -1.1261 -0.0364
 9875TIP3   OH251115   0.702   0.810   3.356  0.2812 -0.4836 -0.7725
 9875TIP3    H151116   0.706   0.715   3.365 -0.6278 -0.3221  1.8695
 9875TIP3    H251117   0.674   0.825   3.265 -0.1735 -2.7435 -1.0264
 9876TIP3   OH251118   3.147   0.847   3.384  0.6638 -0.4514  0.0403
 9876TIP3    H151119   3.230   0.805   3.361  0.6539 -0.4336 -0.0266
 9876TIP3    H251120   3.165   0.941   3.378  0.1421 -0.4568 -1.7193
 9877TIP3   OH251121   1.278   5.349   5.063  0.0999 -0.6030 -0.2190
 9877TIP3    H151122   1.346   5.283   5.048  1.8806  1.3524 -1.0720
 9877TIP3    H251123   1.198   5.309   5.030  1.0614 -2.4682 -0.3832
 9878TIP3   OH251124   6.454   2.285  12.227 -0.3542 -0.0810 -0.9474
 9878TIP3    H151125   6.487   2.329  12.149  1.1390 -0.0405 -0.3059
 9878TIP3    H251126   6.388   2.345  12.261  0.7983  1.1101 -0.7677
 9879TIP3   OH251127   1.563   4.644   3.062 -0.6086  0.0477  0.1482
 9879TIP3    H151128   1.568   4.688   2.977  0.3959  0.1829  0.2722
 9879TIP3    H251129   1.594   4.556   3.045  3.3602  1.1615  1.1145
 9880TIP3   OH251130   2.311   5.598   1.856 -0.0022 -0.0932  0.3998
 9880TIP3    H151131   2.391   5.578   1.809 -0.7092 -2.5210  0.1334
 9880TIP3    H251132   2.330   5.572   1.947 -0.9057 -2.0114  0.0690
 9881TIP3   OH251133   0.872   3.599  13.494  0.4485  0.4050 -0.4489
 9881TIP3    H151134   0.947   3.655  13.477  0.8635  0.2312  0.7158
 9881TIP3    H251135   0.798   3.643  13.452  0.6179  2.2268  1.1138
 9882TIP3   OH251136   4.452   2.169   4.989  0.4030 -0.0532  0.0043
 9882TIP3    H151137   4.434   2.106   5.059 -0.5219  0.5318  0.2984
 9882TIP3    H251138   4.531   2.215   5.019  1.1171 -1.0970 -0.2390
 9883TIP3   OH251139   4.525   0.003  15.945 -0.2438  0.2928  0.0889
 9883TIP3    H151140   4.471  -0.010  16.023  0.2559 -0.2065  0.3584
 9883TIP3    H251141   4.535   0.098  15.939  0.1062  0.3183  0.9105
 9884TIP3   OH251142   2.411   0.124  10.922 -0.3473 -0.2029 -0.1329
 9884TIP3    H151143   2.499   0.098  10.895 -0.5341 -1.3836  0.3613
 9884TIP3    H251144   2.353   0.072  10.867 -0.7315 -0.3297  0.3926
 9885TIP3   OH251145   5.676   5.634   2.450  0.7454  0.2648 -0.2553
 9885TIP3    H151146   5.625   5.555   2.468  1.6920  0.0811  1.7693
 9885TIP3    H251147   5.619   5.706   2.477  0.0846  0.2787 -1.6198
 9886TIP3   OH251148   0.424   0.521  14.797  0.4341  0.3971 -0.2226
 9886TIP3    H151149   0.447   0.570  14.876 -0.4658 -0.2541  0.4509
 9886TIP3    H251150   0.468   0.437  14.807  1.2999  0.7473 -0.9920
 9887TIP3   OH251151   5.561   3.498  16.632 -0.0983  0.2470 -0.1750
 9887TIP3    H151152   5.587   3.451  16.711  0.1134  0.0832 -0.3361
 9887TIP3    H251153   5.596   3.586  16.643  1.0187 -0.1260 -0.6268
 9888TIP3   OH251154   0.138   2.617   1.815  0.3305  0.1223  0.6691
 9888TIP3    H151155   0.086   2.578   1.886 -0.5492  1.3202  0.6919
 9888TIP3    H251156   0.123   2.559   1.740 -0.0228 -0.2444  1.0195
 9889TIP3   OH251157   3.890   5.273  13.635  0.1119 -0.0540  0.3845
 9889TIP3    H151158   3.921   5.357  13.602  0.5222  0.0099  0.9289
 9889TIP3    H251159   3.905   5.212  13.563 -0.4500  0.3905 -0.1202
 9890TIP3   OH251160   2.871   1.693   1.627  0.0843 -0.4818  0.0732
 9890TIP3    H151161   2.918   1.658   1.551 -0.0559  0.9339 -0.6952
 9890TIP3    H251162   2.839   1.779   1.598 -1.9739 -0.9077  0.9616
 9891TIP3   OH251163   6.294   1.499   6.433  0.3890 -0.5311 -0.1560
 9891TIP3    H151164   6.254   1.454   6.508  0.1154  0.4808  0.3148
 9891TIP3    H251165   6.236   1.573   6.416  1.5923  0.4693 -0.0143
 9892TIP3   OH251166   5.557   2.171   4.085 -0.0771 -0.0980 -0.0571
 9892TIP3    H151167   5.525   2.099   4.031  0.5947  0.2440 -0.9158
 9892TIP3    H251168   5.532   2.250   4.037  2.7606  0.1603 -1.1797
 9893TIP3   OH251169   0.593   4.375  13.143 -0.1603  0.5307  0.6241
 9893TIP3    H151170   0.646   4.432  13.086  0.0427  0.2821  0.5615
 9893TIP3    H251171   0.600   4.414  13.230 -0.6712  1.0514  0.4319
 9894TIP3   OH251172   3.336   2.370  13.019 -0.1074  0.0902 -0.0404
 9894TIP3    H151173   3.382   2.294  12.985  0.4978  0.5105 -0.1681
 9894TIP3    H251174   3.325   2.428  12.943 -0.9387 -0.0501 -0.0357
 9895TIP3   OH251175   5.776   1.299   3.750  0.2388  0.0384  0.3570
 9895TIP3    H151176   5.698   1.260   3.789 -0.1736 -1.6447 -2.0520
 9895TIP3    H251177   5.824   1.225   3.713  0.8211  1.4880 -1.8999
 9896TIP3   OH251178   3.539   4.448   2.725 -0.0617  0.3007  0.0041
 9896TIP3    H151179   3.599   4.501   2.672  0.6178  0.3179  0.7873
 9896TIP3    H251180   3.562   4.469   2.815  0.8677 -2.0651  0.3369
 9897TIP3   OH251181   4.741   1.205  13.100 -0.1709 -0.4081 -0.2287
 9897TIP3    H151182   4.717   1.181  13.010 -1.0640 -0.9513  0.1557
 9897TIP3    H251183   4.698   1.139  13.155 -1.7579  1.4272  0.7819
 9898TIP3   OH251184   6.253   3.495   2.675 -0.1402 -0.6493  0.5583
 9898TIP3    H151185   6.211   3.410   2.664  0.1233 -0.5061 -1.8386
 9898TIP3    H251186   6.347   3.475   2.675 -0.1056 -0.4776  1.0620
 9899TIP3   OH251187   3.869   4.406  11.840  0.2394 -0.2835  0.2668
 9899TIP3    H151188   3.938   4.428  11.777  0.1769  3.2969  1.3631
 9899TIP3    H251189   3.789   4.407  11.788  0.4986 -0.0393 -0.1347
 9900TIP3   OH251190   6.782   5.662   1.337  0.6520  0.0457 -0.2089
 9900TIP3    H151191   6.830   5.580   1.330  4.5253  2.0783  0.8594
 9900TIP3    H251192   6.738   5.657   1.422  0.1739 -1.2354 -0.5221
 9901TIP3   OH251193   3.255   4.595  13.355  0.0748  0.4223 -0.2693
 9901TIP3    H151194   3.217   4.511  13.328 -0.0563  0.8482 -1.4454
 9901TIP3    H251195   3.350   4.582  13.346  0.1130  0.0453  0.6234
 9902TIP3   OH251196   0.723   2.397   4.085 -0.3017 -0.1425 -0.1114
 9902TIP3    H151197   0.668   2.322   4.064 -0.3422  0.5180 -2.6250
 9902TIP3    H251198   0.813   2.364   4.074 -0.3119  0.0740 -0.8615
 9903TIP3   OH251199   2.408   3.779  16.853  0.5674 -0.8352 -1.2254
 9903TIP3    H151200   2.336   3.722  16.827 -0.1136 -0.2063 -0.7393
 9903TIP3    H251201   2.409   3.849  16.788 -0.0776 -0.1633 -0.5324
 9904TIP3   OH251202   2.597   2.063  11.523  0.1528  0.3362 -0.7950
 9904TIP3    H151203   2.687   2.033  11.514 -0.0346 -0.5290  0.0680
 9904TIP3    H251204   2.547   2.010  11.461  0.1971  0.6129 -1.0662
 9905TIP3   OH251205   3.907   6.190  15.515  0.7173 -0.0901  0.3280
 9905TIP3    H151206   3.968   6.257  15.546  0.8997 -0.4676  0.7902
 9905TIP3    H251207   3.846   6.177  15.588 -0.7911  1.2978 -0.6461
 9906TIP3   OH251208   5.029   6.202  12.538 -0.1263  0.5042 -0.0619
 9906TIP3    H151209   5.042   6.237  12.627 -0.2805 -2.0406  1.0099
 9906TIP3    H251210   5.116   6.177  12.509 -0.0763  1.3349 -0.6612
 9907TIP3   OH251211   2.858   4.039   2.331 -0.4358 -0.4075 -0.4256
 9907TIP3    H151212   2.922   3.973   2.355 -2.8259 -2.1901  1.1995
 9907TIP3    H251213   2.853   4.097   2.406 -0.2506  0.1158 -0.8130
 9908TIP3   OH251214   5.891   3.577  15.551  0.0480 -0.6883  0.0854
 9908TIP3    H151215   5.816   3.522  15.531 -0.0738 -0.5201  0.0864
 9908TIP3    H251216   5.935   3.532  15.623  0.8683 -1.6479 -1.0024
 9909TIP3   OH251217   4.952   3.762  17.262 -0.2149 -0.1188  0.4756
 9909TIP3    H151218   5.047   3.777  17.264 -0.0883 -0.7074 -0.8744
 9909TIP3    H251219   4.917   3.836  17.214 -0.3542 -0.2922  0.3082
 9910TIP3   OH251220   6.663   2.426  16.770 -0.0624 -0.2223  0.6769
 9910TIP3    H151221   6.691   2.346  16.726  1.2322  0.2169  0.6831
 9910TIP3    H251222   6.663   2.493  16.702 -1.7281 -0.3303  0.5344
 9911TIP3   OH251223   6.237   0.444   0.597 -0.3622 -0.0819  0.4604
 9911TIP3    H151224   6.331   0.432   0.581 -0.4464 -1.3078  0.8037
 9911TIP3    H251225   6.231   0.464   0.690 -0.3075  1.7319  0.0854
 9912TIP3   OH251226   1.737   2.488  15.340  0.0325  0.2980 -0.1900
 9912TIP3    H151227   1.793   2.482  15.262 -0.3851 -0.0839 -0.4621
 9912TIP3    H251228   1.650   2.509  15.305  0.2263  1.9397  0.3128
 9913TIP3   OH251229   2.243   1.324  12.013 -0.1289  0.7723  0.2620
 9913TIP3    H151230   2.333   1.324  11.981  0.0030  0.5460  0.6345
 9913TIP3    H251231   2.210   1.411  11.990  0.3345  1.0285  0.5556
 9914TIP3   OH251232   0.077   3.730  13.878  0.5007 -0.9510 -0.0066
 9914TIP3    H151233   0.074   3.716  13.973 -0.5774 -1.7583 -0.1523
 9914TIP3    H251234  -0.003   3.779  13.858  1.0436 -0.2208 -0.4167
 9915TIP3   OH251235   0.416   0.822  16.601  0.1720 -0.4144 -0.0319
 9915TIP3    H151236   0.370   0.803  16.683  1.6156 -1.5597  0.5275
 9915TIP3    H251237   0.507   0.798  16.618  0.7928  0.8018 -1.4773
 9916TIP3   OH251238   6.735   1.500  11.187  0.1542  0.7342  0.8137
 9916TIP3    H151239   6.795   1.437  11.227  0.8022  0.3385 -0.7396
 9916TIP3    H251240   6.733   1.475  11.095 -2.0798  1.0091  0.7613
 9917TIP3   OH251241   4.534   5.758  13.083  0.0341  0.1810  0.4115
 9917TIP3    H151242   4.571   5.704  13.013  1.4102 -0.0238  1.2896
 9917TIP3    H251243   4.521   5.844  13.043 -2.5622 -0.8570 -1.1208
 9918TIP3   OH251244   0.507   1.919  10.701  0.0630  0.2043  0.0810
 9918TIP3    H151245   0.596   1.907  10.734 -0.4179 -1.2518  0.9361
 9918TIP3    H251246   0.512   1.898  10.608  0.9518  1.9111 -0.2698
 9919TIP3   OH251247   4.697   4.610  15.824 -0.0256 -0.2471  0.3103
 9919TIP3    H151248   4.698   4.679  15.757 -0.4521  0.3600  0.9252
 9919TIP3    H251249   4.664   4.653  15.903 -0.8614 -1.2846  0.5519
 9920TIP3   OH251250   1.411   5.774  15.863  0.4772 -0.0137 -0.3787
 9920TIP3    H151251   1.469   5.742  15.794 -0.1483  0.4284 -1.1136
 9920TIP3    H251252   1.360   5.696  15.889  1.1665 -0.3289  0.0524
 9921TIP3   OH251253   4.404   4.141  11.266 -0.4374  0.2558 -0.1863
 9921TIP3    H151254   4.424   4.227  11.230  0.9671  0.3252  0.7416
 9921TIP3    H251255   4.483   4.116  11.314 -0.4744 -1.9353 -1.1946
 9922TIP3   OH251256   1.328   4.350   2.507  0.3740  0.1645  0.3440
 9922TIP3    H151257   1.338   4.421   2.571 -0.4097  0.3777  0.2383
 9922TIP3    H251258   1.234   4.334   2.503  0.4415 -0.0887 -0.4923
 9923TIP3   OH251259   0.132   0.153  10.767 -0.4253 -0.0845 -0.0026
 9923TIP3    H151260   0.184   0.081  10.733 -1.1873  0.4535 -2.3732
 9923TIP3    H251261   0.181   0.185  10.843  2.5310  0.1867 -1.9737
 9924TIP3   OH251262   6.533   3.355   0.637 -0.1740 -0.8800 -0.3771
 9924TIP3    H151263   6.494   3.442   0.635  0.7261 -0.4792 -0.8446
 9924TIP3    H251264   6.489   3.310   0.709  1.6317  1.0404  1.9772
 9925TIP3   OH251265   0.870   0.028   1.787 -0.2232 -0.0421 -0.6778
 9925TIP3    H151266   0.778   0.039   1.762 -0.2767  0.3937 -0.3051
 9925TIP3    H251267   0.899   0.116   1.811 -0.1321 -0.4267  0.6313
 9926TIP3   OH251268   1.769   4.096  14.920 -0.4828  0.1422 -0.3101
 9926TIP3    H151269   1.833   4.049  14.973 -1.4487 -0.6078  0.2100
 9926TIP3    H251270   1.689   4.094  14.972 -0.8074  1.4914 -0.7393
 9927TIP3   OH251271   1.320   3.319  14.104  0.1864 -0.2387  0.1478
 9927TIP3    H151272   1.406   3.327  14.061  0.2670 -0.0075  0.3456
 9927TIP3    H251273   1.300   3.408  14.132  0.3800 -0.4713  1.0510
 9928TIP3   OH251274   2.247   2.829   0.501  0.0981  0.4554 -0.0761
 9928TIP3    H151275   2.169   2.846   0.448 -0.9617  1.5933  1.7894
 9928TIP3    H251276   2.213   2.806   0.587  1.8022 -0.7389  0.3007
 9929TIP3   OH251277   3.755   3.598   0.539 -0.8831  0.0622 -0.4187
 9929TIP3    H151278   3.766   3.517   0.489  0.3663 -0.4212  0.6142
 9929TIP3    H251279   3.670   3.588   0.583 -1.2747 -0.1725 -1.2281
 9930TIP3   OH251280   5.027   4.366  14.069 -0.3621 -0.4145  0.4755
 9930TIP3    H151281   4.995   4.328  14.151 -1.5540  0.2763  0.3428
 9930TIP3    H251282   5.091   4.431  14.096  1.8726 -2.6545  0.6988
 9931TIP3   OH251283   4.994   4.722  14.515 -0.4052 -0.5448 -0.2898
 9931TIP3    H151284   5.010   4.815  14.498  0.5732 -0.2427  2.1447
 9931TIP3    H251285   5.071   4.678  14.477 -0.3166 -0.2712 -0.4347
 9932TIP3   OH251286   1.485   6.739   4.005  0.0316  0.0086 -0.0688
 9932TIP3    H151287   1.427   6.710   4.075  1.6408  0.3791  1.4469
 9932TIP3    H251288   1.563   6.685   4.013  0.5006  0.4825 -1.1842
 9933TIP3   OH251289   4.259   1.288  13.659  0.5415  0.0826  0.1599
 9933TIP3    H151290   4.334   1.346  13.658  0.2480  0.5584  2.4344
 9933TIP3    H251291   4.296   1.201  13.675  0.5608  0.4408  2.1511
 9934TIP3   OH251292   5.206   6.397  16.181 -0.7805  0.3799  0.2445
 9934TIP3    H151293   5.235   6.319  16.229 -0.8279 -0.4800 -1.0955
 9934TIP3    H251294   5.286   6.431  16.142 -1.0974 -0.2401 -0.9489
 9935TIP3   OH251295   4.645   0.780  12.369 -0.1192  0.6816  0.1031
 9935TIP3    H151296   4.606   0.862  12.339  1.1486  0.7132 -1.5701
 9935TIP3    H251297   4.570   0.723  12.388 -0.9967  1.3083 -1.3852
 9936TIP3   OH251298   0.128   0.115   1.365 -0.3138  0.0473  0.6046
 9936TIP3    H151299   0.168   0.028   1.369 -0.2438 -0.1113 -2.3711
 9936TIP3    H251300   0.035   0.099   1.383 -0.3244 -0.6805 -0.0606
 9937TIP3   OH251301   1.828   3.915  16.273  0.1146  0.5477 -0.3289
 9937TIP3    H151302   1.908   3.967  16.271 -0.0925  0.8575 -0.7463
 9937TIP3    H251303   1.777   3.948  16.199 -1.5457  2.1799  1.5048
 9938TIP3   OH251304   4.372   5.440   2.052  0.0268 -0.2924 -0.1122
 9938TIP3    H151305   4.325   5.356   2.043  2.9843 -1.7569 -2.7605
 9938TIP3    H251306   4.442   5.421   2.115  0.4521  0.3302 -0.4024
 9939TIP3   OH251307   2.156   3.225   1.586 -0.1949 -0.0515  0.2196
 9939TIP3    H151308   2.189   3.311   1.560  1.6330 -0.7514  0.1468
 9939TIP3    H251309   2.146   3.178   1.503 -0.2995 -0.2236  0.3310
 9940TIP3   OH251310   2.763   0.069  13.028  0.1023 -0.3528 -0.2913
 9940TIP3    H151311   2.789   0.070  12.936 -0.4408 -2.1371 -0.4959
 9940TIP3    H251312   2.834   0.113  13.074  1.1727 -0.8949 -1.3858
 9941TIP3   OH251313   6.019   4.338   0.273 -0.7413  0.5116  0.1421
 9941TIP3    H151314   6.050   4.428   0.259  1.1048 -0.1693 -0.2480
 9941TIP3    H251315   6.061   4.311   0.355 -2.3044  0.4272  0.9368
 9942TIP3   OH251316   5.395   0.500  17.234  0.0570  0.2308  0.5353
 9942TIP3    H151317   5.477   0.476  17.192 -0.0484  0.2354  0.3302
 9942TIP3    H251318   5.332   0.510  17.162 -0.4037 -0.8612  0.7783
 9943TIP3   OH251319   5.030   0.169   4.984 -0.1117 -0.1074  0.6249
 9943TIP3    H151320   4.968   0.214   4.925  0.0605  0.4005  0.8258
 9943TIP3    H251321   5.115   0.208   4.963 -0.1517  0.5791  1.7017
 9944TIP3   OH251322   4.475   5.916   3.548  0.4797  0.1713  0.0052
 9944TIP3    H151323   4.388   5.886   3.574 -0.1808  0.1391 -2.1239
 9944TIP3    H251324   4.467   6.011   3.540  0.6786  0.1812 -0.0985
 9945TIP3   OH251325   1.319   3.264  15.215 -0.1919 -0.3613 -0.1220
 9945TIP3    H151326   1.311   3.242  15.122 -0.3320  1.0175 -0.4539
 9945TIP3    H251327   1.261   3.203  15.259 -0.0800 -1.0674 -0.9418
 9946TIP3   OH251328   6.094   0.802  11.390 -0.4533 -1.0261  0.0769
 9946TIP3    H151329   6.174   0.791  11.441 -0.3297  1.1866  0.3994
 9946TIP3    H251330   6.124   0.815  11.300 -0.5573 -2.2850 -0.1474
 9947TIP3   OH251331   3.987   6.299   5.822  0.4649  0.1437  0.1921
 9947TIP3    H151332   3.974   6.212   5.861 -1.0352  0.7197  1.0460
 9947TIP3    H251333   3.906   6.317   5.775  1.4291  0.3832 -1.4076
 9948TIP3   OH251334   4.553   6.710   3.583 -0.3001  0.0554 -0.2562
 9948TIP3    H151335   4.592   6.796   3.565  3.6124 -1.5097  0.0604
 9948TIP3    H251336   4.520   6.718   3.673  0.3249  1.1640 -0.0987
 9949TIP3   OH251337   4.884   0.050   2.939  0.1735  0.9947 -0.6561
 9949TIP3    H151338   4.849  -0.018   2.996 -1.2151  0.9947 -1.4800
 9949TIP3    H251339   4.973   0.066   2.972 -0.0445 -0.1058  0.5047
 9950TIP3   OH251340   0.734   3.278  10.666  0.2366 -0.0649  0.3387
 9950TIP3    H151341   0.665   3.234  10.616  0.0377 -0.9440  1.3627
 9950TIP3    H251342   0.697   3.364  10.687  0.3534  0.3370 -1.0763
 9951TIP3   OH251343   3.007   2.165  14.092 -0.1335  0.2361 -0.0376
 9951TIP3    H151344   3.034   2.252  14.065 -3.3857  1.2909 -0.1860
 9951TIP3    H251345   2.911   2.169  14.092 -0.3331 -2.2414  3.4539
 9952TIP3   OH251346   2.286   3.860  15.716 -0.4471 -0.0091  0.3394
 9952TIP3    H151347   2.202   3.872  15.671 -0.4600 -2.9306 -0.5563
 9952TIP3    H251348   2.319   3.948  15.730 -2.8180  1.1355 -0.9288
 9953TIP3   OH251349   0.311   2.293  14.519 -0.5516 -0.1845 -0.4499
 9953TIP3    H151350   0.405   2.297  14.536 -0.6884 -0.1768  0.3333
 9953TIP3    H251351   0.296   2.204  14.488 -0.1755  0.0362 -1.2719
 9954TIP3   OH251352   5.915   6.068  12.284  0.0584 -0.6804  0.1075
 9954TIP3    H151353   5.878   6.011  12.351 -1.2018  1.2975  1.1547
 9954TIP3    H251354   6.008   6.074  12.307 -0.3252 -0.1672  1.5985
 9955TIP3   OH251355   4.779   2.179   1.505  0.0422 -0.3664  0.0239
 9955TIP3    H151356   4.699   2.225   1.480 -0.2588 -0.6479  0.4632
 9955TIP3    H251357   4.843   2.203   1.437 -0.5269 -0.4633 -0.5513
 9956TIP3   OH251358   4.446   2.747  15.557  0.3318  0.2007  0.0842
 9956TIP3    H151359   4.352   2.748  15.576 -0.2050  0.2036 -2.3820
 9956TIP3    H251360   4.473   2.657  15.573 -0.6218 -0.3882 -1.5080
 9957TIP3   OH251361   2.425   5.026  14.883  0.0330 -0.1863 -0.0481
 9957TIP3    H151362   2.379   5.049  14.803  0.4253  1.0849  0.0877
 9957TIP3    H251363   2.412   5.101  14.941  1.1389 -0.3963  0.4804
 9958TIP3   OH251364   0.564   1.243  11.485  0.0357  0.5391  0.1184
 9958TIP3    H151365   0.559   1.287  11.570 -0.7864 -0.1016  0.4107
 9958TIP3    H251366   0.654   1.258  11.455 -0.1313  2.1445  0.3545
 9959TIP3   OH251367   5.948   3.541  16.217  0.1250 -0.1992 -0.1897
 9959TIP3    H151368   6.041   3.522  16.221  0.1250 -0.4259 -1.2313
 9959TIP3    H251369   5.938   3.601  16.142 -0.8800 -2.1060 -1.6248
 9960TIP3   OH251370   3.778   3.326   0.242 -0.8410 -0.2208  0.2062
 9960TIP3    H151371   3.860   3.295   0.203 -0.4837 -1.0844  1.6222
 9960TIP3    H251372   3.786   3.421   0.240 -0.4808 -0.2676 -1.0965
 9961TIP3   OH251373   5.509   3.234  13.733 -0.4166  0.0491  0.0444
 9961TIP3    H151374   5.418   3.254  13.710 -0.8999 -1.5799  0.4454
 9961TIP3    H251375   5.524   3.147  13.697 -0.1468 -1.1754  3.0141
 9962TIP3   OH251376   3.315   0.048  16.220 -0.6464  0.1378 -0.0899
 9962TIP3    H151377   3.227   0.071  16.192  0.2364  1.6775 -1.7165
 9962TIP3    H251378   3.371   0.116  16.182  1.4234 -1.6881 -0.4050
 9963TIP3   OH251379   6.400   5.425  11.239 -0.2398  0.5464  0.3430
 9963TIP3    H151380   6.428   5.491  11.302 -1.7137  1.4892  0.0468
 9963TIP3    H251381   6.331   5.376  11.284 -1.4080  1.3207 -0.5594
 9964TIP3   OH251382   4.930   6.115  17.257  0.0370  0.4063 -0.1399
 9964TIP3    H151383   4.988   6.038  17.254  0.2626  0.6425 -2.1183
 9964TIP3    H251384   4.842   6.079  17.245 -0.1952  0.1203  2.2080
 9965TIP3   OH251385   3.604   1.692  14.768 -0.1290 -0.0044 -0.2213
 9965TIP3    H151386   3.614   1.650  14.853 -1.4774  0.3837  0.1488
 9965TIP3    H251387   3.509   1.703  14.758  0.0420  0.3253 -1.5873
 9966TIP3   OH251388   5.950   6.170   1.448  0.1721  0.1665  0.3047
 9966TIP3    H151389   5.859   6.142   1.460 -0.0174  0.3967 -0.5355
 9966TIP3    H251390   5.997   6.088   1.432 -0.5230  0.3194 -2.9991
 9967TIP3   OH251391   4.022   3.219   1.967 -0.4518  0.3030  0.5928
 9967TIP3    H151392   4.113   3.191   1.955 -0.8373 -1.1234  0.8276
 9967TIP3    H251393   4.028   3.312   1.987  0.9043  0.3886 -0.1329
 9968TIP3   OH251394   5.941   0.813   3.967 -0.5150  0.6802  0.0688
 9968TIP3    H151395   5.981   0.745   3.914 -1.8084  0.6672 -0.8876
 9968TIP3    H251396   6.013   0.873   3.986  0.1769  0.1467 -0.8365
 9969TIP3   OH251397   5.560   1.124   5.202  0.2595 -0.1248  0.2862
 9969TIP3    H151398   5.558   1.030   5.183 -1.2974 -0.3455  1.3656
 9969TIP3    H251399   5.635   1.135   5.261  0.3048 -0.7401  0.3492
 9970TIP3   OH251400   0.748   1.596   2.113 -0.3965  0.4988 -0.2369
 9970TIP3    H151401   0.829   1.564   2.151 -1.1238 -0.1458  0.8043
 9970TIP3    H251402   0.712   1.654   2.181 -0.0518  2.0129 -1.3132
 9971TIP3   OH251403   3.452   6.181  11.822  0.4879  0.3532 -0.3026
 9971TIP3    H151404   3.412   6.094  11.823 -1.2001  1.1154  0.5873
 9971TIP3    H251405   3.382   6.240  11.850  2.2965  1.7074  1.5525
 9972TIP3   OH251406   0.765   2.182  13.153  0.7154 -0.1709 -1.0233
 9972TIP3    H151407   0.817   2.108  13.124 -0.0469 -0.9050 -0.5287
 9972TIP3    H251408   0.819   2.223  13.221  1.0305 -0.4099 -1.1279
 9973TIP3   OH251409   1.317   3.311   5.384  0.6496 -0.6886 -0.2925
 9973TIP3    H151410   1.346   3.237   5.331 -1.3350  0.1563 -2.7111
 9973TIP3    H251411   1.264   3.272   5.453  0.7508 -1.6216 -0.7347
 9974TIP3   OH251412   1.751   4.262   2.201 -0.2166 -0.0101 -0.0042
 9974TIP3    H151413   1.703   4.330   2.248 -0.9281 -0.9266  0.6006
 9974TIP3    H251414   1.695   4.185   2.205  2.2003 -1.7302  2.5659
 9975TIP3   OH251415   5.201   2.703   2.254 -0.5925  1.1617 -0.5176
 9975TIP3    H151416   5.202   2.758   2.176 -0.3832 -0.4153 -1.6635
 9975TIP3    H251417   5.159   2.622   2.225 -0.8456  0.6872  1.1200
 9976TIP3   OH251418   2.271   1.841  12.421 -0.1328 -0.6839 -0.3086
 9976TIP3    H151419   2.254   1.931  12.394 -1.1614 -0.5434  0.7463
 9976TIP3    H251420   2.260   1.790  12.341  2.7603  0.3605 -1.4128
 9977TIP3   OH251421   2.981   1.270  13.124 -0.3589 -0.0837 -0.6824
 9977TIP3    H151422   3.000   1.176  13.124  0.6074  0.1104 -0.4071
 9977TIP3    H251423   3.044   1.307  13.186 -0.3129  0.8338 -1.2686
 9978TIP3   OH251424   2.845   4.590   1.182  0.7992 -0.0016 -0.5967
 9978TIP3    H151425   2.926   4.614   1.227  0.1692 -0.6731  0.9468
 9978TIP3    H251426   2.780   4.584   1.251 -0.1207 -1.4340 -1.5533
 9979TIP3   OH251427   4.137   0.275  14.075 -0.5386 -1.0441 -0.0898
 9979TIP3    H151428   4.200   0.311  14.138 -1.1912 -1.0725  0.5860
 9979TIP3    H251429   4.162   0.313  13.991 -1.0791  0.8016  0.5715
 9980TIP3   OH251430   1.857   5.437   5.093  0.1118 -0.1885 -0.3422
 9980TIP3    H151431   1.849   5.389   5.176 -1.8267  0.2979 -0.2349
 9980TIP3    H251432   1.825   5.377   5.027 -1.2307  0.5355 -0.3532
 9981TIP3   OH251433   0.784   6.619   4.366  0.4409 -0.5434  0.3680
 9981TIP3    H151434   0.757   6.630   4.457 -1.4393 -1.5569 -0.0478
 9981TIP3    H251435   0.800   6.526   4.356  3.1133 -0.1149  0.2988
 9982TIP3   OH251436   6.500   3.220   1.960  0.2890  0.4263  0.2000
 9982TIP3    H151437   6.454   3.145   1.997  1.1779 -0.3711 -0.3107
 9982TIP3    H251438   6.545   3.259   2.035  1.8718 -1.0368  0.0445
 9983TIP3   OH251439   4.933   3.101  13.977  0.6520  0.1117  0.3829
 9983TIP3    H151440   5.020   3.105  13.937  0.9371  0.5671  1.0409
 9983TIP3    H251441   4.878   3.061  13.910  1.4385 -0.4962  0.0862
 9984TIP3   OH251442   5.784   3.340  12.726 -0.1151  0.3046 -0.2735
 9984TIP3    H151443   5.847   3.348  12.798  1.1645  1.6893 -1.4956
 9984TIP3    H251444   5.716   3.404  12.747 -0.3886 -0.1747  0.3227
 9985TIP3   OH251445   1.105   5.329  11.004  0.3588 -0.3638  0.1028
 9985TIP3    H151446   1.031   5.295  10.955 -0.4314  1.3855  0.0552
 9985TIP3    H251447   1.083   5.421  11.021  2.5308  0.2033  0.0218
 9986TIP3   OH251448   2.406   4.742   5.260 -0.1255 -0.0816  0.2722
 9986TIP3    H151449   2.363   4.792   5.329  2.4258  3.1458 -0.3739
 9986TIP3    H251450   2.339   4.731   5.192 -0.6987  2.6635  0.3519
 9987TIP3   OH251451   2.768   2.650   3.936  0.4508  0.2988 -0.0377
 9987TIP3    H151452   2.744   2.732   3.894  1.1494  1.0393  0.9965
 9987TIP3    H251453   2.796   2.593   3.864 -0.0285  0.9620 -0.7506
 9988TIP3   OH251454   4.610   5.679   4.278 -0.5973 -0.2754 -0.2066
 9988TIP3    H151455   4.666   5.683   4.355 -0.6100 -1.3788 -0.1243
 9988TIP3    H251456   4.589   5.770   4.257  2.8950  0.3038 -1.4557
 9989TIP3   OH251457   1.083   1.783   5.563  0.8348 -0.1097 -0.2516
 9989TIP3    H151458   1.115   1.866   5.528  1.4908 -0.5519 -0.7017
 9989TIP3    H251459   1.158   1.724   5.557  0.4250 -0.6825  0.2515
 9990TIP3   OH251460   2.151   0.542   2.397  0.1207 -0.6235  0.6822
 9990TIP3    H151461   2.129   0.599   2.323 -1.6920 -2.3517 -0.1639
 9990TIP3    H251462   2.066   0.512   2.429  0.9966 -1.5860  2.1358
 9991TIP3   OH251463   4.110   0.325   3.827  0.0673 -0.2037  0.3605
 9991TIP3    H151464   4.018   0.336   3.805 -0.3650  0.2663  2.2720
 9991TIP3    H251465   4.150   0.410   3.811  0.0172 -0.2010  0.2512
 9992TIP3   OH251466   3.076   5.789   1.180 -0.9043 -0.5442  0.3035
 9992TIP3    H151467   3.135   5.821   1.248 -1.1961 -0.4923  0.5330
 9992TIP3    H251468   3.134   5.754   1.112 -0.5722  0.9857 -0.2055
 9993TIP3   OH251469   3.608   6.154  16.233 -0.2420  0.1157  0.0982
 9993TIP3    H151470   3.589   6.139  16.325 -0.3502  0.7246  0.1766
 9993TIP3    H251471   3.604   6.249  16.223  1.5983  0.1735 -0.1398
 9994TIP3   OH251472   4.282   5.062  15.769 -0.0800 -0.2127  0.2241
 9994TIP3    H151473   4.197   5.031  15.802  0.0567 -2.9686 -1.7594
 9994TIP3    H251474   4.340   5.058  15.845 -1.3915  0.2949  1.2706
 9995TIP3   OH251475   3.941   3.198   4.105  0.2980 -0.3098 -0.3027
 9995TIP3    H151476   3.953   3.290   4.130 -1.1215  0.3182 -1.8741
 9995TIP3    H251477   3.883   3.163   4.172  1.8538 -0.4405  1.0345
 9996TIP3   OH251478   0.142   2.346  14.305 -0.2138  0.6672  0.1038
 9996TIP3    H151479   0.089   2.415  14.345 -1.2411  0.2173 -0.4634
 9996TIP3    H251480   0.108   2.265  14.343  1.5223  0.5189  1.3724
 9997TIP3   OH251481   1.581   5.198  14.218  0.0046 -0.0253 -0.5879
 9997TIP3    H151482   1.487   5.214  14.215  0.2207  1.1936 -1.2695
 9997TIP3    H251483   1.620   5.284  14.204  1.2249 -0.4616  0.0621
 9998TIP3   OH251484   2.091   6.743   5.028  0.0732  0.2445 -0.7077
 9998TIP3    H151485   2.161   6.714   4.970 -1.5055 -1.3960 -1.8586
 9998TIP3    H251486   2.091   6.680   5.100 -0.8119 -0.3350 -1.2014
 9999TIP3   OH251487   0.989   5.940  11.096 -0.2203  0.8999  0.4684
 9999TIP3    H151488   0.930   5.984  11.035 -1.2639 -0.7310  0.2868
 9999TIP3    H251489   1.073   5.983  11.083 -0.5082  0.7798 -1.9119
10000TIP3   OH251490   2.722   0.665   2.316 -0.3185 -0.4271 -0.5554
10000TIP3    H151491   2.770   0.642   2.237 -1.4407 -0.7492 -1.1483
10000TIP3    H251492   2.707   0.581   2.361  0.9269 -0.1728  0.3606
10001TIP3   OH251493   3.342   1.061   5.688  0.5321 -0.2554  0.3024
10001TIP3    H151494   3.269   1.007   5.656  1.3836  0.1994 -2.5317
10001TIP3    H251495   3.405   0.997   5.722  1.1378 -1.0755 -2.2013
10002TIP3   OH251496   1.177   3.733  13.214  0.5723 -0.3971 -0.1739
10002TIP3    H151497   1.224   3.799  13.164 -0.7100  0.4822 -0.2681
10002TIP3    H251498   1.106   3.782  13.256 -0.2865 -1.6909 -0.0968
10003TIP3   OH251499   2.618   0.312   4.107 -0.0905  0.3083 -0.4428
10003TIP3    H151500   2.544   0.373   4.114 -1.4013 -1.2320 -0.3620
10003TIP3    H251501   2.654   0.328   4.020 -1.5543 -0.0226 -1.1348
10004TIP3   OH251502   0.507   5.071   6.065 -0.0464 -0.0054 -0.5248
10004TIP3    H151503   0.595   5.071   6.102  0.1790  0.5049 -1.0508
10004TIP3    H251504   0.477   5.161   6.075 -0.0608  0.0892 -1.3925
10005TIP3   OH251505   0.215   0.480  13.205  0.7505 -0.4670 -1.0975
10005TIP3    H151506   0.212   0.385  13.204  0.4369 -0.4521 -1.9838
10005TIP3    H251507   0.125   0.507  13.187 -0.1086  0.0089  3.3310
10006TIP3   OH251508   6.074   2.420   4.125 -0.0988  0.3650  0.0492
10006TIP3    H151509   6.126   2.346   4.095  1.9349  0.3511  3.3414
10006TIP3    H251510   6.133   2.495   4.119 -0.4619  0.7926  1.5415
10007TIP3   OH251511   0.565   1.332  14.021  0.0740 -0.4832  0.6227
10007TIP3    H151512   0.655   1.361  14.037  0.6490 -1.6252 -0.4920
10007TIP3    H251513   0.572   1.271  13.948 -1.6183 -0.5588  0.5106
10008TIP3   OH251514   5.656   2.112  14.011 -0.5681 -0.2966  0.2594
10008TIP3    H151515   5.574   2.145  13.974 -0.9492  0.8786  2.1007
10008TIP3    H251516   5.704   2.078  13.936 -1.1931  2.2736 -1.3723
10009TIP3   OH251517   4.232   4.789  16.666  0.0801  0.5937  0.1044
10009TIP3    H151518   4.296   4.805  16.597  1.1586 -0.0017  0.9461
10009TIP3    H251519   4.172   4.864  16.661  0.9721  1.2749 -0.5451
10010TIP3   OH251520   3.254   3.470   1.348 -0.1822  0.2164 -0.6266
10010TIP3    H151521   3.307   3.395   1.322 -1.2257 -0.1331 -1.8365
10010TIP3    H251522   3.198   3.437   1.418 -0.3758 -0.0496 -0.9007
10011TIP3   OH251523   4.827   5.382   5.908  0.3025 -0.5283  0.1641
10011TIP3    H151524   4.818   5.428   5.825  0.9395 -2.1853 -0.8517
10011TIP3    H251525   4.814   5.449   5.975 -1.0990  0.6417 -1.2692
10012TIP3   OH251526   1.896   2.256  10.811  0.1414  0.7602  0.3583
10012TIP3    H151527   1.987   2.229  10.823  0.4285  1.2866 -0.5500
10012TIP3    H251528   1.847   2.174  10.809  0.7198  0.4147 -0.0919
10013TIP3   OH251529   5.055   4.390  14.744  0.1953  0.2702 -0.0076
10013TIP3    H151530   5.091   4.475  14.717  1.6303  0.1834  1.5463
10013TIP3    H251531   5.132   4.337  14.765 -0.6585 -1.5537 -1.2617
10014TIP3   OH251532   0.446   6.080  11.474  0.5397 -0.4503 -0.5557
10014TIP3    H151533   0.402   6.155  11.434  0.9723  1.1614  1.8683
10014TIP3    H251534   0.539   6.092  11.452  0.9454  1.0857  1.8101
10015TIP3   OH251535   4.707   5.024  13.669  1.0909 -0.0584 -0.1320
10015TIP3    H151536   4.770   5.057  13.605 -1.2845  0.5830 -2.2136
10015TIP3    H251537   4.712   4.929  13.660  0.3042  0.0416 -1.7707
10016TIP3   OH251538   1.390   2.817   5.146  0.6526  0.1116 -0.7752
10016TIP3    H151539   1.310   2.777   5.112 -1.3286  2.5366  0.9099
10016TIP3    H251540   1.412   2.884   5.082  0.3283  0.6239 -0.3538
10017TIP3   OH251541   0.584   3.338   3.673  0.2212 -0.0557  0.1644
10017TIP3    H151542   0.568   3.403   3.741  1.8309  0.5359  0.0168
10017TIP3    H251543   0.623   3.263   3.719 -0.1117 -0.2665  0.1064
10018TIP3   OH251544   1.154   1.661  17.196  0.2247 -0.0075 -0.3603
10018TIP3    H151545   1.094   1.633  17.264  1.5859  1.7876  1.6413
10018TIP3    H251546   1.218   1.591  17.189  0.2286 -0.0827  0.4088
10019TIP3   OH251547   0.210   5.785  11.213  0.0932  0.1200  0.1532
10019TIP3    H151548   0.194   5.877  11.192  0.1647  0.0833 -0.0614
10019TIP3    H251549   0.260   5.788  11.295 -0.1402  0.2617  0.2943
10020TIP3   OH251550   6.504   5.817  17.258  0.1391  0.0738 -0.1328
10020TIP3    H151551   6.413   5.818  17.288 -0.0035 -1.2053 -0.4820
10020TIP3    H251552   6.497   5.803  17.163  0.7001  0.1215 -0.1784
10021TIP3   OH251553   1.276   6.070  10.812  0.6754  0.6456 -0.2720
10021TIP3    H151554   1.203   6.078  10.750  0.3036  1.8986  0.3214
10021TIP3    H251555   1.354   6.076  10.757  0.3426  0.8345 -0.7259
10022TIP3   OH251556   1.575   5.741   3.900 -0.1103 -0.0545  0.3929
10022TIP3    H151557   1.544   5.665   3.948 -1.1218 -0.9409 -1.6115
10022TIP3    H251558   1.605   5.706   3.816  0.5343  1.6033 -0.0939
10023TIP3   OH251559   4.254   5.330  15.298  0.9395  0.1850  0.2378
10023TIP3    H151560   4.335   5.363  15.337 -0.4803  1.8489  1.8600
10023TIP3    H251561   4.186   5.349  15.363 -0.9169 -0.2585 -1.5152
10024TIP3   OH251562   0.997   1.359  13.100  0.1090 -0.0505  0.2463
10024TIP3    H151563   0.983   1.422  13.029 -0.1520 -0.4049 -0.0207
10024TIP3    H251564   1.083   1.320  13.080  0.2400  0.1731  0.3745
10025TIP3   OH251565   0.762   5.856  13.321  0.4762 -0.2195  0.1339
10025TIP3    H151566   0.767   5.937  13.271 -3.0789  0.5853  0.9733
10025TIP3    H251567   0.817   5.872  13.398  0.7961  0.8955 -0.3191
10026TIP3   OH251568   2.112   2.104  16.025 -0.2591  0.0393 -0.0763
10026TIP3    H151569   2.097   2.036  16.092  1.2743 -0.3408 -0.0957
10026TIP3    H251570   2.034   2.159  16.030 -1.5172 -1.6900 -0.0255
10027TIP3   OH251571   4.488   3.895  15.366  0.4103  0.2254 -0.8918
10027TIP3    H151572   4.437   3.839  15.308 -1.0997  0.2887  0.3686
10027TIP3    H251573   4.467   3.865  15.454 -1.0156  3.2651 -0.1432
10028TIP3   OH251574   1.899   0.748   4.701 -0.0861 -0.0355 -0.0559
10028TIP3    H151575   1.958   0.823   4.712  0.1560 -0.6448  3.3941
10028TIP3    H251576   1.899   0.705   4.787 -3.8604 -1.3136 -0.5921
10029TIP3   OH251577   3.844   4.293  16.272  0.0293 -0.2381 -0.0528
10029TIP3    H151578   3.794   4.346  16.209 -0.7738 -0.7670  0.1462
10029TIP3    H251579   3.891   4.358  16.325 -2.3831  0.3873  1.3960
10030TIP3   OH251580   2.828   4.708  14.140  0.1212  0.3646  0.0674
10030TIP3    H151581   2.867   4.790  14.170 -0.3856  0.6056  0.0729
10030TIP3    H251582   2.899   4.662  14.096  0.6535  0.3819  0.8970
10031TIP3   OH251583   6.513   5.905   2.498 -0.5616 -0.2851 -0.0704
10031TIP3    H151584   6.515   5.930   2.406 -2.3395  0.3749  0.0441
10031TIP3    H251585   6.528   5.987   2.546 -1.3223 -0.3129  0.2330
10032TIP3   OH251586   3.254   6.678   4.020  0.8896 -0.3235  0.0686
10032TIP3    H151587   3.273   6.638   3.936 -1.0209  0.4886 -0.7717
10032TIP3    H251588   3.226   6.605   4.076 -1.7879 -0.3319 -1.2146
10033TIP3   OH251589   4.717   2.283   3.061  0.2350  0.3053  0.0259
10033TIP3    H151590   4.707   2.370   3.099 -0.5728  0.4546 -0.5096
10033TIP3    H251591   4.641   2.273   3.004  0.1125 -0.9009  0.3752
10034TIP3   OH251592   6.366   1.601   0.833 -0.3655  0.6381  0.1137
10034TIP3    H151593   6.423   1.588   0.757 -0.3825 -0.8801  0.3465
10034TIP3    H251594   6.408   1.552   0.904 -1.6864 -0.1153  0.4065
10035TIP3   OH251595   5.545   0.295  13.911 -0.5391  0.2505  0.7593
10035TIP3    H151596   5.574   0.206  13.932  1.2903  0.3075 -1.4081
10035TIP3    H251597   5.541   0.339  13.996 -1.3547 -1.8431  1.8523
10036TIP3   OH251598   5.743   4.105  15.866  0.2579  0.1195 -0.7750
10036TIP3    H151599   5.709   4.154  15.941  0.5438 -0.5393 -0.2143
10036TIP3    H251600   5.830   4.142  15.850  0.9280 -0.9670  0.3503
10037TIP3   OH251601   3.079   4.601  16.263 -0.0823  0.7673 -0.3659
10037TIP3    H151602   3.138   4.643  16.201  0.4282  0.6904  0.0575
10037TIP3    H251603   2.993   4.635  16.241  0.2484  1.6084 -0.3943
10038TIP3   OH251604   2.204   3.130  11.274  0.5624  0.4195 -0.6644
10038TIP3    H151605   2.185   3.153  11.183  1.5088  0.5109 -0.8466
10038TIP3    H251606   2.194   3.035  11.278 -1.7627  0.6643 -0.2994
10039TIP3   OH251607   5.486   4.721   0.412 -0.5577  0.3350  0.3016
10039TIP3    H151608   5.438   4.710   0.494 -0.1629 -0.1393  0.4734
10039TIP3    H251609   5.578   4.724   0.439 -0.3817 -0.5331 -0.1960
10040TIP3   OH251610   5.583   1.561   3.227 -0.2454  0.1643  0.0992
10040TIP3    H151611   5.675   1.587   3.230 -0.0078 -0.5213 -0.9001
10040TIP3    H251612   5.555   1.583   3.138 -1.3282  1.2791  0.7091
10041TIP3   OH251613   0.195   5.407   6.389 -0.0035  0.3071  0.4978
10041TIP3    H151614   0.279   5.452   6.394 -0.0288  0.6276 -1.6019
10041TIP3    H251615   0.130   5.475   6.406  0.1028  0.3646  0.6683
10042TIP3   OH251616   5.943   2.371  16.874 -0.1577  0.1745  0.1846
10042TIP3    H151617   5.874   2.424  16.833 -1.4632 -1.0476  0.7360
10042TIP3    H251618   5.937   2.392  16.967 -0.9078 -1.1343  0.4567
10043TIP3   OH251619   0.792   1.162   0.518 -0.0187  0.6669 -0.1363
10043TIP3    H151620   0.756   1.109   0.589 -0.1714  3.2729  1.8074
10043TIP3    H251621   0.883   1.134   0.510 -0.3315 -0.4706  0.2637
10044TIP3   OH251622   2.665   4.760  12.030 -0.3167  0.2698  0.1723
10044TIP3    H151623   2.638   4.671  12.048 -2.2273  0.4986 -1.4721
10044TIP3    H251624   2.745   4.751  11.979 -1.7410 -0.5501 -1.9495
10045TIP3   OH251625   2.017   3.564  15.549  0.1866  0.2450  0.1708
10045TIP3    H151626   1.956   3.615  15.602 -0.2231  0.0454 -0.1075
10045TIP3    H251627   1.975   3.478  15.540 -0.3463  0.6716 -1.5478
10046TIP3   OH251628   4.614   1.266  13.818  0.0680  0.1289  0.4242
10046TIP3    H151629   4.626   1.271  13.913  1.4075  4.2895  0.1575
10046TIP3    H251630   4.539   1.323  13.800  0.3044 -0.0117 -1.1155
10047TIP3   OH251631   0.606   5.761   2.971 -0.1351  0.1962  0.5136
10047TIP3    H151632   0.584   5.848   3.004 -0.0505 -0.1280  1.4242
10047TIP3    H251633   0.641   5.714   3.047 -0.0412 -0.5844 -0.0062
10048TIP3   OH251634   6.580   2.706  17.173 -0.1662  0.1998  0.0808
10048TIP3    H151635   6.632   2.734  17.248  0.5941  1.3730 -0.8647
10048TIP3    H251636   6.515   2.776  17.162  1.1480  1.2023 -1.7136
10049TIP3   OH251637   0.380   3.019   1.805  0.4294  0.3046  0.0193
10049TIP3    H151638   0.455   2.968   1.835 -0.0544 -0.4906 -0.1050
10049TIP3    H251639   0.307   2.957   1.806  0.0564  0.7174 -1.1584
10050TIP3   OH251640   3.710   4.699  17.107 -0.1632  0.4123  0.8861
10050TIP3    H151641   3.683   4.608  17.095  0.9989  0.4004 -2.0366
10050TIP3    H251642   3.642   4.750  17.064  0.2510  0.8147  0.7043
10051TIP3   OH251643   5.145   5.828   1.039 -0.9219 -0.2518  0.3787
10051TIP3    H151644   5.199   5.863   1.111 -2.1001 -0.6349  1.4680
10051TIP3    H251645   5.134   5.902   0.980 -0.6210  0.3118  1.0159
10052TIP3   OH251646   0.997   5.079   5.270  0.0295 -0.0191 -0.4076
10052TIP3    H151647   0.943   4.999   5.270 -1.3292  0.8862 -0.5890
10052TIP3    H251648   1.056   5.067   5.196 -0.6316 -0.5576 -0.8580
10053TIP3   OH251649   2.827   0.560   2.085  0.5265  0.5080 -0.3518
10053TIP3    H151650   2.778   0.589   2.008  0.6456  1.6762  0.0060
10053TIP3    H251651   2.790   0.474   2.106 -2.2607  1.8743  0.6399
10054TIP3   OH251652   4.337   4.069   1.674 -0.3058  0.5875 -0.0615
10054TIP3    H151653   4.279   4.127   1.723  2.2010  0.9469  2.6250
10054TIP3    H251654   4.422   4.113   1.677  1.7359 -3.2164  2.2861
10055TIP3   OH251655   0.739   5.653  10.697 -0.4329  0.7120 -0.9103
10055TIP3    H151656   0.676   5.626  10.630  0.0941 -0.3616 -0.9849
10055TIP3    H251657   0.802   5.581  10.701  0.8109  1.7926 -0.8572
10056TIP3   OH251658   6.088   0.488  14.536  0.4693  0.3939 -0.5863
10056TIP3    H151659   6.095   0.562  14.595  0.4848 -0.8705  1.0436
10056TIP3    H251660   6.157   0.428  14.565 -1.2135 -1.3926 -0.1626
10057TIP3   OH251661   6.598   4.258   0.309 -0.8188 -0.2432  0.3686
10057TIP3    H151662   6.531   4.307   0.260 -0.0825  0.1347 -0.2584
10057TIP3    H251663   6.644   4.207   0.243  1.4252  1.6885  0.3705
10058TIP3   OH251664   6.412   2.773   6.687 -0.1274 -0.4394 -0.2269
10058TIP3    H151665   6.438   2.746   6.599 -0.2332  0.0544 -0.4110
10058TIP3    H251666   6.354   2.847   6.673  3.1545  2.4013  0.3872
10059TIP3   OH251667   4.060   2.989   0.496  0.4935 -0.0595  0.4383
10059TIP3    H151668   4.117   3.050   0.450  0.2041 -0.4101 -0.3995
10059TIP3    H251669   4.108   2.906   0.494  0.1318 -0.2628  0.0714
10060TIP3   OH251670   3.617   2.210  13.593 -0.3125 -1.2382  0.0376
10060TIP3    H151671   3.533   2.185  13.555  0.0689 -0.9812 -0.9958
10060TIP3    H251672   3.602   2.209  13.687 -1.8670  0.1284 -0.1671
10061TIP3   OH251673   1.742   0.032  12.630  0.2069 -0.0437 -0.5495
10061TIP3    H151674   1.795   0.104  12.663 -1.5952  0.6117  1.0496
10061TIP3    H251675   1.801  -0.044  12.630  1.0030  0.5349  1.7495
10062TIP3   OH251676   5.386   0.846  14.712 -0.3766 -0.3063 -0.0122
10062TIP3    H151677   5.382   0.754  14.738 -0.5249  0.0469  1.2530
10062TIP3    H251678   5.325   0.890  14.772  0.4493  0.7632  0.0459
10063TIP3   OH251679   6.457   1.360  11.542 -0.0038  0.1007 -0.3916
10063TIP3    H151680   6.507   1.439  11.560  0.6206 -0.3874  0.0666
10063TIP3    H251681   6.513   1.309  11.483  0.0641 -0.4680  0.1568
10064TIP3   OH251682   6.188   2.727  13.881 -0.1717  0.1191  0.1136
10064TIP3    H151683   6.179   2.639  13.917 -2.7821 -0.3608 -1.5674
10064TIP3    H251684   6.242   2.716  13.803  0.6099  0.2393  0.6290
10065TIP3   OH251685   4.843   2.032  15.622 -0.6577 -0.2404  0.2379
10065TIP3    H151686   4.822   1.977  15.698  1.9676 -1.4321  0.1564
10065TIP3    H251687   4.819   1.978  15.546 -2.2720  0.5271  0.1834
10066TIP3   OH251688   1.259   0.782  16.027 -0.2891  0.6203  0.0071
10066TIP3    H151689   1.253   0.851  15.961 -2.0252  0.4765 -0.0200
10066TIP3    H251690   1.168   0.754  16.040  0.3116 -1.1619  0.5377
10067TIP3   OH251691   1.265   6.770   2.086  0.2566  0.1723  0.7027
10067TIP3    H151692   1.192   6.758   2.025 -1.0937  1.1702  2.0805
10067TIP3    H251693   1.257   6.697   2.147  1.6183 -0.8358 -0.2796
10068TIP3   OH251694   0.063   0.189   5.654  0.2288 -0.4383 -0.4282
10068TIP3    H151695   0.054   0.270   5.603  1.9459 -0.7108 -1.1996
10068TIP3    H251696   0.098   0.125   5.592  0.1711 -1.4078  0.5211
10069TIP3   OH251697   3.789   2.031   5.383  0.0983  0.3109 -0.3929
10069TIP3    H151698   3.834   2.079   5.452 -1.6693  0.4857  0.6755
10069TIP3    H251699   3.855   2.017   5.315  1.3484  1.8098  0.5049
10070TIP3   OH251700   5.442   2.439  12.893 -0.4737  0.0180 -0.1117
10070TIP3    H151701   5.465   2.504  12.959  0.3793  0.8020 -1.1689
10070TIP3    H251702   5.374   2.481  12.840  0.4972  0.3076 -1.1639
10071TIP3   OH251703   0.435   0.247  15.149  0.0755  0.1044  0.4481
10071TIP3    H151704   0.449   0.277  15.059 -1.0946  0.5857  0.4264
10071TIP3    H251705   0.443   0.151  15.144  1.2138  0.2128  0.0544
10072TIP3   OH251706   0.066   0.248   5.941 -0.1492  0.2728  0.1448
10072TIP3    H151707   0.009   0.194   5.887 -0.3670 -0.9265  1.5240
10072TIP3    H251708   0.152   0.242   5.900  0.0514 -1.9694  0.8319
10073TIP3   OH251709   3.946   1.165  12.527 -0.1536 -0.1938 -0.8703
10073TIP3    H151710   3.942   1.195  12.436  0.7115  1.3582 -0.4232
10073TIP3    H251711   3.859   1.130  12.545 -0.8929  1.1517 -1.7440
10074TIP3   OH251712   4.587   6.080  13.386 -0.5018  0.4504  0.3095
10074TIP3    H151713   4.606   6.084  13.479 -0.1181  0.8613  0.2160
10074TIP3    H251714   4.492   6.094  13.380 -0.4936  0.6525  0.6211
10075TIP3   OH251715   2.745   5.970  15.795  0.1042  0.3630 -0.8483
10075TIP3    H151716   2.771   6.034  15.862 -1.2824  0.2853 -0.2195
10075TIP3    H251717   2.710   5.896  15.844 -0.3457  0.0408 -1.6456
10076TIP3   OH251718   6.386   0.492  14.945 -0.1932  0.5013 -0.0115
10076TIP3    H151719   6.433   0.531  14.871 -1.2747  0.1718 -0.8861
10076TIP3    H251720   6.454   0.472  15.009  0.6591  1.5772 -0.5660
10077TIP3   OH251721   2.841   3.682  16.237 -0.7435  0.8291 -0.1032
10077TIP3    H151722   2.816   3.772  16.256 -0.4261  0.8723  0.1170
10077TIP3    H251723   2.812   3.633  16.314  1.1313  1.1073  0.8034
10078TIP3   OH251724   5.794   5.078  17.096 -0.4900 -0.0335 -0.0639
10078TIP3    H151725   5.761   4.995  17.130 -0.1252 -0.2924 -0.3416
10078TIP3    H251726   5.746   5.145  17.146  0.8663 -0.4006  1.8062
10079TIP3   OH251727   0.574   4.278  14.981 -0.1729 -0.3580 -0.1935
10079TIP3    H151728   0.484   4.295  14.951 -0.5220  0.0790  1.0606
10079TIP3    H251729   0.593   4.190  14.949 -0.6520 -0.0499 -1.3805
10080TIP3   OH251730   2.071   2.578   4.466 -0.2150  0.4013 -0.4170
10080TIP3    H151731   2.096   2.494   4.428 -0.0062  0.6391 -0.8110
10080TIP3    H251732   2.108   2.576   4.555  0.0635  0.2107 -0.5344
10081TIP3   OH251733   4.784   5.043  12.639  0.0642 -0.7387  0.6604
10081TIP3    H151734   4.774   5.046  12.734  0.2327 -2.2103  0.7321
10081TIP3    H251735   4.858   4.985  12.624  0.7566  0.3912 -0.3418
10082TIP3   OH251736   0.308   2.128   0.969 -0.2680 -0.1066  0.3209
10082TIP3    H151737   0.341   2.181   0.896  1.1188 -0.4551  0.6640
10082TIP3    H251738   0.336   2.039   0.947  1.6446  0.0177  2.0699
10083TIP3   OH251739   3.128   1.917  16.189  0.8905 -0.4191 -0.2323
10083TIP3    H151740   3.167   1.831  16.200  1.5825 -0.3546 -2.0725
10083TIP3    H251741   3.196   1.969  16.144 -0.4331  0.3594 -1.3739
10084TIP3   OH251742   2.039   1.810   4.387  0.6775  0.6812  0.1444
10084TIP3    H151743   2.063   1.767   4.304 -1.1378  1.3784 -0.7787
10084TIP3    H251744   2.041   1.739   4.451 -0.5297 -0.4361 -1.0130
10085TIP3   OH251745   6.463   3.683  10.679 -0.2961  0.3469  0.6551
10085TIP3    H151746   6.382   3.691  10.628 -0.0815 -0.9051  0.1070
10085TIP3    H251747   6.456   3.599  10.724  2.0764 -1.3222 -1.9215
10086TIP3   OH251748   3.385   4.351  14.749 -0.1153 -0.2838  0.0310
10086TIP3    H151749   3.406   4.259  14.734  1.1853 -0.0771  0.5729
10086TIP3    H251750   3.311   4.349  14.810 -1.7503 -1.0032 -1.8762
10087TIP3   OH251751   5.568   0.710   6.153 -0.6144  0.2377  0.2909
10087TIP3    H151752   5.566   0.623   6.193  1.6456  0.7643  1.5999
10087TIP3    H251753   5.504   0.761   6.204  0.0393  0.0680  1.3068
10088TIP3   OH251754   3.243   3.618  12.740  0.1900  0.2757  0.9895
10088TIP3    H151755   3.274   3.570  12.663 -0.7064 -0.8733  1.3430
10088TIP3    H251756   3.271   3.708  12.724  2.2074 -0.4057  0.4860
10089TIP3   OH251757   5.186   2.423   2.147  0.8610  0.2701 -0.6343
10089TIP3    H151758   5.209   2.395   2.235  0.6463 -1.8285 -1.2226
10089TIP3    H251759   5.249   2.379   2.090 -2.4202 -2.8866 -1.9802
10090TIP3   OH251760   6.548   4.154  15.340 -0.0348 -0.5603  0.1375
10090TIP3    H151761   6.536   4.063  15.366  0.2378 -0.1979  1.5866
10090TIP3    H251762   6.637   4.175  15.370 -1.4120  1.2607  3.1091
10091TIP3   OH251763   1.312   0.093   0.478 -0.2463 -0.2230  0.4427
10091TIP3    H151764   1.316   0.151   0.403  2.5597 -0.2480  0.5364
10091TIP3    H251765   1.249   0.134   0.537  1.2856  2.4551  0.2758
10092TIP3   OH251766   1.232   6.167   0.083 -0.2762  0.2603  0.1591
10092TIP3    H151767   1.189   6.089   0.117  0.3031  0.0326  0.3752
10092TIP3    H251768   1.169   6.204   0.021 -0.9629  0.1836  0.8110
10093TIP3   OH251769   2.083   2.612   1.949 -0.3742 -0.2871  0.3134
10093TIP3    H151770   2.135   2.579   1.875 -2.2160 -0.9700 -0.7179
10093TIP3    H251771   2.148   2.639   2.014  1.3096  1.0076 -1.8338
10094TIP3   OH251772   6.546   5.409   0.284 -0.8131  0.2291 -0.1468
10094TIP3    H151773   6.527   5.439   0.373  1.4664  1.8591 -0.1582
10094TIP3    H251774   6.478   5.449   0.230 -0.6963  1.3575  0.5197
10095TIP3   OH251775   1.991   2.808   4.967  0.0651  0.2923 -0.3538
10095TIP3    H151776   1.896   2.821   4.969 -0.1058 -0.7447 -1.1810
10095TIP3    H251777   2.019   2.821   5.058 -0.9667 -0.0739  0.0250
10096TIP3   OH251778   6.612   3.781  13.711  0.3429 -0.0982 -0.0398
10096TIP3    H151779   6.606   3.842  13.784 -0.1204 -1.2364  0.8793
10096TIP3    H251780   6.604   3.836  13.633  0.1960  1.0381  0.7711
10097TIP3   OH251781   5.893   1.848   0.557 -0.5955 -0.3738 -1.1583
10097TIP3    H151782   5.866   1.936   0.585 -1.8603 -0.9379 -0.5774
10097TIP3    H251783   5.940   1.863   0.474 -0.4806  0.8800 -0.8754
10098TIP3   OH251784   2.694   4.142  14.291  0.0385  0.0462 -0.2713
10098TIP3    H151785   2.610   4.111  14.257  0.7845 -0.3544 -1.8239
10098TIP3    H251786   2.691   4.124  14.385 -0.8692 -1.6558 -0.6199
10099TIP3   OH251787   5.488   4.337   4.455 -0.2309  0.0198 -0.3777
10099TIP3    H151788   5.485   4.259   4.400  1.0917 -0.2729 -0.0517
10099TIP3    H251789   5.563   4.387   4.422 -1.1747  1.2506 -0.7023
10100TIP3   OH251790   5.618   0.074   4.442  0.2663 -0.8164  0.5008
10100TIP3    H151791   5.626   0.167   4.421 -0.6364 -1.0411 -0.8383
10100TIP3    H251792   5.698   0.034   4.410  0.5173 -0.5566  0.8027
10101TIP3   OH251793   1.592   3.643  13.926 -0.6005 -0.1523 -0.1324
10101TIP3    H151794   1.522   3.610  13.981 -0.0791 -2.4750 -0.8403
10101TIP3    H251795   1.575   3.738  13.921 -3.1556 -0.5446  0.3949
10102TIP3   OH251796   3.147   3.000  15.548  0.7655  0.3159  0.2101
10102TIP3    H151797   3.100   2.928  15.506  0.2365  1.0586 -0.4938
10102TIP3    H251798   3.133   3.075  15.490  2.8672  0.5476 -0.0126
10103TIP3   OH251799   4.727   2.029   5.163 -0.1650  0.2226 -0.3293
10103TIP3    H151800   4.742   1.963   5.230  1.0342  0.9013  0.0986
10103TIP3    H251801   4.696   2.106   5.211  0.2198  0.5509 -0.5978
10104TIP3   OH251802   3.540   3.586   4.479  0.1581 -0.0458 -0.2625
10104TIP3    H151803   3.529   3.670   4.523  0.8177 -0.5881  0.9722
10104TIP3    H251804   3.465   3.534   4.509 -0.2567  0.0925 -1.0358
10105TIP3   OH251805   0.150   4.572   3.713 -0.5185 -0.1469  0.5475
10105TIP3    H151806   0.243   4.574   3.735 -0.0963 -0.4664 -1.1500
10105TIP3    H251807   0.131   4.480   3.695 -0.9698  0.0308  0.0890
10106TIP3   OH251808   0.424   3.807   5.743  0.0583  0.1694  0.2500
10106TIP3    H151809   0.451   3.787   5.833 -0.7117 -1.3443  0.1627
10106TIP3    H251810   0.458   3.733   5.691 -1.9821 -0.4357 -0.2487
10107TIP3   OH251811   0.318   5.295  13.315 -0.2825  0.0016 -0.1037
10107TIP3    H151812   0.280   5.242  13.245 -0.6318  0.4852 -0.2867
10107TIP3    H251813   0.359   5.368  13.270 -1.0704  0.6610  0.2268
10108TIP3   OH251814   2.218   1.627  13.866 -0.7202  0.2132 -0.4050
10108TIP3    H151815   2.231   1.553  13.926 -1.0512  0.9511  0.5766
10108TIP3    H251816   2.302   1.636  13.821 -0.6546 -0.7170 -0.4894
10109TIP3   OH251817   6.701   6.544   0.954 -0.2738 -0.4346 -0.0301
10109TIP3    H151818   6.726   6.636   0.945 -1.3450 -0.0623  0.6964
10109TIP3    H251819   6.605   6.546   0.961 -0.1432 -1.4035  2.4686
10110TIP3   OH251820   1.179   1.010   3.324  0.2681  0.0224 -0.4626
10110TIP3    H151821   1.256   1.031   3.272  1.4854 -2.3814  0.3174
10110TIP3    H251822   1.157   1.092   3.369 -0.0450  1.8002 -3.6797
10111TIP3   OH251823   4.038   1.720   2.060 -0.4215  0.3122 -0.3047
10111TIP3    H151824   4.109   1.771   2.020 -0.0591 -0.0868 -0.1789
10111TIP3    H251825   4.037   1.638   2.011 -0.0047 -0.1619  0.4580
10112TIP3   OH251826   2.847   4.603  11.857  0.5768  1.1453 -0.7741
10112TIP3    H151827   2.813   4.678  11.808 -0.0219  0.0718 -2.0743
10112TIP3    H251828   2.823   4.527  11.802  0.0217 -0.0869  1.1265
10113TIP3   OH251829   5.180   2.272  14.484  0.0889 -0.3438  0.0766
10113TIP3    H151830   5.176   2.213  14.559 -1.5528 -0.6754 -0.2559
10113TIP3    H251831   5.193   2.215  14.408 -1.0918 -0.2549 -0.1992
10114TIP3   OH251832   5.185   1.624   1.209  0.0326 -0.2091  0.5546
10114TIP3    H151833   5.269   1.578   1.201  0.5890  1.1486 -1.8650
10114TIP3    H251834   5.127   1.562   1.252  1.6551 -2.0164  0.1675
10115TIP3   OH251835   0.432   0.857   5.476 -0.2931 -0.4130 -0.0783
10115TIP3    H151836   0.420   0.864   5.570  0.0718 -0.7131 -0.0055
10115TIP3    H251837   0.525   0.836   5.465 -0.2079  0.1898 -0.5302
10116TIP3   OH251838   1.619   4.931  14.097  0.0995 -0.5361 -0.2340
10116TIP3    H151839   1.607   5.007  14.154  1.7579 -0.6882  0.3328
10116TIP3    H251840   1.613   4.856  14.157  0.0436 -0.7846 -0.5500
10117TIP3   OH251841   3.237   5.634  16.477  0.5145 -0.5622  0.6527
10117TIP3    H151842   3.272   5.547  16.493 -2.1666 -1.3990  2.2298
10117TIP3    H251843   3.159   5.619  16.423  0.2357  0.8835  0.6263
10118TIP3   OH251844   6.323   2.052   5.855 -0.5939  0.0406  0.0258
10118TIP3    H151845   6.356   2.034   5.767 -1.4328 -2.5166  0.1958
10118TIP3    H251846   6.230   2.069   5.843 -0.6241  0.1434  0.3811
10119TIP3   OH251847   0.632   0.957  16.474 -0.2368 -0.0448  0.0301
10119TIP3    H151848   0.538   0.943  16.467 -0.3372  0.7701 -0.2820
10119TIP3    H251849   0.645   0.992  16.562 -0.4064  1.2732 -0.4623
10120TIP3   OH251850   2.807   3.822  16.558 -0.3824 -0.2344  0.1953
10120TIP3    H151851   2.810   3.905  16.607 -2.2058 -1.0037  1.6652
10120TIP3    H251852   2.812   3.755  16.626  3.1367 -1.4064 -1.1070
10121TIP3   OH251853   0.338   6.004  13.405 -0.2514 -0.6549  0.1096
10121TIP3    H151854   0.377   6.089  13.422  0.4638 -1.1311  0.9107
10121TIP3    H251855   0.400   5.960  13.347 -1.7439  0.2303 -2.2224
10122TIP3   OH251856   6.225   2.626  11.482 -0.4793 -0.6010 -0.4551
10122TIP3    H151857   6.204   2.719  11.471 -0.3453 -0.5781 -0.5120
10122TIP3    H251858   6.264   2.600  11.399  0.1845 -0.5197 -0.1666
10123TIP3   OH251859   2.784   3.777   5.454  0.1034  0.4726  0.1791
10123TIP3    H151860   2.712   3.738   5.503 -1.1987  1.3401 -1.0208
10123TIP3    H251861   2.768   3.751   5.363  0.7944  1.4577 -0.2289
10124TIP3   OH251862   2.966   5.703  15.352 -0.0670 -0.3186 -0.1204
10124TIP3    H151863   3.059   5.702  15.374  0.2156  1.6559 -1.1123
10124TIP3    H251864   2.957   5.775  15.289 -1.9068 -1.7892 -1.6153
10125TIP3   OH251865   4.333   5.795   5.725  0.0687  0.2970  0.5884
10125TIP3    H151866   4.390   5.857   5.771  0.5554  0.3297 -0.0516
10125TIP3    H251867   4.270   5.850   5.678  1.2663  0.3553 -0.9721
10126TIP3   OH251868   4.876   3.416  17.168  0.1983 -0.1995 -0.1488
10126TIP3    H151869   4.912   3.395  17.254  2.0417 -1.7797 -1.2727
10126TIP3    H251870   4.942   3.473  17.127 -1.5514  2.1487  0.1735
10127TIP3   OH251871   1.713   3.060  16.006  0.7279 -0.1305 -0.6540
10127TIP3    H151872   1.785   3.004  15.976 -0.0022 -2.7050  2.1377
10127TIP3    H251873   1.647   3.052  15.937  1.1443 -1.7013 -0.8868
10128TIP3   OH251874   4.546   5.414  11.785 -0.1285  0.2736 -0.5152
10128TIP3    H151875   4.549   5.324  11.816  0.7042  0.5235  0.1495
10128TIP3    H251876   4.589   5.411  11.699 -1.7342 -0.2772 -1.3124
10129TIP3   OH251877   0.790   3.588   2.375  0.4046 -1.2110 -0.1873
10129TIP3    H151878   0.705   3.605   2.418  1.5164  2.6838  0.6643
10129TIP3    H251879   0.852   3.580   2.448  1.4716  0.3200 -0.9177
10130TIP3   OH251880   4.204   5.718  12.550 -0.3759 -0.3310  0.2625
10130TIP3    H151881   4.132   5.779  12.542  0.5339  0.7717  0.3758
10130TIP3    H251882   4.222   5.690  12.460 -0.6139 -0.2348  0.1844
10131TIP3   OH251883   3.846   1.456  11.632  0.1852 -1.0545  0.3128
10131TIP3    H151884   3.770   1.513  11.618 -0.1687 -1.6218 -0.0986
10131TIP3    H251885   3.921   1.512  11.613 -0.1788 -0.8709 -0.6516
10132TIP3   OH251886   1.265   6.261   5.228 -0.0565 -0.2470  0.7118
10132TIP3    H151887   1.271   6.198   5.300  1.1819 -0.3274  0.5584
10132TIP3    H251888   1.176   6.251   5.194  0.0303 -1.7156  0.8737
10133TIP3   OH251889   1.518   4.198  17.174 -0.9204  0.0734 -0.4355
10133TIP3    H151890   1.511   4.231  17.263  0.0685 -0.1001 -0.2922
10133TIP3    H251891   1.502   4.274  17.118 -0.5558  0.3875 -0.1075
10134TIP3   OH251892   3.595   2.388  15.744 -0.6442 -0.1780 -0.3590
10134TIP3    H151893   3.680   2.390  15.787 -0.6736  1.5912 -0.3550
10134TIP3    H251894   3.543   2.455  15.789 -1.5627 -0.2301 -1.3195
10135TIP3   OH251895   1.105   0.234  13.205 -0.2578  0.0788  0.2490
10135TIP3    H151896   1.012   0.216  13.196  0.1274 -1.0775 -1.6363
10135TIP3    H251897   1.131   0.272  13.121  1.0386  0.0664  0.6346
10136TIP3   OH251898   3.224   3.833   3.449 -0.6332  0.4389  0.4092
10136TIP3    H151899   3.202   3.894   3.378 -1.4730  0.9480  1.0968
10136TIP3    H251900   3.299   3.783   3.415 -1.1504  0.5318 -0.9130
10137TIP3   OH251901   3.927   4.350  17.040  0.1531 -0.0079  0.1394
10137TIP3    H151902   3.837   4.372  17.061  0.0794  0.0164 -0.2068
10137TIP3    H251903   3.923   4.310  16.953  0.3216 -1.1166  0.6404
10138TIP3   OH251904   5.308   4.871  13.508 -0.1952  0.3178  0.1094
10138TIP3    H151905   5.215   4.888  13.525  0.5954  1.9507  3.2948
10138TIP3    H251906   5.321   4.780  13.535 -0.3349  0.9411  2.4304
10139TIP3   OH251907   0.884   2.496  13.448 -0.0621  0.2500 -0.0737
10139TIP3    H151908   0.870   2.591  13.445 -1.4289  0.0728  0.0720
10139TIP3    H251909   0.888   2.476  13.542  2.0650  0.3951 -0.1113
10140TIP3   OH251910   4.264   1.118  11.898 -0.0943  0.3941  0.2108
10140TIP3    H151911   4.289   1.139  11.809  0.6870  1.1962  0.6153
10140TIP3    H251912   4.172   1.091  11.892  0.1461 -0.1876 -0.9208
10141TIP3   OH251913   2.785   4.300   5.727 -0.6870 -0.0463  0.3145
10141TIP3    H151914   2.852   4.301   5.795  0.7632 -1.5758 -1.0631
10141TIP3    H251915   2.829   4.332   5.648 -1.7434 -0.4544 -0.4629
10142TIP3   OH251916   4.054   3.065   3.545  0.4568 -0.1390 -0.3537
10142TIP3    H151917   4.087   2.976   3.531 -0.7330 -0.7093  0.3872
10142TIP3    H251918   4.035   3.068   3.639 -3.0217 -0.3198 -1.0095
10143TIP3   OH251919   5.543   1.194   2.839  0.6237  0.0198 -0.6193
10143TIP3    H151920   5.574   1.108   2.867  1.4964  0.4384 -0.3026
10143TIP3    H251921   5.595   1.214   2.762  2.7283  1.6946  1.1785
10144TIP3   OH251922   0.006   3.986  11.673  0.1173  0.1671 -0.3726
10144TIP3    H151923  -0.077   3.970  11.718 -0.0598  0.9138 -0.4193
10144TIP3    H251924   0.014   3.914  11.611  2.1236 -2.9376  3.2867
10145TIP3   OH251925   2.881   0.336  14.369 -0.8312 -0.6833  0.0926
10145TIP3    H151926   2.888   0.299  14.281  0.6719  1.2560 -0.6627
10145TIP3    H251927   2.962   0.386  14.379 -1.9345  0.8090  1.7709
10146TIP3   OH251928   0.702   5.722  16.751 -0.5598 -0.6619  0.3237
10146TIP3    H151929   0.686   5.816  16.740 -1.7469 -0.9658 -0.6297
10146TIP3    H251930   0.744   5.715  16.836  0.8127  0.8759 -0.2023
10147TIP3   OH251931   5.292   6.713  12.444  0.0130  0.0367  0.3851
10147TIP3    H151932   5.255   6.625  12.435 -0.1078  0.2728 -1.6720
10147TIP3    H251933   5.218   6.771  12.429  0.6656  0.5012 -1.0703
10148TIP3   OH251934   3.336   0.320  13.808  0.0110 -0.1311  0.0093
10148TIP3    H151935   3.429   0.338  13.817 -0.1471  0.8347 -0.2779
10148TIP3    H251936   3.295   0.368  13.880 -0.2549 -0.6487  0.2048
10149TIP3   OH251937   6.003   1.180   4.822 -0.1602  0.1005  0.3485
10149TIP3    H151938   6.009   1.276   4.820 -1.3646  0.1746 -0.3172
10149TIP3    H251939   5.975   1.156   4.734  1.6234 -0.9972  0.0567
10150TIP3   OH251940   4.427   3.552  12.853 -0.0103  0.2291 -0.1665
10150TIP3    H151941   4.372   3.474  12.848 -1.1478  1.0734 -1.2456
10150TIP3    H251942   4.425   3.577  12.945  1.3629 -1.7073  0.4210
10151TIP3   OH251943   3.726   2.835   6.816  0.1904  0.9905 -0.1022
10151TIP3    H151944   3.774   2.760   6.849  3.3418  3.4447  1.1444
10151TIP3    H251945   3.715   2.817   6.722  1.3836 -0.7408  0.0626
10152TIP3   OH251946   3.104   1.841  15.249  0.8778  0.0581  0.2665
10152TIP3    H151947   3.066   1.834  15.337 -0.5094 -1.0320 -0.4003
10152TIP3    H251948   3.189   1.798  15.258  0.3423 -0.9248  0.8656
10153TIP3   OH251949   3.574   1.134   0.260  0.3959  0.3591 -0.0844
10153TIP3    H151950   3.666   1.134   0.287  0.3559 -0.4084  0.0655
10153TIP3    H251951   3.575   1.173   0.172  0.9227 -0.1004 -0.2843
10154TIP3   OH251952   1.532   0.779   5.630 -0.1874 -0.5682  0.3292
10154TIP3    H151953   1.581   0.705   5.593 -0.4194 -0.8288  0.5430
10154TIP3    H251954   1.457   0.790   5.571 -0.7616 -1.2260  0.9356
10155TIP3   OH251955   0.807   3.983  16.024  0.4506 -0.1147  0.4894
10155TIP3    H151956   0.774   3.948  16.106  0.9859 -1.3293  0.2041
10155TIP3    H251957   0.729   4.002  15.972  0.0640  1.8929  1.7573
10156TIP3   OH251958   3.012   2.228  16.877  0.3076  0.3199  0.1354
10156TIP3    H151959   3.043   2.143  16.847  3.3120  1.1901  0.5974
10156TIP3    H251960   3.026   2.227  16.972 -1.0143  0.7931  0.3424
10157TIP3   OH251961   1.476   6.371   0.267  0.9208  0.3727  0.0794
10157TIP3    H151962   1.499   6.308   0.335 -0.8987 -0.7097 -0.2398
10157TIP3    H251963   1.478   6.456   0.310 -0.9980 -0.3742  1.7259
10158TIP3   OH251964   0.258   2.764   0.874 -0.3644  0.0822 -0.2533
10158TIP3    H151965   0.326   2.823   0.842  1.4400 -1.4388  0.7048
10158TIP3    H251966   0.214   2.734   0.794 -0.4371  1.6621 -0.8320
10159TIP3   OH251967   0.436   6.591   1.782 -0.3959 -0.2401  0.0493
10159TIP3    H151968   0.427   6.555   1.694 -1.1560 -3.4755  1.3600
10159TIP3    H251969   0.395   6.677   1.777 -0.1851 -0.2548 -2.7954
10160TIP3   OH251970   1.435   3.115   5.235 -0.6211  0.4105 -0.1239
10160TIP3    H151971   1.424   3.085   5.145 -0.9836 -1.8611  0.6467
10160TIP3    H251972   1.518   3.075   5.263 -1.7747 -1.0435  1.3515
10161TIP3   OH251973   4.332   6.359  14.794  0.3293 -0.6457 -0.0080
10161TIP3    H151974   4.380   6.356  14.876  0.3318  1.8602  0.1091
10161TIP3    H251975   4.259   6.418  14.811 -0.3226 -1.0025 -1.4859
10162TIP3   OH251976   3.810   3.518  13.843  0.0382  0.1600  0.1318
10162TIP3    H151977   3.839   3.585  13.780 -0.8600 -2.3494 -3.0739
10162TIP3    H251978   3.860   3.440  13.819 -0.0523 -0.7696  2.8238
10163TIP3   OH251979   5.702   4.754  10.423 -0.2822 -0.7055 -0.3805
10163TIP3    H151980   5.747   4.804  10.354  1.3212 -0.6620  0.6849
10163TIP3    H251981   5.770   4.734  10.487 -1.4550 -2.0346  0.4805
10164TIP3   OH251982   1.902   5.300  15.609  0.2341 -0.2960  0.3128
10164TIP3    H151983   1.822   5.301  15.662  0.4436 -1.0270  0.6589
10164TIP3    H251984   1.895   5.377  15.554 -0.6616 -0.2938  0.4139
10165TIP3   OH251985   0.670   3.465   0.720 -0.0883 -0.2204 -0.3213
10165TIP3    H151986   0.647   3.524   0.648 -1.4510  0.4961  0.6808
10165TIP3    H251987   0.727   3.399   0.680  1.8689  2.0132 -1.3912
10166TIP3   OH251988   0.034   4.947  16.628 -0.9236 -0.0112  0.0035
10166TIP3    H151989   0.015   5.040  16.619  0.7087  0.2597 -0.9137
10166TIP3    H251990   0.127   4.945  16.651 -1.2561 -1.3701  1.2829
10167TIP3   OH251991   2.085   6.428   6.521  0.4653  0.6008  0.0190
10167TIP3    H151992   2.152   6.413   6.455  2.1472  0.6363  1.7075
10167TIP3    H251993   2.003   6.428   6.471  1.5290 -1.2102 -1.8146
10168TIP3   OH251994   4.475   2.749   3.334  0.3400 -0.2268  0.2075
10168TIP3    H151995   4.407   2.782   3.392  1.9673 -0.8110  2.5190
10168TIP3    H251996   4.462   2.654   3.334 -0.1372 -0.1668 -1.0243
10169TIP3   OH251997   0.906   3.024  11.455 -0.4464  0.5709  0.0888
10169TIP3    H151998   0.921   3.031  11.549  1.4528  0.4561 -0.1731
10169TIP3    H251999   0.985   3.061  11.416 -1.2073  0.5901 -1.4648
10170TIP3   OH252000   5.699   5.903  15.608 -0.0079  0.4644  0.5991
10170TIP3    H152001   5.784   5.916  15.565 -0.9112 -0.5924 -1.5754
10170TIP3    H252002   5.704   5.813  15.641 -0.9112 -0.2449 -1.1052
10171TIP3   OH252003   5.264   2.878   5.167 -0.1350  0.0597  0.4494
10171TIP3    H152004   5.338   2.823   5.140 -2.1662 -1.0465 -3.1497
10171TIP3    H252005   5.223   2.829   5.238  2.1889  0.3941  2.0643
10172TIP3   OH252006   4.068   1.913  14.261 -0.0936 -0.4703  0.0348
10172TIP3    H152007   4.068   1.905  14.357  0.5790 -2.1064 -0.0972
10172TIP3    H252008   3.994   1.972  14.243 -0.5107 -0.5053  1.5250
10173TIP3   OH252009   6.263   0.632   2.959 -0.8890  0.1997  0.3465
10173TIP3    H152010   6.312   0.676   2.890 -0.3306 -0.4168  0.3403
10173TIP3    H252011   6.312   0.551   2.975 -0.3042  0.9006  2.3064
10174TIP3   OH252012   5.657   4.202   4.187 -0.3237 -0.8305  0.2994
10174TIP3    H152013   5.575   4.152   4.183 -1.6029  1.2383 -0.4144
10174TIP3    H252014   5.646   4.271   4.120  1.4300  0.2915  1.1400
10175TIP3   OH252015   5.707   4.430   0.658  0.0387 -0.0018 -0.1437
10175TIP3    H152016   5.749   4.380   0.588 -3.3521 -0.5614 -1.9079
10175TIP3    H252017   5.727   4.522   0.638  2.2479 -0.3607  0.3494
10176TIP3   OH252018   0.258   4.904  10.659  0.0921 -0.3480  0.0981
10176TIP3    H152019   0.191   4.972  10.649 -0.8929 -1.1990  0.7249
10176TIP3    H252020   0.265   4.864  10.572  1.8755  1.6185 -0.6988
10177TIP3   OH252021   1.386   5.239   3.017  0.1780  0.1080  0.2701
10177TIP3    H152022   1.367   5.180   3.090 -0.1674 -0.2968 -0.1411
10177TIP3    H252023   1.305   5.290   3.007  0.8408  1.3718  1.2930
10178TIP3   OH252024   0.359   5.727  10.693  0.4122 -0.5471  0.1404
10178TIP3    H152025   0.275   5.768  10.715  1.4484  1.3149  0.7235
10178TIP3    H252026   0.411   5.734  10.773  1.3648 -1.0955 -0.4188
10179TIP3   OH252027   3.120   6.276   6.488  0.3963 -0.4561 -0.0340
10179TIP3    H152028   3.185   6.256   6.421  0.0370 -0.7352 -0.3093
10179TIP3    H252029   3.141   6.364   6.518 -2.4219  1.7758 -4.0844
10180TIP3   OH252030   4.747   5.974  15.543 -0.0809  0.0585  0.1773
10180TIP3    H152031   4.808   5.943  15.476 -1.8009 -0.9327 -0.9647
10180TIP3    H252032   4.779   5.935  15.624  0.3619 -1.1020 -0.5340
10181TIP3   OH252033   6.119   3.463   4.814  0.4371  0.0456 -0.1960
10181TIP3    H152034   6.095   3.532   4.751  0.2487  1.7874  1.7242
10181TIP3    H252035   6.127   3.509   4.897  0.6874 -2.2270  1.0635
10182TIP3   OH252036   3.543   4.231  14.169  0.2244  0.5567 -0.0984
10182TIP3    H152037   3.576   4.256  14.256  1.6876 -0.0599 -0.4655
10182TIP3    H252038   3.582   4.296  14.110  0.0170  0.3825 -0.4255
10183TIP3   OH252039   1.786   6.430   4.667 -0.0047 -0.3786  0.1076
10183TIP3    H152040   1.788   6.341   4.704 -0.0963 -0.3699  0.1334
10183TIP3    H252041   1.709   6.470   4.707  0.7344  0.1253  1.0574
10184TIP3   OH252042   0.929   3.885  15.202 -0.4941 -0.4158  0.2729
10184TIP3    H152043   0.959   3.974  15.221 -1.5576  0.6000 -2.5047
10184TIP3    H252044   1.008   3.831  15.209  0.6135  1.1006 -0.2589
10185TIP3   OH252045   3.073   6.211   1.639 -0.2002 -0.7086  0.2188
10185TIP3    H152046   2.995   6.170   1.675  0.1335 -2.1441 -0.6594
10185TIP3    H252047   3.135   6.139   1.627  0.1803 -0.0665 -1.8947
10186TIP3   OH252048   1.487   6.230   3.782 -0.2002  0.2523  0.1854
10186TIP3    H152049   1.418   6.219   3.847  1.7614  1.1423  2.4530
10186TIP3    H252050   1.533   6.146   3.782 -2.7923 -1.3008 -3.2341
10187TIP3   OH252051   0.063   5.013   1.591 -0.0525 -0.2060  0.5515
10187TIP3    H152052   0.055   5.085   1.654  1.9023  0.9431 -0.4685
10187TIP3    H252053   0.089   5.055   1.509  0.2317 -1.9935 -0.3083
10188TIP3   OH252054   4.954   2.493   1.507  0.0785 -0.0441  0.0535
10188TIP3    H152055   5.005   2.479   1.428 -0.0584 -2.5678  0.3761
10188TIP3    H252056   4.882   2.550   1.479  0.9062  0.3771 -1.2537
10189TIP3   OH252057   2.526   6.060  14.926 -0.0846 -0.0737  0.5304
10189TIP3    H152058   2.575   6.102  14.997  1.2956 -0.0887 -0.4118
10189TIP3    H252059   2.545   5.967  14.936 -0.9662 -0.2188  0.9448
10190TIP3   OH252060   2.933   3.782  11.787  0.3980 -0.2161  0.0303
10190TIP3    H152061   3.022   3.766  11.757  0.1242  0.1064 -0.9639
10190TIP3    H252062   2.889   3.823  11.713  0.1491  2.0930  1.3789
10191TIP3   OH252063   3.896   2.152  15.806  0.2834  0.0229  0.3315
10191TIP3    H152064   3.806   2.169  15.831  0.4806 -1.3681  2.1472
10191TIP3    H252065   3.897   2.060  15.779  1.1706 -0.0193  0.4709
10192TIP3   OH252066   1.680   6.586  16.457  1.0439  1.0956  0.3600
10192TIP3    H152067   1.748   6.646  16.486  2.2330  1.1843 -2.5043
10192TIP3    H252068   1.609   6.642  16.425  1.7485  1.0159 -1.3908
10193TIP3   OH252069   4.922   3.269  12.342  0.7010 -0.9141  0.1578
10193TIP3    H152070   4.975   3.287  12.420 -1.8782  0.1354  1.7192
10193TIP3    H252071   4.848   3.218  12.374 -0.4479 -0.4144 -1.6169
10194TIP3   OH252072   6.088   1.829   4.887  0.1890  0.6629  0.2937
10194TIP3    H152073   6.118   1.917   4.865  0.4060  0.7833  1.0443
10194TIP3    H252074   6.168   1.781   4.909  0.6548 -1.1228 -4.6754
10195TIP3   OH252075   3.746   1.760   0.257 -0.2014  0.4038 -0.6253
10195TIP3    H152076   3.714   1.677   0.222  1.5176 -0.6668  0.2573
10195TIP3    H252077   3.677   1.788   0.317  0.3916 -1.8690  1.2499
10196TIP3   OH252078   5.048   4.461   0.866  0.0487  0.0287  0.6130
10196TIP3    H152079   5.002   4.494   0.943 -0.1548 -0.5639  0.7524
10196TIP3    H252080   4.987   4.397   0.828  0.8745 -0.9994  0.9737
10197TIP3   OH252081   1.894   3.254   5.354  0.2916  0.5757 -0.4222
10197TIP3    H152082   1.864   3.164   5.370 -1.6404  1.0498 -1.2179
10197TIP3    H252083   1.960   3.246   5.286 -2.1018  0.0243 -2.7586
10198TIP3   OH252084   1.159   3.827   4.033 -0.2011 -0.7142  0.4047
10198TIP3    H152085   1.219   3.839   3.960 -0.0711  0.0670  0.6350
10198TIP3    H252086   1.182   3.742   4.069  0.5277 -0.5801  0.2674
10199TIP3   OH252087   1.318   3.162  12.361 -0.0545  0.0340  0.4093
10199TIP3    H152088   1.283   3.242  12.323  0.1109 -0.1795 -0.1996
10199TIP3    H252089   1.249   3.097  12.350 -0.8437  0.4964  2.3980
10200TIP3   OH252090   2.947   0.413   3.089  0.1773  0.5812 -0.3071
10200TIP3    H152091   3.038   0.429   3.064 -0.2415  1.5731 -1.2417
10200TIP3    H252092   2.905   0.498   3.083 -0.5483  0.3642  1.3268
10201TIP3   OH252093   1.300   5.070   3.230  0.0845  0.1334  0.1535
10201TIP3    H152094   1.331   5.096   3.317  1.2042 -0.6387 -0.0158
10201TIP3    H252095   1.208   5.046   3.244 -0.4284  2.2856  0.6699
10202TIP3   OH252096   2.261   0.812  16.734  0.2123  0.8642 -0.3628
10202TIP3    H152097   2.220   0.733  16.768  1.0691  0.9778  0.9765
10202TIP3    H252098   2.198   0.882  16.751  0.9736  1.0543  1.7705
10203TIP3   OH252099   5.281   6.702   2.144 -0.0632 -0.4562  0.4999
10203TIP3    H152100   5.315   6.634   2.203  0.4074 -0.8997 -0.2759
10203TIP3    H252101   5.358   6.750   2.114 -0.3026 -0.1975  0.2841
10204TIP3   OH252102   3.393   2.180  14.670 -0.6094 -0.4618  0.2354
10204TIP3    H152103   3.452   2.248  14.702 -1.0875  0.2224 -0.3173
10204TIP3    H252104   3.309   2.225  14.656 -1.2904 -1.4423  1.1028
10205TIP3   OH252105   0.166   4.693  12.970  0.4520 -0.4098  0.2397
10205TIP3    H152106   0.256   4.700  13.002  0.3385 -1.8449  0.9165
10205TIP3    H252107   0.145   4.781  12.939  2.1276 -0.0874 -0.0465
10206TIP3   OH252108   1.051   2.816  15.332  0.3134 -0.0921  0.5250
10206TIP3    H152109   0.956   2.812  15.347  0.1111 -0.1738 -0.7049
10206TIP3    H252110   1.083   2.732  15.363 -0.1761 -0.4892 -0.0122
10207TIP3   OH252111   1.609   2.338   2.614 -0.1239 -0.1767  0.1795
10207TIP3    H152112   1.519   2.355   2.642 -0.6282 -2.0022 -0.2828
10207TIP3    H252113   1.600   2.300   2.527  1.2421  1.8456 -0.8993
10208TIP3   OH252114   5.716   3.914  14.356  0.2219 -0.0761  0.3861
10208TIP3    H152115   5.750   3.954  14.437  0.7001 -0.8270  0.5570
10208TIP3    H252116   5.793   3.874  14.315 -0.0482  0.1721 -0.3701
10209TIP3   OH252117   4.604   5.847   2.317  0.1689  0.1743 -0.2535
10209TIP3    H152118   4.678   5.792   2.295  0.3793 -0.1638  1.2236
10209TIP3    H252119   4.597   5.909   2.245  1.9118  0.2359 -0.3842
10210TIP3   OH252120   0.862   5.580   5.742 -0.3229 -0.5133 -0.1292
10210TIP3    H152121   0.781   5.623   5.712  0.5533  1.8208  0.7743
10210TIP3    H252122   0.849   5.569   5.836  0.3145 -0.3174 -0.0195
10211TIP3   OH252123   0.346   6.252   3.121  0.0351 -0.4375  0.3926
10211TIP3    H152124   0.382   6.310   3.054  1.0153 -0.4294  0.9097
10211TIP3    H252125   0.330   6.170   3.076 -0.9223  0.0889 -0.2379
10212TIP3   OH252126   3.663   1.340  10.936 -0.6385  0.5231 -0.3869
10212TIP3    H152127   3.729   1.383  10.991 -0.5931 -0.2110  0.1363
10212TIP3    H252128   3.661   1.250  10.967 -1.5645  0.4316 -0.7120
10213TIP3   OH252129   2.346   5.275  15.260  0.3377  0.0725 -0.0869
10213TIP3    H152130   2.315   5.363  15.239 -1.3803 -0.5931 -0.3658
10213TIP3    H252131   2.289   5.216  15.210 -0.4267 -1.3249  2.3279
10214TIP3   OH252132   4.385   6.066  14.652 -0.3926  0.0645 -0.4555
10214TIP3    H152133   4.415   6.152  14.683  1.3944 -0.4972 -0.5856
10214TIP3    H252134   4.377   6.077  14.557 -1.0368  0.3446 -0.3693
10215TIP3   OH252135   1.240   1.253   0.703 -0.3596  0.0384  0.0327
10215TIP3    H152136   1.331   1.223   0.708 -0.0437  0.9845  0.2541
10215TIP3    H252137   1.247   1.340   0.664 -1.0394  0.6775  1.2920
10216TIP3   OH252138   3.767   0.700   5.111  0.6683  0.1034  0.1426
10216TIP3    H152139   3.748   0.726   5.201  1.3664 -0.9202  0.5963
10216TIP3    H252140   3.819   0.772   5.075  0.5863  0.4044  0.6206
10217TIP3   OH252141   0.447   2.455  12.908  0.1837  0.2272  0.7257
10217TIP3    H152142   0.420   2.480  12.820  0.9696  0.4132  0.5346
10217TIP3    H252143   0.441   2.359  12.908 -0.5551  0.2715  0.7154
10218TIP3   OH252144   2.880   2.492   0.400 -0.5054 -0.3438  0.4669
10218TIP3    H152145   2.946   2.490   0.331  0.2572  0.2785  1.1728
10218TIP3    H252146   2.896   2.412   0.451 -0.1949 -0.1172  0.7275
10219TIP3   OH252147   5.505   0.118  11.261 -0.2949  0.2376 -0.0634
10219TIP3    H152148   5.415   0.110  11.294  0.0714  0.0869  0.9055
10219TIP3    H252149   5.549   0.039  11.292  0.0940  0.1540 -0.8146
10220TIP3   OH252150   2.864   3.630  12.006  0.1928  0.3095 -0.3664
10220TIP3    H152151   2.861   3.659  11.915 -0.9428 -2.9608 -1.4497
10220TIP3    H252152   2.957   3.629  12.028  0.6649 -0.9134 -2.2281
10221TIP3   OH252153   3.933   0.868  16.693  0.0582  0.4726  0.3498
10221TIP3    H152154   4.014   0.846  16.739 -0.6950 -0.9378  1.0064
10221TIP3    H252155   3.951   0.846  16.602  0.2767 -0.2152  0.5575
10222TIP3   OH252156   3.515   3.373  15.264  0.2238 -0.0885 -0.0822
10222TIP3    H152157   3.593   3.426  15.282  0.2742 -0.5014  0.9053
10222TIP3    H252158   3.471   3.420  15.192  0.7773  0.7653  0.1273
10223TIP3   OH252159   3.186   6.034   5.169  0.0826  0.6493 -0.2955
10223TIP3    H152160   3.208   6.122   5.138  1.7011 -0.0250 -1.1243
10223TIP3    H252161   3.104   6.046   5.217  0.8032  2.7756  0.4871
10224TIP3   OH252162   5.045   6.561   1.050 -0.7537  0.4414  0.1661
10224TIP3    H152163   5.103   6.507   0.995 -0.1350  0.1342  1.1198
10224TIP3    H252164   4.958   6.524   1.036 -0.5243  0.0468 -0.2258
10225TIP3   OH252165   5.521   5.753   5.469 -0.6785  0.5302  0.2320
10225TIP3    H152166   5.530   5.661   5.494  1.3476  0.6099 -0.1190
10225TIP3    H252167   5.498   5.798   5.550  1.9679  0.2235  1.2065
10226TIP3   OH252168   6.233   5.537  12.206 -0.4569  0.0398  0.0255
10226TIP3    H152169   6.230   5.534  12.301  0.6226 -0.0170  0.0619
10226TIP3    H252170   6.322   5.567  12.185 -0.8957  0.6856 -0.9447
10227TIP3   OH252171   3.995   1.272   1.108  0.1956  0.2161  0.2310
10227TIP3    H152172   4.065   1.216   1.142 -0.6942 -2.4686 -2.1761
10227TIP3    H252173   3.929   1.211   1.076 -3.2628  2.6652  2.3416
10228TIP3   OH252174   1.276   5.749   4.058 -0.3843 -0.4363 -0.2796
10228TIP3    H152175   1.353   5.693   4.052  0.2434  0.4739 -0.8280
10228TIP3    H252176   1.306   5.826   4.107 -0.4588  0.7308 -2.0266
10229TIP3   OH252177   6.086   3.652  14.510 -0.0957  0.4378 -0.3953
10229TIP3    H152178   6.156   3.602  14.552 -0.6008  0.9954  1.1739
10229TIP3    H252179   6.031   3.586  14.467 -0.1707 -0.2683  0.7644
10230TIP3   OH252180   4.638   1.954  16.224 -0.2138 -0.5335 -0.2066
10230TIP3    H152181   4.619   1.860  16.218  0.9865 -0.6742 -2.1805
10230TIP3    H252182   4.729   1.958  16.253 -0.5499  0.0627  0.8176
10231TIP3   OH252183   2.884   1.298  17.255 -0.4807  0.9637  0.4516
10231TIP3    H152184   2.880   1.377  17.310  0.0032 -1.1599  3.7054
10231TIP3    H252185   2.977   1.275  17.255 -0.9164 -0.8577  1.4382
10232TIP3   OH252186   1.467   1.889  12.389  0.1625  0.6335 -0.0838
10232TIP3    H152187   1.433   1.800  12.383  1.5818  0.0719 -0.0260
10232TIP3    H252188   1.412   1.932  12.455 -1.5519  0.2986 -1.2750
10233TIP3   OH252189   5.221   1.733  10.553  0.0450  0.1437  0.2894
10233TIP3    H152190   5.225   1.827  10.535  1.0759  0.0769  0.1653
10233TIP3    H252191   5.304   1.713  10.596 -1.2720 -0.2227  2.7155
10234TIP3   OH252192   6.541   2.982  11.134 -0.5362  0.0517  0.2083
10234TIP3    H152193   6.587   3.066  11.126 -2.1274  1.1303  1.9698
10234TIP3    H252194   6.559   2.953  11.223 -1.0114 -0.8754  0.0059
10235TIP3   OH252195   2.326   0.874   0.679 -0.0623  0.0294  0.2918
10235TIP3    H152196   2.408   0.921   0.668 -0.0805  0.0371  0.1854
10235TIP3    H252197   2.332   0.800   0.618 -0.1699  0.0788  0.2211
10236TIP3   OH252198   4.427   3.249  12.702 -0.7463 -0.1558 -0.8339
10236TIP3    H152199   4.505   3.195  12.712  0.4453  1.8322  1.2389
10236TIP3    H252200   4.458   3.329  12.661 -1.4266  1.1616  1.1214
10237TIP3   OH252201   4.297   0.963  13.094  0.2321  0.2087 -0.2759
10237TIP3    H152202   4.230   0.901  13.065 -0.2757  1.0997 -1.0197
10237TIP3    H252203   4.255   1.012  13.165  1.5953 -2.2244  2.3360
10238TIP3   OH252204   1.762   4.856  13.877 -0.5631  0.0630  0.6334
10238TIP3    H152205   1.844   4.858  13.926  0.8816  0.2547 -1.7243
10238TIP3    H252206   1.695   4.879  13.941  1.1450 -0.6959  2.7364
10239TIP3   OH252207   4.490   0.240  12.709 -0.0534 -0.2642 -0.0809
10239TIP3    H152208   4.402   0.276  12.696  0.2401  0.6621  0.4639
10239TIP3    H252209   4.529   0.241  12.621 -0.1068  0.5930 -0.0949
10240TIP3   OH252210   3.522   5.437   4.491 -0.3273 -0.1627  0.3161
10240TIP3    H152211   3.461   5.511   4.488  0.8237  0.8539  1.1600
10240TIP3    H252212   3.475   5.370   4.540 -1.3187  0.0818 -0.2842
10241TIP3   OH252213   2.311   0.459  13.754 -0.1336  0.2756 -0.0989
10241TIP3    H152214   2.319   0.369  13.787 -0.4192  0.5997  0.8441
10241TIP3    H252215   2.279   0.448  13.664 -0.5595 -0.5454  0.1456
10242TIP3   OH252216   6.313   3.736  11.767  0.8921 -0.4324  0.0117
10242TIP3    H152217   6.246   3.732  11.700 -0.7589 -4.0106  1.7204
10242TIP3    H252218   6.383   3.680  11.734  0.8295 -0.8068  0.5151
10243TIP3   OH252219   3.649   2.315   3.289 -0.4032 -0.3372 -0.1114
10243TIP3    H152220   3.629   2.342   3.199  1.2610  0.9051 -0.1210
10243TIP3    H252221   3.732   2.268   3.282  0.9215  1.7410  1.0633
10244TIP3   OH252222   1.976   5.034  11.338 -0.4091  0.2705  0.2411
10244TIP3    H152223   1.929   5.114  11.361 -3.7687 -1.3524 -0.6666
10244TIP3    H252224   2.012   5.051  11.251  1.2414  1.7110  1.1581
10245TIP3   OH252225   0.675   2.664   3.763 -0.0140 -0.0559 -0.3911
10245TIP3    H152226   0.596   2.638   3.811  1.5951 -1.8457  1.3403
10245TIP3    H252227   0.647   2.666   3.671 -2.1003 -0.5328  0.1978
10246TIP3   OH252228   3.740   3.587   3.843 -0.1549 -0.4260 -0.4945
10246TIP3    H152229   3.691   3.603   3.924 -2.0245 -0.6231 -1.5625
10246TIP3    H252230   3.782   3.502   3.857 -0.2592 -0.3483  0.3580
10247TIP3   OH252231   5.741   0.276   2.346 -0.1698 -0.5164  0.5244
10247TIP3    H152232   5.820   0.303   2.300 -0.8815  2.3969  0.8526
10247TIP3    H252233   5.673   0.276   2.279 -0.5443  0.3981  0.8900
10248TIP3   OH252234   4.936   3.303   0.913  0.6747 -0.6870 -0.1462
10248TIP3    H152235   4.856   3.352   0.897 -0.3255 -2.2213  0.0364
10248TIP3    H252236   4.953   3.313   1.007  1.6235  0.9726 -0.4674
10249TIP3   OH252237   5.499   4.410   2.538 -0.0799  0.0824  0.4454
10249TIP3    H152238   5.433   4.470   2.573  1.0290  0.8452  1.2785
10249TIP3    H252239   5.471   4.392   2.449 -1.2184  0.6869  0.6737
10250TIP3   OH252240   1.309   2.785  13.476 -0.7127 -0.5313 -0.3598
10250TIP3    H152241   1.266   2.710  13.519  0.1346  0.6793  2.7669
10250TIP3    H252242   1.259   2.861  13.504 -0.4354  0.2807 -2.0131
10251TIP3   OH252243   0.453   5.578   1.686 -0.0455 -0.1585 -0.5134
10251TIP3    H152244   0.548   5.573   1.679  0.0547 -1.8466  1.4148
10251TIP3    H252245   0.438   5.612   1.774 -1.2226 -0.6120 -0.5326
10252TIP3   OH252246   1.358   4.783   3.226  0.1961 -0.3180 -0.3659
10252TIP3    H152247   1.425   4.743   3.170 -0.6782  0.4624 -1.9972
10252TIP3    H252248   1.325   4.857   3.175 -1.0586  0.0445  0.9355
10253TIP3   OH252249   6.768   5.633   0.707 -0.5569  0.0141  0.0546
10253TIP3    H152250   6.773   5.663   0.616 -2.1218 -2.1522 -0.7849
10253TIP3    H252251   6.727   5.706   0.753  1.0495  1.4783 -0.8043
10254TIP3   OH252252   3.561   4.605  11.850  0.0278 -0.2937  0.0928
10254TIP3    H152253   3.502   4.588  11.923 -1.4668 -1.0862 -1.2771
10254TIP3    H252254   3.573   4.520  11.808 -1.7998  0.6973 -2.5613
10255TIP3   OH252255   3.145   3.399   0.945 -0.2090  0.0026 -0.1791
10255TIP3    H152256   3.107   3.478   0.985 -1.3597 -0.7816  0.3149
10255TIP3    H252257   3.231   3.392   0.985 -1.0083 -0.2811  1.5411
10256TIP3   OH252258   0.830   4.257  13.554  0.5021 -0.6155  0.3455
10256TIP3    H152259   0.851   4.347  13.530  0.8997 -0.6298  0.6232
10256TIP3    H252260   0.829   4.257  13.650 -0.8491 -0.6071  0.3319
10257TIP3   OH252261   3.641   0.365  15.552 -0.0348  0.0958  0.5655
10257TIP3    H152262   3.688   0.376  15.635 -1.3637  0.3392  1.2884
10257TIP3    H252263   3.677   0.433  15.495  2.0451 -1.0942  0.3944
10258TIP3   OH252264   5.608   6.625   3.273 -0.3987  0.3003  0.1404
10258TIP3    H152265   5.532   6.596   3.221 -0.7781  1.5562 -0.0344
10258TIP3    H252266   5.573   6.694   3.329  0.0032 -1.0761  2.1362
10259TIP3   OH252267   4.977   2.807   6.491 -0.3746  0.2748 -0.1645
10259TIP3    H152268   5.066   2.818   6.525 -0.7090  0.2324  0.7334
10259TIP3    H252269   4.984   2.832   6.399  0.1123  2.4305  0.4351
10260TIP3   OH252270   3.618   4.313   0.965  0.2449  0.3337 -0.2809
10260TIP3    H152271   3.618   4.401   1.002  1.2335 -0.1239  0.8232
10260TIP3    H252272   3.624   4.327   0.870  0.5858  1.4462 -0.0985
10261TIP3   OH252273   4.133   1.170   5.005  0.5563 -0.0036  0.0413
10261TIP3    H152274   4.115   1.227   5.080  2.0036  0.1375  0.2842
10261TIP3    H252275   4.093   1.214   4.930 -0.1970  0.2502  0.5928
10262TIP3   OH252276   0.491   6.053  14.371 -0.3300  0.9599  0.4522
10262TIP3    H152277   0.502   6.133  14.319  2.9653  1.1402  1.3024
10262TIP3    H252278   0.547   5.988  14.328 -1.3972 -0.3241  0.9518
10263TIP3   OH252279   1.219   4.254  15.103 -0.0638  0.4754 -0.4802
10263TIP3    H152280   1.248   4.222  15.018  1.4243  1.2684 -0.2865
10263TIP3    H252281   1.255   4.343  15.109 -3.7872  2.0964 -0.8442
10264TIP3   OH252282   2.042   4.529  17.021 -0.8433  0.0690  0.5001
10264TIP3    H152283   2.073   4.587  16.952 -0.7585  0.2175  0.6634
10264TIP3    H252284   2.075   4.443  16.997 -0.4523  0.1950  0.5778
10265TIP3   OH252285   3.558   2.709   1.486  0.2120 -0.7349 -0.4081
10265TIP3    H152286   3.552   2.613   1.477 -0.3789 -0.9175  1.6949
10265TIP3    H252287   3.589   2.739   1.400  3.3541 -3.0773 -0.1744
10266TIP3   OH252288   5.417   4.610   3.353  0.3642  0.4464  0.2297
10266TIP3    H152289   5.426   4.701   3.324  2.5521  0.0836 -0.3532
10266TIP3    H252290   5.445   4.558   3.278 -2.6037 -0.8059 -0.0745
10267TIP3   OH252291   3.170   6.301   4.584  0.5608  0.5581 -0.2783
10267TIP3    H152292   3.136   6.384   4.552 -1.1301  0.4663  1.1978
10267TIP3    H252293   3.105   6.236   4.555  0.2674  0.1653  1.2280
10268TIP3   OH252294   4.863   2.431   4.466 -0.5546  0.3752  0.6397
10268TIP3    H152295   4.825   2.506   4.421 -1.9196 -0.8043 -0.2011
10268TIP3    H252296   4.957   2.439   4.450 -0.7996  1.2919 -0.4004
10269TIP3   OH252297   1.112   2.118  11.393 -0.1156  0.1944  0.3844
10269TIP3    H152298   1.172   2.090  11.463 -1.0285  2.3158  2.0804
10269TIP3    H252299   1.127   2.213  11.385 -0.6475  0.1351 -1.7273
10270TIP3   OH252300   1.756   4.774   1.990  0.1130 -0.1642  0.0726
10270TIP3    H152301   1.738   4.717   2.065  0.3903  1.8904  1.7578
10270TIP3    H252302   1.672   4.815   1.970  0.2695  0.0982 -0.0423
10271TIP3   OH252303   4.095   3.129  15.894  0.3108  0.1877  0.1988
10271TIP3    H152304   4.155   3.087  15.956  1.4911  1.6807  0.1057
10271TIP3    H252305   4.121   3.221  15.895 -0.9825  0.5761 -1.0094
10272TIP3   OH252306   0.163   4.611  13.895 -0.3427 -0.1580 -0.2888
10272TIP3    H152307   0.084   4.643  13.937  1.4059  0.7566  2.4328
10272TIP3    H252308   0.140   4.524  13.863 -1.5003 -1.2838  3.4095
10273TIP3   OH252309   2.048   3.171   2.963 -0.3050 -0.4326  0.2991
10273TIP3    H152310   2.121   3.146   3.020 -0.0374  1.5265  0.8369
10273TIP3    H252311   2.072   3.135   2.877  1.3703  0.2987  0.4323
10274TIP3   OH252312   2.524   0.461  14.716  0.4122 -0.3398 -0.0067
10274TIP3    H152313   2.605   0.419  14.686  0.7714  1.6982 -2.0161
10274TIP3    H252314   2.536   0.554  14.696 -2.0566  0.1197  0.4865
10275TIP3   OH252315   2.784   1.032   2.886 -0.3619 -0.7975 -0.6105
10275TIP3    H152316   2.877   1.029   2.910 -0.2343  1.7949 -0.6117
10275TIP3    H252317   2.738   1.035   2.970 -0.3704 -0.7372 -0.6172
10276TIP3   OH252318   0.433   0.985  11.461  0.1375  0.2189 -0.0714
10276TIP3    H152319   0.489   1.061  11.444 -1.2492  1.3806  0.4057
10276TIP3    H252320   0.492   0.920  11.500  0.8869  1.9627  1.8292
10277TIP3   OH252321   4.539   2.152  17.151  0.8648 -0.4349  0.1246
10277TIP3    H152322   4.557   2.141  17.057 -0.5328  0.3570 -0.2600
10277TIP3    H252323   4.621   2.186  17.187  0.7061  1.5530 -1.2667
10278TIP3   OH252324   5.399   1.046  10.917 -0.6168 -0.5031 -0.5812
10278TIP3    H152325   5.325   0.993  10.888 -0.7186 -0.7246  0.0963
10278TIP3    H252326   5.361   1.132  10.937 -1.3645 -1.7027  3.5117
10279TIP3   OH252327   0.340   4.371  14.827 -0.4333 -0.3662 -0.5485
10279TIP3    H152328   0.339   4.415  14.742 -0.7501  0.9931  0.1571
10279TIP3    H252329   0.260   4.400  14.870  0.0403 -0.5481  0.4701
10280TIP3   OH252330   0.667   4.877   4.659 -0.1911  0.3990  0.9653
10280TIP3    H152331   0.632   4.836   4.580 -1.2032  0.5777  1.3083
10280TIP3    H252332   0.661   4.971   4.641  0.9876  0.4271  0.6642
10281TIP3   OH252333   4.425   1.766   0.319  0.0176 -1.0130  0.3580
10281TIP3    H152334   4.351   1.730   0.270  0.2087 -0.9904  0.0513
10281TIP3    H252335   4.403   1.750   0.411 -0.0329 -1.6659  0.2385
10282TIP3   OH252336   3.181   0.999  12.187  0.4448  0.2631 -0.3555
10282TIP3    H152337   3.131   1.026  12.264 -0.3887 -1.2142 -0.3571
10282TIP3    H252338   3.154   1.061  12.119 -0.8404 -0.0383 -0.1489
10283TIP3   OH252339   3.535   5.948  15.863 -0.1181  0.0210 -0.2259
10283TIP3    H152340   3.524   5.950  15.768 -0.0593  0.5841 -0.2209
10283TIP3    H252341   3.445   5.954  15.897 -0.1867 -0.7961 -0.2517
10284TIP3   OH252342   5.151   0.108   0.286 -0.5600 -0.0848  0.0754
10284TIP3    H152343   5.155   0.135   0.194 -1.0292 -2.2179 -0.6051
10284TIP3    H252344   5.195   0.178   0.334  0.5912  0.5572 -1.8807
10285TIP3   OH252345   1.186   6.345  14.921 -0.3767  0.2304  0.0900
10285TIP3    H152346   1.162   6.252  14.919 -1.7218  0.5757 -0.0764
10285TIP3    H252347   1.268   6.347  14.970  0.5244 -1.2360 -1.3104
10286TIP3   OH252348   5.901   4.713  12.314 -0.1104  0.1021  0.1274
10286TIP3    H152349   5.919   4.619  12.312  0.9487  0.3186 -1.2722
10286TIP3    H252350   5.923   4.740  12.403 -0.1853 -0.9331  0.4595
10287TIP3   OH252351   1.756   2.529   0.586  0.3595 -0.7013  0.6396
10287TIP3    H152352   1.773   2.538   0.680  0.1558 -3.1049  0.9461
10287TIP3    H252353   1.790   2.610   0.548  1.2930 -0.0844  2.6787
10288TIP3   OH252354   2.924   5.425  13.449 -0.1825  0.1253  0.2588
10288TIP3    H152355   2.831   5.446  13.438  0.2749  1.8741 -0.4885
10288TIP3    H252356   2.941   5.440  13.542 -0.3964  0.9730  0.1709
10289TIP3   OH252357   1.539   3.245   4.754  0.0538 -0.4325  0.3688
10289TIP3    H152358   1.558   3.272   4.843  1.3130 -0.0638 -0.0104
10289TIP3    H252359   1.573   3.155   4.748 -1.3637 -1.0077  0.6977
10290TIP3   OH252360   5.628   0.237   3.534  0.0831  0.1975 -0.4843
10290TIP3    H152361   5.566   0.309   3.524  0.3250  0.4932  0.1006
10290TIP3    H252362   5.683   0.263   3.608 -1.0536 -1.4558  1.0034
10291TIP3   OH252363   4.215   4.701   5.389  0.3482  0.4056 -0.6103
10291TIP3    H152364   4.267   4.622   5.408  0.3929  0.8586  1.2787
10291TIP3    H252365   4.188   4.690   5.298  1.6314 -1.0623 -0.8463
10292TIP3   OH252366   1.832   0.678   3.247  0.0651 -0.0907  0.1536
10292TIP3    H152367   1.868   0.750   3.196 -0.5803  0.0984 -0.0324
10292TIP3    H252368   1.774   0.719   3.310  1.4704 -0.2469  1.5993
10293TIP3   OH252369   0.680   6.505   0.934 -0.3993  0.6449 -0.4318
10293TIP3    H152370   0.688   6.516   1.029 -0.4551  0.5771 -0.4190
10293TIP3    H252371   0.587   6.489   0.919 -0.2135 -0.5477 -0.3630
10294TIP3   OH252372   6.468   5.729  11.310 -0.3795  0.0756 -0.0750
10294TIP3    H152373   6.545   5.773  11.274 -1.1372  1.2256 -0.3086
10294TIP3    H252374   6.440   5.786  11.382 -0.0467 -1.1910  1.0764
10295TIP3   OH252375   1.768   1.599  15.329  0.5159 -0.1595  0.1003
10295TIP3    H152376   1.762   1.694  15.323 -0.4485 -0.3384 -3.1788
10295TIP3    H252377   1.853   1.578  15.290  0.4575 -0.6682  0.2482
10296TIP3   OH252378   0.221   5.601   0.185  0.4038 -0.3096  0.3904
10296TIP3    H152379   0.175   5.520   0.205  0.7055 -1.2766 -2.5885
10296TIP3    H252380   0.153   5.658   0.148  0.0215  1.1380  3.1875
10297TIP3   OH252381   6.379   0.248  13.568  0.1790 -0.2186  0.1216
10297TIP3    H152382   6.370   0.274  13.476 -1.2395  0.9958  0.5816
10297TIP3    H252383   6.306   0.188  13.583  0.3667 -0.3553  0.4938
10298TIP3   OH252384   3.470   1.594   4.628  0.5262  0.5346 -0.1568
10298TIP3    H152385   3.396   1.534   4.618 -1.1208  2.1065  2.2199
10298TIP3    H252386   3.520   1.557   4.701  1.8287 -0.2294 -1.4130
10299TIP3   OH252387   3.357   2.867  12.812  0.4565 -0.0532 -0.1725
10299TIP3    H152388   3.423   2.926  12.848 -1.4121  1.3423  1.0528
10299TIP3    H252389   3.358   2.885  12.718  2.2881 -0.5453 -0.2671
10300TIP3   OH252390   0.149   5.175  10.597 -0.4455  0.0300 -0.5186
10300TIP3    H152391   0.169   5.268  10.612  0.3704 -0.3388  0.7518
10300TIP3    H252392   0.089   5.152  10.668  0.4027 -0.7547 -0.0545
10301TIP3   OH252393   6.229   1.942   4.211 -0.5045  0.2497 -0.1521
10301TIP3    H152394   6.210   1.861   4.258 -1.6919 -0.1159 -1.2259
10301TIP3    H252395   6.310   1.974   4.250 -0.6259 -0.8644  1.0512
10302TIP3   OH252396   4.905   2.199   0.320  0.0583 -0.1248  0.4446
10302TIP3    H152397   4.872   2.289   0.334  2.3878  0.7576  0.4507
10302TIP3    H252398   4.937   2.172   0.406 -0.3292 -0.8384  0.3665
10303TIP3   OH252399   4.523   1.710  12.422 -0.6054  0.2745 -0.5646
10303TIP3    H152400   4.579   1.648  12.377  0.7753 -0.0558  1.5722
10303TIP3    H252401   4.529   1.790  12.369  1.6922  0.1792 -0.4759
10304TIP3   OH252402   1.902   2.022   2.667 -0.4516  0.4188 -0.1059
10304TIP3    H152403   1.939   2.081   2.601 -0.5376 -0.6492 -1.1228
10304TIP3    H252404   1.808   2.038   2.663 -0.8782 -2.3879 -3.0066
10305TIP3   OH252405   5.029   4.959   2.790  0.2646 -0.3360 -0.1280
10305TIP3    H152406   4.977   4.903   2.847 -1.0666  0.3986 -0.5989
10305TIP3    H252407   5.027   4.915   2.705 -0.6871  0.3512 -0.4702
10306TIP3   OH252408   3.715   6.415  16.256  0.2762  0.2474 -0.0997
10306TIP3    H152409   3.663   6.493  16.273  0.1870  0.2073 -0.1909
10306TIP3    H252410   3.790   6.423  16.315  0.0279  0.1717  0.2320
10307TIP3   OH252411   3.564   3.732  14.984  0.4605  0.5479 -0.3148
10307TIP3    H152412   3.603   3.684  14.911  0.8661  0.9273 -0.3499
10307TIP3    H252413   3.639   3.757  15.039  0.1236 -0.1126  0.4589
10308TIP3   OH252414   5.417   5.543   0.426 -0.6932  0.1773 -0.0669
10308TIP3    H152415   5.425   5.537   0.521 -2.0153  0.4245  0.0679
10308TIP3    H252416   5.436   5.635   0.406  0.1661 -0.0069 -0.1053
10309TIP3   OH252417   3.192   2.638   0.533 -0.3919  0.7202  0.0733
10309TIP3    H152418   3.112   2.690   0.533 -0.6521  0.3202  0.0813
10309TIP3    H252419   3.167   2.556   0.574  0.4124  1.1879  1.5420
10310TIP3   OH252420   4.772   1.042   5.160 -0.1218  0.0061  0.5901
10310TIP3    H152421   4.775   1.068   5.068 -1.2544  1.8932  1.0511
10310TIP3    H252422   4.818   0.959   5.164 -0.0538 -0.0722 -1.6856
10311TIP3   OH252423   6.690   2.634   3.741 -0.3600 -0.0621 -0.3923
10311TIP3    H152424   6.760   2.569   3.735 -1.0869 -1.0052  1.0148
10311TIP3    H252425   6.732   2.711   3.779 -0.1008 -0.6810  0.6036
10312TIP3   OH252426   6.299   5.881   1.767  0.5926  0.1395  0.0446
10312TIP3    H152427   6.307   5.842   1.681  1.7760  1.8373 -0.6458
10312TIP3    H252428   6.220   5.841   1.804 -0.6406  0.2758 -2.3060
10313TIP3   OH252429   1.168   3.757   4.772  0.2279 -0.1401  0.2479
10313TIP3    H152430   1.193   3.692   4.706 -0.5617  0.0524 -0.2543
10313TIP3    H252431   1.179   3.712   4.855 -0.8630 -1.1141 -0.1236
10314TIP3   OH252432   6.720   2.048   6.332  0.0957 -0.0890 -0.2788
10314TIP3    H152433   6.778   1.976   6.357  0.8764  1.1097  1.4137
10314TIP3    H252434   6.639   2.032   6.381  0.2862  0.2176  0.1329
10315TIP3   OH252435   5.888   2.105   0.354  0.1573  0.3233 -0.2473
10315TIP3    H152436   5.977   2.078   0.375 -0.7028 -0.2463  2.9119
10315TIP3    H252437   5.855   2.036   0.297  0.7785 -0.9557  0.9293
10316TIP3   OH252438   3.191   1.039   3.030 -0.8062 -0.2081  0.1031
10316TIP3    H152439   3.198   1.093   2.952 -1.6250 -1.0845 -0.5879
10316TIP3    H252440   3.222   0.953   3.002 -1.0446 -0.5071  0.7603
10317TIP3   OH252441   5.405   1.860  14.489 -0.3714  0.2471  0.0664
10317TIP3    H152442   5.379   1.939  14.442 -1.1021  0.4208  0.7657
10317TIP3    H252443   5.479   1.888  14.543 -1.3596  0.7359  1.1854
10318TIP3   OH252444   5.616   0.778   4.722 -0.3376 -0.2065 -0.2830
10318TIP3    H152445   5.660   0.820   4.648  0.1400 -2.6599 -1.4336
10318TIP3    H252446   5.687   0.755   4.782 -0.4259 -0.9586 -0.4723
10319TIP3   OH252447   4.680   2.954   5.386 -0.2681 -0.3770 -0.7034
10319TIP3    H152448   4.692   3.041   5.424 -0.6899 -0.3548 -0.6223
10319TIP3    H252449   4.621   2.909   5.446 -0.9297 -0.3411 -1.3211
10320TIP3   OH252450   1.280   6.696  11.434  0.2610  0.3592  0.2436
10320TIP3    H152451   1.303   6.747  11.356  0.1217 -0.8458 -0.5998
10320TIP3    H252452   1.184   6.695  11.434  0.2620  0.2550  0.3702
10321TIP3   OH252453   4.124   2.828  14.130 -1.1487 -0.1427 -0.0317
10321TIP3    H152454   4.059   2.866  14.070  0.5812  0.2690 -1.6721
10321TIP3    H252455   4.196   2.891  14.131 -0.1366 -1.2954  0.6533
10322TIP3   OH252456   6.741   3.875   2.230 -0.0289 -0.1956 -0.5802
10322TIP3    H152457   6.662   3.822   2.237  0.2277 -0.5730 -0.5325
10322TIP3    H252458   6.803   3.834   2.289 -0.4729  1.3206  0.9831
10323TIP3   OH252459   1.763   1.327   0.552 -0.3836  0.2086  0.3668
10323TIP3    H152460   1.822   1.252   0.562 -0.4387  0.1085 -0.0419
10323TIP3    H252461   1.720   1.335   0.637 -1.6220 -1.2793 -0.1102
10324TIP3   OH252462   3.326   3.831  14.767 -0.2957  0.4318  0.4781
10324TIP3    H152463   3.338   3.745  14.807  0.9752  0.1998 -0.3655
10324TIP3    H252464   3.252   3.820  14.708  1.2372 -0.7036 -1.2784
10325TIP3   OH252465   2.580   0.574  12.227  0.7678  0.0856  0.1239
10325TIP3    H152466   2.569   0.574  12.322  0.8849  1.6594  0.1491
10325TIP3    H252467   2.624   0.491  12.209 -0.6777 -0.9607  1.2530
10326TIP3   OH252468   6.061   0.303  15.278 -0.0789 -0.0572 -0.0932
10326TIP3    H152469   5.981   0.252  15.291 -1.2137  1.0537 -2.5216
10326TIP3    H252470   6.031   0.388  15.248  2.0605 -0.2122 -2.8722
10327TIP3   OH252471   4.710   4.736  13.652 -0.2382  0.7946  0.0578
10327TIP3    H152472   4.626   4.693  13.640  1.5472 -2.6087 -0.7291
10327TIP3    H252473   4.773   4.680  13.608  2.7596  2.1416  2.4152
10328TIP3   OH252474   0.516   3.874  14.913 -0.2344  0.1292 -0.1230
10328TIP3    H152475   0.588   3.898  14.971  1.5458 -1.6534 -1.5341
10328TIP3    H252476   0.529   3.780  14.896 -1.7659  0.2181 -1.9406
10329TIP3   OH252477   0.755   2.422   4.348 -0.3234 -0.0809 -0.1388
10329TIP3    H152478   0.759   2.439   4.254 -0.0534  2.0095  0.2334
10329TIP3    H252479   0.791   2.501   4.389  1.3078 -1.7091  1.6805
10330TIP3   OH252480   1.061   6.205  16.049 -0.8026  0.5090 -0.1298
10330TIP3    H152481   1.081   6.270  16.117  1.6074 -1.3591  1.0213
10330TIP3    H252482   1.144   6.191  16.004 -1.7759 -0.2556 -1.7385
10331TIP3   OH252483   5.195   0.770   4.512 -0.4247 -0.3846  0.2183
10331TIP3    H152484   5.160   0.688   4.477 -0.5925 -0.3919  0.4081
10331TIP3    H252485   5.184   0.763   4.606 -0.4663 -0.1296  0.2325
10332TIP3   OH252486   3.012   2.505  15.484 -0.2067  0.8094  0.1305
10332TIP3    H152487   3.065   2.430  15.510  0.7280  1.3989 -0.0694
10332TIP3    H252488   2.983   2.485  15.395  0.8060  1.0942 -0.2716
10333TIP3   OH252489   1.039   6.650   1.933 -0.0145 -0.1985 -0.2501
10333TIP3    H152490   1.009   6.719   1.874  0.4108  0.6529  0.5199
10333TIP3    H252491   0.967   6.637   1.994  1.4771  2.5417  2.2148
10334TIP3   OH252492   6.019   4.371  15.741 -0.1604  0.3346 -0.1949
10334TIP3    H152493   6.063   4.399  15.660 -2.4297  2.1915 -0.8407
10334TIP3    H252494   6.054   4.430  15.808 -1.6164  1.8279 -0.7138
10335TIP3   OH252495   6.150   5.038   3.930 -0.0877 -0.0139 -0.3457
10335TIP3    H152496   6.068   5.069   3.890  0.0092  0.5342 -0.1292
10335TIP3    H252497   6.159   5.090   4.009 -0.2587 -1.0712  0.3784
10336TIP3   OH252498   5.875   3.557   5.277  0.1625  0.0303  0.5239
10336TIP3    H152499   5.950   3.591   5.327  0.0113  0.2742  0.5837
10336TIP3    H252500   5.845   3.482   5.329  1.8450 -1.5527 -0.7124
10337TIP3   OH252501   1.120   3.885  16.126  0.1788 -0.1696  0.5703
10337TIP3    H152502   1.067   3.963  16.113 -1.8179 -1.4330  0.9120
10337TIP3    H252503   1.161   3.897  16.212 -2.6070 -0.8754  2.0524
10338TIP3   OH252504   0.229   2.682   3.665  0.2921 -0.3295  0.6714
10338TIP3    H152505   0.310   2.667   3.617  1.0532  1.4742  1.3486
10338TIP3    H252506   0.181   2.747   3.613  0.2638  0.2113  1.3664
10339TIP3   OH252507   2.372   5.724  11.094  0.1073  0.1250 -0.6974
10339TIP3    H152508   2.320   5.715  11.014 -2.7351 -1.6089  1.2517
10339TIP3    H252509   2.364   5.816  11.118 -1.9933 -0.1134 -0.4728
10340TIP3   OH252510   4.868   5.300   0.500 -0.0415  0.4754  0.2951
10340TIP3    H152511   4.905   5.350   0.572  0.0711 -1.5510  1.6741
10340TIP3    H252512   4.943   5.255   0.461 -0.3731  0.0881  0.1033
10341TIP3   OH252513   1.544   0.586   1.859  0.1339 -0.1991 -0.2747
10341TIP3    H152514   1.517   0.511   1.807  1.1767 -0.1147 -0.9517
10341TIP3    H252515   1.467   0.642   1.864 -0.3775 -0.8858 -0.5257
10342TIP3   OH252516   3.699   4.907   3.862 -0.0937 -0.1339 -0.0635
10342TIP3    H152517   3.760   4.972   3.828 -0.3271  0.7310  1.1552
10342TIP3    H252518   3.736   4.880   3.946 -0.2433 -1.2454 -0.3371
10343TIP3   OH252519   5.397   1.184   0.152  0.1402 -0.3591 -0.2376
10343TIP3    H152520   5.479   1.184   0.102 -0.2136 -0.6855 -0.8111
10343TIP3    H252521   5.425   1.176   0.243  0.6454 -2.7719 -0.5788
10344TIP3   OH252522   4.435   2.986   1.392  0.4336 -0.1666 -0.0602
10344TIP3    H152523   4.380   2.983   1.314  1.1321  0.9891 -0.6081
10344TIP3    H252524   4.524   2.980   1.358  0.8133  1.8059  0.5231
10345TIP3   OH252525   2.644   3.897   3.689 -0.0202  0.0597 -0.5660
10345TIP3    H152526   2.722   3.867   3.641 -0.1597 -2.1163  0.4804
10345TIP3    H252527   2.645   3.845   3.770 -1.1554  1.8726  0.6317
10346TIP3   OH252528   3.397   2.961  11.395  0.1743  0.1420 -0.3043
10346TIP3    H152529   3.426   2.972  11.305  1.6977 -1.5474 -0.0436
10346TIP3    H252530   3.323   2.901  11.390  1.3716 -1.3520 -0.2734
10347TIP3   OH252531   5.778   3.965  12.777 -0.1292  0.1616  0.8665
10347TIP3    H152532   5.730   4.039  12.738 -0.6504 -1.1818 -1.1595
10347TIP3    H252533   5.869   3.981  12.751  0.1602  1.3886  2.5669
10348TIP3   OH252534   1.059   3.317   5.754 -0.2832  0.2938  0.9174
10348TIP3    H152535   0.983   3.343   5.805 -2.3555  0.1354 -1.9723
10348TIP3    H252536   1.025   3.256   5.689  1.8784  1.9096 -1.8652
10349TIP3   OH252537   4.251   3.965  13.935 -0.0388  0.3092  0.3801
10349TIP3    H152538   4.256   4.033  14.001 -3.4192 -1.0732  2.2083
10349TIP3    H252539   4.318   3.901  13.961 -0.5795  0.3201  1.8559
10350TIP3   OH252540   0.388   1.036  10.156 -0.6708  0.2581 -0.2185
10350TIP3    H152541   0.300   1.047  10.190 -0.3500 -0.3598  0.8515
10350TIP3    H252542   0.403   0.941  10.157 -0.5423  0.2390 -1.8345
10351TIP3   OH252543   3.938   3.654  16.939  0.6154 -0.5429  0.7509
10351TIP3    H152544   3.845   3.630  16.934  0.1881  1.5383 -3.7770
10351TIP3    H252545   3.942   3.724  17.003 -1.1091  0.0109  0.2665
10352TIP3   OH252546   0.139   6.531   0.965 -0.0444 -0.6067  0.2885
10352TIP3    H152547   0.155   6.488   1.049  0.3375 -0.3050  0.3732
10352TIP3    H252548   0.046   6.520   0.950 -0.1204 -0.6430  0.7651
10353TIP3   OH252549   4.890   4.037   3.525  0.1080 -0.1737 -0.4163
10353TIP3    H152550   4.906   3.943   3.511  0.7557 -0.4626  1.9639
10353TIP3    H252551   4.974   4.079   3.507  1.3642 -0.7067  3.5532
10354TIP3   OH252552   4.817   3.043   1.118 -0.6218 -0.5026 -0.4754
10354TIP3    H152553   4.854   2.955   1.116 -0.7927 -0.5764 -0.4175
10354TIP3    H252554   4.892   3.100   1.136 -0.4739 -0.6138 -0.7422
10355TIP3   OH252555   1.826   0.360   6.065 -0.0079 -0.0332 -0.1886
10355TIP3    H152556   1.808   0.404   6.148 -1.7345 -0.6736 -0.1960
10355TIP3    H252557   1.816   0.267   6.085  3.2235 -0.4435 -0.2578
10356TIP3   OH252558   2.194   5.016  12.455 -0.4065  0.2103  0.0612
10356TIP3    H152559   2.267   4.969  12.494  1.2262  0.2306 -2.8019
10356TIP3    H252560   2.234   5.086  12.403 -2.4378  0.4540 -1.2813
10357TIP3   OH252561   4.827   0.526   4.153  0.2547  0.1277  0.0764
10357TIP3    H152562   4.875   0.529   4.070 -0.5142 -0.2103 -0.3847
10357TIP3    H252563   4.735   0.519   4.127 -0.2612  2.9158  0.9011
10358TIP3   OH252564   1.069   3.334   0.416 -0.4180 -0.4057  0.3110
10358TIP3    H152565   0.975   3.317   0.406 -0.7310  2.5043 -2.6954
10358TIP3    H252566   1.073   3.417   0.464  0.5595  0.1350 -0.6834
10359TIP3   OH252567   3.588   0.886   6.477 -0.2573 -0.2106 -0.0728
10359TIP3    H152568   3.528   0.836   6.532 -1.9080  2.2412  0.4458
10359TIP3    H252569   3.530   0.943   6.425  1.4515 -0.2196 -2.0383
10360TIP3   OH252570   4.805   0.538  16.585 -0.2039  0.4679  0.1944
10360TIP3    H152571   4.856   0.486  16.646 -1.7544 -2.1668 -0.6939
10360TIP3    H252572   4.714   0.511  16.600 -0.9319  2.0427 -1.1348
10361TIP3   OH252573   2.688   6.107  14.054 -0.0033  0.1136  0.2736
10361TIP3    H152574   2.638   6.061  13.986 -1.2281  2.0676 -0.1926
10361TIP3    H252575   2.669   6.059  14.135 -2.3068  0.5398  0.0138
10362TIP3   OH252576   2.998   0.729  14.174 -0.9036  0.2063  0.0930
10362TIP3    H152577   2.931   0.724  14.106  0.6346  2.2151 -1.6002
10362TIP3    H252578   2.960   0.788  14.240 -2.7417 -2.3943  1.4699
10363TIP3   OH252579   1.609   0.514   6.696  0.4089 -0.0172 -0.0560
10363TIP3    H152580   1.648   0.430   6.672 -1.5367 -0.6537 -1.1590
10363TIP3    H252581   1.602   0.510   6.791  1.0612 -0.7860 -0.0316
10364TIP3   OH252582   1.664   1.929   4.686 -0.5815 -0.2433 -0.3851
10364TIP3    H152583   1.615   2.007   4.711  3.1613  2.3634 -0.7134
10364TIP3    H252584   1.662   1.930   4.590 -1.4910 -1.2419 -0.3871
10365TIP3   OH252585   6.747   1.122  11.494  0.1465 -0.3721  0.6994
10365TIP3    H152586   6.696   1.071  11.558 -0.0335  0.8731  1.5649
10365TIP3    H252587   6.682   1.171  11.444  0.2719 -1.5257 -0.6285
10366TIP3   OH252588   4.828   0.381   0.337  0.5106 -0.5432 -1.0327
10366TIP3    H152589   4.761   0.370   0.270  0.1465 -1.4463 -0.5265
10366TIP3    H252590   4.828   0.475   0.356 -0.7182 -0.5544 -0.9250
10367TIP3   OH252591   5.772   1.525  14.316 -0.2005  0.5136 -0.1995
10367TIP3    H152592   5.807   1.471  14.386  0.2891 -0.5024 -1.2114
10367TIP3    H252593   5.779   1.614  14.349  0.7133  0.1112  0.7412
10368TIP3   OH252594   2.001   4.558  15.093  0.0912 -0.0355 -0.3728
10368TIP3    H152595   1.944   4.604  15.032 -0.6424 -1.5839 -0.8802
10368TIP3    H252596   1.956   4.475  15.111  0.1041  0.5573  2.6002
10369TIP3   OH252597   2.005   2.660  12.852 -0.0489 -0.0307  0.4874
10369TIP3    H152598   2.095   2.691  12.855  0.1125 -0.3072 -1.0207
10369TIP3    H252599   2.013   2.565  12.840 -0.5417 -0.0106  0.0036
10370TIP3   OH252600   0.485   5.574  11.172 -0.7880 -0.4273  0.1673
10370TIP3    H152601   0.402   5.619  11.190  0.9233  2.8042  0.4111
10370TIP3    H252602   0.514   5.610  11.088 -0.2835 -2.5786 -0.6011
10371TIP3   OH252603   3.905   4.156  12.623 -0.0581 -0.0518 -0.1105
10371TIP3    H152604   3.991   4.119  12.601  0.0810  0.0188  0.2953
10371TIP3    H252605   3.879   4.205  12.545  0.3680  0.0971 -0.1616
10372TIP3   OH252606   1.177   2.139  16.179  0.3211  0.1134  0.4306
10372TIP3    H152607   1.222   2.061  16.147 -1.1955 -0.8228  0.5277
10372TIP3    H252608   1.220   2.212  16.134  1.6369 -0.7904  0.2080
10373TIP3   OH252609   3.065   5.446  15.622  0.0426  0.1359  0.4645
10373TIP3    H152610   3.107   5.531  15.638  0.4520 -0.2143  1.2740
10373TIP3    H252611   3.138   5.384  15.615 -0.2929 -0.3270  0.9616
10374TIP3   OH252612   4.245   3.380  10.850 -0.6888 -0.4118  0.3060
10374TIP3    H152613   4.288   3.315  10.794 -0.4790  1.1384 -1.3790
10374TIP3    H252614   4.291   3.462  10.831 -1.0719  0.2799  2.2672
10375TIP3   OH252615   1.744   3.614  16.137 -0.8542  0.3234 -0.6070
10375TIP3    H152616   1.704   3.527  16.141 -1.7580  0.6175 -2.4306
10375TIP3    H252617   1.721   3.655  16.221 -0.2049 -1.2668  0.3659
10376TIP3   OH252618   2.753   6.717   0.878  0.0157 -0.2314 -0.0424
10376TIP3    H152619   2.831   6.771   0.874 -0.5815  0.7762  1.5507
10376TIP3    H252620   2.783   6.634   0.916  0.3631  0.0469  0.2854
10377TIP3   OH252621   1.605   4.503   1.448 -0.0492 -0.5397 -0.0237
10377TIP3    H152622   1.568   4.415   1.446  0.8382 -0.9282  0.2815
10377TIP3    H252623   1.569   4.546   1.370 -0.8777 -1.0098  0.1024
10378TIP3   OH252624   0.651   2.711  11.328  0.1360 -0.8672  0.1621
10378TIP3    H152625   0.723   2.660  11.365  0.3202 -1.2367 -0.7029
10378TIP3    H252626   0.598   2.646  11.282 -0.3699 -0.4846  0.2042
10379TIP3   OH252627   2.442   3.158  11.100 -0.1358  0.7570  0.4058
10379TIP3    H152628   2.417   3.127  11.187  0.5876 -0.3939  0.2126
10379TIP3    H252629   2.535   3.136  11.093 -0.2193  0.7356 -0.7126
10380TIP3   OH252630   2.561   3.673   5.603 -0.3462 -0.4378 -0.2864
10380TIP3    H152631   2.467   3.692   5.602 -0.5330 -1.2571  0.1795
10380TIP3    H252632   2.566   3.587   5.645  0.7265  0.2665  1.0753
10381TIP3   OH252633   0.284   5.308   0.848  0.1582  0.3491 -0.4389
10381TIP3    H152634   0.200   5.352   0.865 -0.4889  0.0547 -2.7231
10381TIP3    H252635   0.350   5.374   0.870 -0.6280  0.3861  1.9465
10382TIP3   OH252636   5.288   1.702  12.135 -0.3362 -0.1693  0.4132
10382TIP3    H152637   5.332   1.736  12.057 -0.3120  0.3828  0.6710
10382TIP3    H252638   5.339   1.625  12.159 -0.4226 -0.4255 -0.1953
10383TIP3   OH252639   4.396   5.563  12.754 -0.4393 -0.4609 -0.3091
10383TIP3    H152640   4.314   5.585  12.798 -0.6503  1.7652 -1.6842
10383TIP3    H252641   4.371   5.496  12.690 -0.7417 -1.3810  0.7546
10384TIP3   OH252642   2.434   1.549  14.338 -0.1037 -0.6264 -0.2364
10384TIP3    H152643   2.477   1.473  14.378  1.4138 -0.1028 -0.8548
10384TIP3    H252644   2.505   1.611  14.321 -1.3988  1.2027  0.8244
10385TIP3   OH252645   5.273   6.122   2.691  0.5513 -0.5662 -0.1218
10385TIP3    H152646   5.204   6.060   2.666  0.3361 -0.1986 -0.4532
10385TIP3    H252647   5.344   6.067   2.723  0.5513 -1.0103 -0.8770
10386TIP3   OH252648   0.289   1.321   2.424  0.2009  0.1058 -0.4415
10386TIP3    H152649   0.358   1.382   2.398  0.0742 -0.0587 -1.1739
10386TIP3    H252650   0.335   1.242   2.451  0.3025  0.0330 -0.8301
10387TIP3   OH252651   0.008   4.977   2.921  0.1391  0.0557  0.3104
10387TIP3    H152652   0.003   5.021   2.836  0.7783 -1.2120 -0.4017
10387TIP3    H252653   0.047   4.891   2.902  0.2243 -0.2790  1.8684
10388TIP3   OH252654   5.893   0.755  13.944  0.6595 -0.0853 -0.4137
10388TIP3    H152655   5.818   0.807  13.915  1.1349  1.2225  0.6285
10388TIP3    H252656   5.961   0.774  13.880  0.4936 -0.2727 -0.6449
10389TIP3   OH252657   4.451   6.321  14.423 -0.3179  0.0407  0.5902
10389TIP3    H152658   4.356   6.312  14.419 -0.1857 -0.9346 -0.6259
10389TIP3    H252659   4.472   6.386  14.356 -0.2584  1.3707  1.8809
10390TIP3   OH252660   2.387   4.036  14.848 -0.3917 -0.0364 -0.0205
10390TIP3    H152661   2.475   4.070  14.863 -0.6528  0.6977 -0.1446
10390TIP3    H252662   2.335   4.112  14.822 -1.1098 -0.4271  0.2360
10391TIP3   OH252663   5.432   5.294  16.849 -0.0980  0.1949 -0.4801
10391TIP3    H152664   5.348   5.261  16.817 -0.4809  1.6290 -1.0193
10391TIP3    H252665   5.498   5.239  16.806 -0.7456 -0.5708 -0.4917
10392TIP3   OH252666   6.354   2.563   4.427 -0.0221 -0.1581  0.3448
10392TIP3    H152667   6.344   2.549   4.521 -0.4988 -0.6268  0.2258
10392TIP3    H252668   6.393   2.482   4.394  0.7481  0.2589  0.2406
10393TIP3   OH252669   6.039   6.222  13.052 -0.7023  0.3357  0.0777
10393TIP3    H152670   6.088   6.158  13.103 -1.5027  1.3213  2.1199
10393TIP3    H252671   6.077   6.306  13.076 -1.1717  0.8268 -0.8683
10394TIP3   OH252672   4.467   4.611  13.578 -0.6715  0.6932 -0.4495
10394TIP3    H152673   4.465   4.551  13.653  1.1043  0.2162 -0.7591
10394TIP3    H252674   4.429   4.692  13.612  1.3367  0.9318  1.4193
10395TIP3   OH252675   3.976   2.794  12.036 -0.2028  0.1611 -0.3267
10395TIP3    H152676   3.918   2.741  11.982 -0.1246 -0.6844  0.3954
10395TIP3    H252677   4.036   2.835  11.974 -0.5714 -0.2130 -0.9394
10396TIP3   OH252678   0.251   2.756   0.580 -0.1116  0.1002 -0.1375
10396TIP3    H152679   0.241   2.684   0.516 -0.5577  0.3004 -0.2929
10396TIP3    H252680   0.162   2.786   0.596 -0.0973 -0.5538  1.2869
10397TIP3   OH252681   2.717   5.156   0.948  0.3288 -0.4979 -0.5916
10397TIP3    H152682   2.712   5.251   0.957  0.0151 -0.4681 -1.0368
10397TIP3    H252683   2.713   5.141   0.853  0.1981 -0.9663 -0.5121
10398TIP3   OH252684   0.185   3.310   3.069  0.2159 -0.0228  0.1390
10398TIP3    H152685   0.113   3.367   3.041  1.3166  0.0235 -2.7148
10398TIP3    H252686   0.142   3.238   3.115 -1.5493  0.6117 -0.4777
10399TIP3   OH252687   3.306   1.273  13.840 -0.1711 -0.1067  0.1945
10399TIP3    H152688   3.350   1.307  13.918 -1.8277  2.5217  0.0269
10399TIP3    H252689   3.327   1.179  13.840  0.9193  0.0835  3.0719
10400TIP3   OH252690   2.351   0.635   0.231  0.1778 -0.0623  0.2197
10400TIP3    H152691   2.428   0.685   0.258 -1.1363  1.3305  1.5198
10400TIP3    H252692   2.286   0.652   0.300 -0.6535 -2.7670  0.1703
10401TIP3   OH252693   0.433   2.868  13.827 -0.0531 -0.5870  0.2643
10401TIP3    H152694   0.520   2.856  13.788 -0.6788 -0.8524 -1.0656
10401TIP3    H252695   0.439   2.826  13.912  0.8569 -1.3978 -0.1879
10402TIP3   OH252696   0.225   6.238   0.027 -0.3282  0.2240 -0.1643
10402TIP3    H152697   0.303   6.268  -0.018  0.5004 -0.0037  1.0790
10402TIP3    H252698   0.193   6.165  -0.026  1.5769 -1.1268  0.4735
10403TIP3   OH252699   4.163   3.072  14.731 -0.4848  0.0296 -0.2778
10403TIP3    H152700   4.256   3.087  14.751 -0.3680  1.6512 -1.9424
10403TIP3    H252701   4.164   3.003  14.665 -0.4489  0.0638 -0.3129
10404TIP3   OH252702   0.985   0.436   3.762 -0.7492 -0.0873  0.1974
10404TIP3    H152703   1.077   0.451   3.742 -1.0671  0.4262 -0.9454
10404TIP3    H252704   0.948   0.524   3.772 -1.0384 -0.3005  1.0484
10405TIP3   OH252705   3.707   0.077  12.171 -0.1459  0.1888  0.1540
10405TIP3    H152706   3.706  -0.012  12.207 -0.0094  0.6077  1.2010
10405TIP3    H252707   3.794   0.110  12.192 -0.8112  1.2093  1.3313
10406TIP3   OH252708   0.895   6.657   3.294  0.2141  0.2999  0.4697
10406TIP3    H152709   0.858   6.671   3.207  0.1939  1.7285  0.7039
10406TIP3    H252710   0.839   6.590   3.333 -0.5863  0.6285 -0.1076
10407TIP3   OH252711   4.466   3.414  13.192  0.0640 -0.2823  0.5270
10407TIP3    H152712   4.470   3.367  13.275  1.7007 -1.2860 -0.0796
10407TIP3    H252713   4.558   3.422  13.165 -0.3921  0.7350 -0.7901
10408TIP3   OH252714   3.991   3.151  12.081 -0.1222  0.6023  0.1028
10408TIP3    H152715   4.014   3.242  12.102 -0.6578  1.1512 -1.6733
10408TIP3    H252716   3.898   3.154  12.060  0.1155 -0.1586 -1.0927
10409TIP3   OH252717   4.409   2.526  15.314  0.6083 -0.7745  0.6359
10409TIP3    H152718   4.493   2.539  15.359  1.6616  3.5797 -2.2180
10409TIP3    H252719   4.345   2.570  15.370  1.2663  1.1202 -0.0492
10410TIP3   OH252720   4.519   5.414  15.254  0.3936  0.8861  0.0945
10410TIP3    H152721   4.457   5.487  15.248 -0.7105 -0.1347 -1.2948
10410TIP3    H252722   4.569   5.418  15.173 -0.2263 -0.3641 -0.3666
10411TIP3   OH252723   3.745   5.767   4.114 -0.6393 -0.1930  0.9867
10411TIP3    H152724   3.775   5.817   4.189 -0.7886 -1.6957  2.0681
10411TIP3    H252725   3.661   5.729   4.142 -1.7234  0.8878 -0.6545
10412TIP3   OH252726   4.283   0.306  15.702  0.7826  0.4492 -0.8185
10412TIP3    H152727   4.201   0.326  15.657  0.6855  0.2744 -0.7176
10412TIP3    H252728   4.340   0.271  15.634 -0.4143 -2.7892 -0.2122
10413TIP3   OH252729   0.858   1.044  12.503 -0.4982 -0.3895 -0.2768
10413TIP3    H152730   0.931   0.992  12.471 -0.2570 -0.1982 -0.0362
10413TIP3    H252731   0.810   1.069  12.424  1.6309  2.3971 -0.7598
10414TIP3   OH252732   6.264   3.572   3.942  0.1746  0.1335 -0.1465
10414TIP3    H152733   6.244   3.638   4.009 -1.2040 -0.3747 -0.0397
10414TIP3    H252734   6.183   3.563   3.892  0.8985 -0.1916 -1.2898
10415TIP3   OH252735   0.752   0.213   1.228  0.0977  0.6438  0.4404
10415TIP3    H152736   0.819   0.231   1.161  0.8218 -0.1156  0.9471
10415TIP3    H252737   0.800   0.214   1.311 -0.4955 -0.0256  0.7989
10416TIP3   OH252738   2.391   4.864   2.034  0.0290 -0.4574 -0.0306
10416TIP3    H152739   2.407   4.954   2.004 -0.2194 -0.1607  0.7116
10416TIP3    H252740   2.395   4.811   1.955  0.0490  0.2296 -0.4927
10417TIP3   OH252741   3.376   4.121  15.235 -0.0833 -0.2974  0.9143
10417TIP3    H152742   3.410   4.210  15.238  2.7538 -1.3808  3.9766
10417TIP3    H252743   3.398   4.089  15.148  0.6924  1.3224  0.4987
10418TIP3   OH252744   3.944   0.527   4.828 -0.2831 -0.9104 -0.0777
10418TIP3    H152745   3.921   0.538   4.736 -1.2279  0.7439  0.3450
10418TIP3    H252746   4.025   0.576   4.839 -1.0871  0.3261  0.3587
10419TIP3   OH252747   0.218   1.942   1.696 -0.1144 -0.5418 -0.3304
10419TIP3    H152748   0.233   1.849   1.677  1.4284 -0.3685 -0.0463
10419TIP3    H252749   0.167   1.942   1.777 -0.1860 -1.1491 -0.3727
10420TIP3   OH252750   6.339   2.265  11.382  0.0065  0.3370  0.3275
10420TIP3    H152751   6.353   2.189  11.439 -2.5228  0.5480  1.2947
10420TIP3    H252752   6.280   2.233  11.314  0.4600  0.9406 -0.3453
10421TIP3   OH252753   3.778   5.572  12.724 -0.2702  0.1792 -0.1681
10421TIP3    H152754   3.769   5.592  12.630  1.1354  1.6421 -0.0107
10421TIP3    H252755   3.872   5.572  12.740 -0.4729 -0.9794  1.0716
10422TIP3   OH252756   5.823   6.043   1.876 -0.3329  0.2777 -0.7560
10422TIP3    H152757   5.916   6.034   1.897 -0.3637  2.0952  0.2663
10422TIP3    H252758   5.782   5.965   1.915  0.7534 -0.5309 -1.2078
10423TIP3   OH252759   2.431   2.296   2.735  0.8430 -0.0134  0.0767
10423TIP3    H152760   2.521   2.319   2.755  1.5178 -1.5428 -1.0605
10423TIP3    H252761   2.402   2.362   2.672  0.2535  2.0486  2.4263
10424TIP3   OH252762   3.192   0.971  13.416  0.1846  0.0607 -0.0748
10424TIP3    H152763   3.210   1.052  13.464  0.7629 -0.2593  0.2547
10424TIP3    H252764   3.262   0.967  13.350 -0.0745  0.0317 -0.3486
10425TIP3   OH252765   1.975   4.881  14.035 -0.3503  0.5062  0.4749
10425TIP3    H152766   1.928   4.901  14.115  0.5049  2.8670  0.4174
10425TIP3    H252767   2.048   4.944  14.033  1.1178 -1.1646 -0.8733
10426TIP3   OH252768   0.887   1.997  12.323  0.5383  0.1321  0.4415
10426TIP3    H152769   0.899   2.034  12.236 -1.3792  2.8926  1.2688
10426TIP3    H252770   0.830   1.921  12.309  0.5443  0.3442 -0.7708
10427TIP3   OH252771   0.428   3.293  11.920 -0.3963 -0.1836  0.6039
10427TIP3    H152772   0.382   3.211  11.900 -1.0054  0.4888 -0.8139
10427TIP3    H252773   0.483   3.308  11.843 -0.2957  0.7386  0.8595
10428TIP3   OH252774   3.321   1.010  17.233 -0.2881  0.0608 -0.1509
10428TIP3    H152775   3.253   1.011  17.301  0.4955  1.7343  0.6589
10428TIP3    H252776   3.392   0.960  17.271 -0.7076 -0.9275 -0.6450
10429TIP3   OH252777   5.524   5.823  16.299  0.0416  0.0456 -0.9315
10429TIP3    H152778   5.582   5.766  16.348 -3.2977 -1.6311  1.3083
10429TIP3    H252779   5.515   5.901  16.355  0.8372  0.6885 -1.6952
10430TIP3   OH252780   1.187   2.908  14.341  0.4576 -0.0112 -0.0516
10430TIP3    H152781   1.186   2.928  14.248  0.9318 -0.8560 -0.2510
10430TIP3    H252782   1.154   2.818  14.346 -2.5883  1.0911  0.9029
10431TIP3   OH252783   5.311   5.481  10.622  0.6231  0.2434 -0.4816
10431TIP3    H152784   5.251   5.492  10.548 -1.7863  0.1540  1.4033
10431TIP3    H252785   5.271   5.414  10.677  2.6375 -0.0774  0.6619
10432TIP3   OH252786   2.232   2.821  16.256 -0.1599  0.1622  0.0070
10432TIP3    H152787   2.215   2.730  16.281  0.6885  0.1768  0.6409
10432TIP3    H252788   2.235   2.819  16.160 -1.5605 -0.2225 -0.0442
10433TIP3   OH252789   0.568   6.311   4.878 -0.0840 -0.7627  0.5476
10433TIP3    H152790   0.534   6.222   4.882 -2.9471  0.1981 -1.3382
10433TIP3    H252791   0.505   6.363   4.929  0.6615  0.4545  0.2463
10434TIP3   OH252792   6.106   2.472  13.958 -0.0104 -0.4218  0.1081
10434TIP3    H152793   6.029   2.443  13.909 -0.0970 -0.5782  0.3368
10434TIP3    H252794   6.131   2.396  14.010  0.6032 -0.5332 -0.3444
10435TIP3   OH252795   2.889   2.142   1.692  0.2671 -0.0430 -0.3626
10435TIP3    H152796   2.971   2.187   1.712  1.1353 -1.9196  0.4440
10435TIP3    H252797   2.821   2.199   1.728  1.2954  0.9924 -0.0475
10436TIP3   OH252798   3.988   0.824  13.311  0.3359  0.0408  0.3905
10436TIP3    H152799   3.954   0.904  13.352 -0.7772  0.0523 -0.5069
10436TIP3    H252800   3.915   0.762  13.316  0.9197 -0.6511  0.3493
10437TIP3   OH252801   3.090   2.718  11.149  0.2815  0.2186 -0.1657
10437TIP3    H152802   3.162   2.726  11.087  2.2576  1.6680  2.1930
10437TIP3    H252803   3.131   2.684  11.229 -2.2266 -1.8726  0.2895
10438TIP3   OH252804   4.810   3.715   5.158 -0.1920 -0.1325 -0.0743
10438TIP3    H152805   4.757   3.747   5.230 -0.7282  0.7422 -0.8460
10438TIP3    H252806   4.895   3.694   5.197 -0.2063  1.1477  0.6435
10439TIP3   OH252807   6.009   5.693  12.218 -0.0569  0.2674  0.1646
10439TIP3    H152808   5.973   5.708  12.305 -0.7626  1.0223 -0.2553
10439TIP3    H252809   6.082   5.633  12.232  0.5836  1.3219  1.4174
10440TIP3   OH252810   5.096   6.121   5.697 -0.0828  0.0236  0.0544
10440TIP3    H152811   5.006   6.147   5.713 -0.0162 -0.5703  1.4677
10440TIP3    H252812   5.129   6.094   5.783  0.5218 -2.5408 -0.9225
10441TIP3   OH252813   1.323   1.476  12.884 -0.2102 -0.5217  0.3085
10441TIP3    H152814   1.359   1.563  12.869 -0.5743 -0.4366 -0.0660
10441TIP3    H252815   1.229   1.486  12.876 -0.1957 -1.1490 -0.7928
10442TIP3   OH252816   4.216   5.711  12.938 -0.0333  0.2737  0.7859
10442TIP3    H152817   4.230   5.805  12.950 -1.7778  0.7132 -0.4949
10442TIP3    H252818   4.186   5.680  13.024 -0.3383  1.0608  0.9701
10443TIP3   OH252819   0.708   2.667  12.519  0.2762 -0.1510  0.1385
10443TIP3    H152820   0.718   2.584  12.473  1.2816  0.2196 -0.3326
10443TIP3    H252821   0.622   2.699  12.492  0.1457 -0.7473 -0.1550
10444TIP3   OH252822   1.260   6.605  11.795 -0.4234  0.1235 -0.2316
10444TIP3    H152823   1.321   6.636  11.862 -1.1743  0.4379  0.3162
10444TIP3    H252824   1.178   6.588  11.842 -1.4790  1.9419 -1.3256
10445TIP3   OH252825   1.056   4.675   4.712  0.4438 -0.6650  0.3708
10445TIP3    H152826   1.097   4.757   4.686 -0.1245 -0.4594  0.1116
10445TIP3    H252827   0.962   4.695   4.715  0.0336 -1.9970 -2.2912
10446TIP3   OH252828   4.053   4.704   6.613  0.5827  0.0709 -0.1594
10446TIP3    H152829   4.071   4.795   6.590 -0.2672  0.5713  1.0885
10446TIP3    H252830   4.119   4.654   6.566  0.0059  1.1895 -2.2154
10447TIP3   OH252831   1.815   4.819   3.367 -0.1921  0.0405 -0.0229
10447TIP3    H152832   1.847   4.901   3.329  1.1769 -0.2463  0.5124
10447TIP3    H252833   1.868   4.805   3.445 -2.1766 -0.0189  1.3624
10448TIP3   OH252834   5.481   2.683   5.246 -0.1449  0.2092 -0.4930
10448TIP3    H152835   5.571   2.701   5.273 -0.1360  1.3381 -1.2392
10448TIP3    H252836   5.436   2.660   5.327  0.9230 -0.8661 -0.1848
10449TIP3   OH252837   1.028   0.660  14.563  0.1963 -0.2153  0.4323
10449TIP3    H152838   1.082   0.736  14.540 -0.8611  0.8162  1.2922
10449TIP3    H252839   1.061   0.632  14.648  0.5013 -0.6422  0.1730
10450TIP3   OH252840   1.230   0.341  12.300 -0.2754  0.1340 -0.1758
10450TIP3    H152841   1.169   0.269  12.283  0.0947 -0.3997  0.7503
10450TIP3    H252842   1.246   0.338  12.394 -0.5979  1.7066 -0.0535
10451TIP3   OH252843   6.003   4.503  11.725 -0.0075  0.4322 -0.3598
10451TIP3    H152844   5.958   4.581  11.693  2.1731  1.9655  0.0902
10451TIP3    H252845   6.034   4.529  11.812 -0.0179 -1.2633  0.1589
10452TIP3   OH252846   1.574   6.124   4.898  0.1592 -0.0994 -0.1342
10452TIP3    H152847   1.557   6.040   4.855 -0.1672 -0.0665 -0.0701
10452TIP3    H252848   1.609   6.101   4.984  1.7580 -0.1710 -0.7759
10453TIP3   OH252849   2.625   0.972  15.834 -0.3246 -0.2636  0.4314
10453TIP3    H152850   2.706   0.981  15.784  0.4146 -2.5242  1.1600
10453TIP3    H252851   2.601   0.880  15.824 -2.1980  0.1274  1.1717
10454TIP3   OH252852   5.507   6.120  10.400 -0.0016  0.2268 -0.5194
10454TIP3    H152853   5.595   6.095  10.427  0.3235  0.2396 -1.5404
10454TIP3    H252854   5.517   6.146  10.309 -0.4730  3.2618  0.2357
10455TIP3   OH252855   5.009   4.734   5.812 -0.1574  0.4235 -0.2056
10455TIP3    H152856   4.941   4.748   5.878 -0.2036 -0.5308 -0.0415
10455TIP3    H252857   5.075   4.800   5.832 -0.9072  1.1735 -0.1926
10456TIP3   OH252858   3.282   1.801   6.130 -0.4272  0.2663  0.2293
10456TIP3    H152859   3.334   1.866   6.083 -2.9496  1.7738 -0.5711
10456TIP3    H252860   3.309   1.717   6.093  1.8043  0.9490  0.2328
10457TIP3   OH252861   0.775   1.902   4.254 -0.6812 -0.1536  0.2528
10457TIP3    H152862   0.739   1.982   4.292  0.9089  1.2383 -1.1364
10457TIP3    H252863   0.787   1.844   4.329 -2.2652  0.7120  1.2211
10458TIP3   OH252864   3.175   4.798   4.053  0.4015 -0.8043  0.1666
10458TIP3    H152865   3.239   4.801   3.982  0.3722  0.8087  0.2090
10458TIP3    H252866   3.091   4.783   4.008  0.4919 -0.6155 -0.0650
10459TIP3   OH252867   2.179   2.592  11.968  0.4603  0.2091  0.2296
10459TIP3    H152868   2.147   2.646  12.041  0.5165  0.0643  0.3624
10459TIP3    H252869   2.148   2.637  11.890 -0.4573 -0.1744  0.3664
10460TIP3   OH252870   1.682   3.046  15.518 -0.4187 -0.2447  0.9230
10460TIP3    H152871   1.633   3.069  15.597 -1.2387 -0.2050  0.4086
10460TIP3    H252872   1.615   3.017  15.455  0.1706  0.1909  0.0768
10461TIP3   OH252873   6.507   3.332  14.443  0.2492  0.2909  0.0259
10461TIP3    H152874   6.586   3.355  14.492 -0.1521 -0.0296  0.8293
10461TIP3    H252875   6.488   3.242  14.471 -1.1078  0.8031  0.7683
10462TIP3   OH252876   1.058   6.167   5.048 -0.4079 -0.5166  1.0252
10462TIP3    H152877   1.028   6.098   5.107  0.4154 -0.9280  0.9636
10462TIP3    H252878   0.989   6.174   4.982 -0.0023 -2.0090  0.4322
10463TIP3   OH252879   1.561   4.978   3.116  1.0000 -0.0310 -0.1549
10463TIP3    H152880   1.470   5.004   3.128  0.8127 -0.3525 -0.8532
10463TIP3    H252881   1.579   4.919   3.190  1.3342  1.8074  1.2509
10464TIP3   OH252882   3.427   0.601   4.689  0.2026  0.5625  0.5043
10464TIP3    H152883   3.393   0.690   4.674  3.4284  1.4607 -2.2199
10464TIP3    H252884   3.476   0.608   4.770 -0.2599  1.0549  0.7500
10465TIP3   OH252885   0.932   4.496  10.472  0.2363  0.4418  0.1037
10465TIP3    H152886   1.003   4.478  10.411  0.0542  1.5339 -0.4542
10465TIP3    H252887   0.852   4.485  10.419  0.0542  0.6979  0.3240
10466TIP3   OH252888   5.147   1.104   1.727 -0.5391  0.0312  0.0238
10466TIP3    H152889   5.069   1.091   1.781  0.6824 -0.4818  1.7095
10466TIP3    H252890   5.153   1.199   1.717 -1.2046  0.0925  0.1382
10467TIP3   OH252891   1.787   6.593  17.001 -0.3916 -0.6756  0.1849
10467TIP3    H152892   1.864   6.549  17.038 -0.7553  0.3808  2.2402
10467TIP3    H252893   1.807   6.686  17.009 -0.9915 -0.4174 -1.2395
10468TIP3   OH252894   3.607   3.328  11.822  0.2258  0.2071  0.4950
10468TIP3    H152895   3.656   3.372  11.752 -2.5770  0.5576 -1.3025
10468TIP3    H252896   3.556   3.397  11.863 -3.1740 -1.0040 -1.4740
10469TIP3   OH252897   1.572   0.606   5.076 -0.6297 -0.0214 -0.2549
10469TIP3    H152898   1.554   0.551   5.000  0.7119 -0.7583 -0.0591
10469TIP3    H252899   1.641   0.666   5.047 -0.8316  0.3742  0.0727
10470TIP3   OH252900   1.164   3.067  15.390 -0.3989  0.0741 -0.2246
10470TIP3    H152901   1.124   2.983  15.369  1.7774 -1.0173 -0.0960
10470TIP3    H252902   1.109   3.103  15.460 -0.9769 -1.5321  0.1638
10471TIP3   OH252903   0.013   0.072   3.417 -0.4057 -0.2763  0.1993
10471TIP3    H152904  -0.056   0.130   3.384 -1.0133 -0.3585  1.2921
10471TIP3    H252905   0.089   0.092   3.363 -1.0798  0.3588 -0.5251
10472TIP3   OH252906   4.818   5.750   3.937  0.2830 -0.1747 -0.3527
10472TIP3    H152907   4.761   5.673   3.937  0.5234 -0.3682 -2.2699
10472TIP3    H252908   4.778   5.810   3.874  0.6005  0.9170  0.4553
10473TIP3   OH252909   0.992   0.153  13.519  0.7255 -0.5778  0.5470
10473TIP3    H152910   0.940   0.230  13.543  0.0906 -1.2419  1.3084
10473TIP3    H252911   0.932   0.079  13.527  1.2481 -1.1294 -0.4797
10474TIP3   OH252912   1.382   6.414  16.328 -0.5821 -0.4226  0.3738
10474TIP3    H152913   1.300   6.462  16.343 -0.0995  0.4592  0.2614
10474TIP3    H252914   1.437   6.477  16.281  0.4371 -0.7457  1.1287
10475TIP3   OH252915   5.645   2.472   6.414 -0.1298 -0.0113  0.1358
10475TIP3    H152916   5.589   2.394   6.421 -0.9374  0.6807  1.6045
10475TIP3    H252917   5.734   2.437   6.414 -0.4616 -0.9143  1.5566
10476TIP3   OH252918   3.505   4.405  12.659  0.3639 -0.3788 -0.3908
10476TIP3    H152919   3.430   4.361  12.699 -0.0015  1.1383  0.6113
10476TIP3    H252920   3.476   4.425  12.570 -0.7497  0.9458  0.2514
10477TIP3   OH252921   2.139   3.060  16.333  0.2413  0.2827 -0.5824
10477TIP3    H152922   2.171   2.970  16.321 -2.3652 -0.3763 -3.2069
10477TIP3    H252923   2.138   3.097  16.245 -0.7180  2.1805  0.2029
10478TIP3   OH252924   3.178   2.354   4.793  0.1144 -0.3100 -0.7776
10478TIP3    H152925   3.177   2.430   4.734  0.3859 -0.1254 -0.5489
10478TIP3    H252926   3.249   2.373   4.854  0.0703 -0.6717 -0.6146
10479TIP3   OH252927   0.427   6.679  11.852 -0.1422  0.2520 -0.3187
10479TIP3    H152928   0.519   6.706  11.850  0.1136 -0.4977  0.7363
10479TIP3    H252929   0.424   6.613  11.921 -1.3908 -0.0521 -0.6688
10480TIP3   OH252930   0.392   1.889  15.638 -0.0214 -0.1754  0.2805
10480TIP3    H152931   0.474   1.894  15.687  0.1207 -0.0235  0.0255
10480TIP3    H252932   0.363   1.980  15.631  1.0793  0.0504 -1.8098
10481TIP3   OH252933   2.229   4.692   4.630 -1.0660  0.2974  0.6059
10481TIP3    H152934   2.255   4.783   4.616 -1.3007  0.0606 -1.4614
10481TIP3    H252935   2.135   4.690   4.610 -0.5185 -0.9217 -2.0660
10482TIP3   OH252936   3.499   1.254  15.503 -0.0777  0.0097  0.2760
10482TIP3    H152937   3.461   1.179  15.548 -0.0033 -0.4176 -0.3636
10482TIP3    H252938   3.446   1.264  15.424 -0.2712  0.8117  0.5094
10483TIP3   OH252939   0.740   5.713   0.240 -0.0633  0.2496  0.2921
10483TIP3    H152940   0.820   5.727   0.190  0.6004  0.8611  1.5121
10483TIP3    H252941   0.753   5.763   0.320 -1.4583 -0.0605  0.7184
10484TIP3   OH252942   5.130   4.351   0.230 -0.2732  0.5530 -0.0455
10484TIP3    H152943   5.116   4.256   0.224  3.6211 -0.2975  2.1989
10484TIP3    H252944   5.071   4.379   0.300 -0.4457 -0.5041  0.2473
10485TIP3   OH252945   0.445   3.392   3.215 -0.1135 -0.6421 -0.1955
10485TIP3    H152946   0.439   3.447   3.292  1.1265 -1.0818  0.2237
10485TIP3    H252947   0.400   3.442   3.146 -1.5536 -0.4184  0.8746
10486TIP3   OH252948   3.380   6.752   4.511 -0.3240  0.4782 -0.0201
10486TIP3    H152949   3.358   6.845   4.502  0.6700  1.0183  2.5416
10486TIP3    H252950   3.470   6.747   4.478 -0.5129  0.3407 -0.5187
10487TIP3   OH252951   2.460   0.603   2.181 -0.6182  0.1257 -0.2334
10487TIP3    H152952   2.487   0.565   2.265 -0.0680 -0.7766 -0.8221
10487TIP3    H252953   2.424   0.689   2.205  2.2677  1.1566  0.6153
10488TIP3   OH252954   1.176   2.630  17.003  0.1746  0.4303 -0.0079
10488TIP3    H152955   1.162   2.613  17.096  0.6339  1.0570  0.1772
10488TIP3    H252956   1.208   2.720  17.000  2.6543 -0.4385 -0.5578
10489TIP3   OH252957   3.190   0.487   2.140 -0.2713 -0.2037  0.0234
10489TIP3    H152958   3.206   0.557   2.077 -2.6110 -0.2331 -0.6483
10489TIP3    H252959   3.205   0.406   2.090 -1.2366 -0.2163 -0.2517
10490TIP3   OH252960   6.354   3.106   2.330 -0.5970  0.4758  0.0034
10490TIP3    H152961   6.393   3.134   2.412  0.7839  2.2773 -1.2105
10490TIP3    H252962   6.395   3.022   2.311 -1.1404 -0.0879  1.2897
10491TIP3   OH252963   2.214   5.816  13.327 -0.1274  0.1885 -0.2198
10491TIP3    H152964   2.239   5.899  13.368  2.6432 -0.4118 -0.6064
10491TIP3    H252965   2.220   5.751  13.398 -1.5091  0.1477 -0.1125
10492TIP3   OH252966   1.279   3.830   0.098  0.3649 -1.0842  0.2174
10492TIP3    H152967   1.187   3.850   0.114 -0.0328 -0.6370 -2.4913
10492TIP3    H252968   1.279   3.737   0.076  0.0905 -0.3956 -2.9218
10493TIP3   OH252969   0.862   4.566  12.227 -1.0419  0.2136  0.3326
10493TIP3    H152970   0.897   4.498  12.284  0.7724  1.7399  1.0947
10493TIP3    H252971   0.782   4.595  12.271 -0.9286 -0.2660  0.8660
10494TIP3   OH252972   0.548   6.198  12.469 -0.2105  0.1453 -0.5713
10494TIP3    H152973   0.550   6.275  12.412 -0.0726 -0.5704 -1.5531
10494TIP3    H252974   0.462   6.200  12.509 -0.5678  0.2821 -1.3404
10495TIP3   OH252975   6.781   4.405   4.308  0.0387  0.0257 -0.3644
10495TIP3    H152976   6.739   4.348   4.373  0.3648  1.9261  1.5747
10495TIP3    H252977   6.871   4.413   4.339  0.3018  0.6159 -1.2940
10496TIP3   OH252978   5.646   4.600  12.660  0.2016 -0.1698  0.4301
10496TIP3    H152979   5.624   4.587  12.752 -1.8587 -0.9084 -0.1568
10496TIP3    H252980   5.652   4.695  12.650 -0.0664 -0.0696  1.2039
10497TIP3   OH252981   2.126   5.050   2.136 -0.0488 -0.7132 -0.1431
10497TIP3    H152982   2.037   5.047   2.100 -1.2443  0.2770  2.6018
10497TIP3    H252983   2.176   5.100   2.071 -1.5772 -0.9895 -1.5622
10498TIP3   OH252984   6.759   5.989   4.349  0.1183 -0.0577  0.1285
10498TIP3    H152985   6.776   5.896   4.336  1.5370  0.1617  0.3623
10498TIP3    H252986   6.761   6.027   4.262 -0.5175 -0.2477  0.0276
10499TIP3   OH252987   3.126   6.497   3.520  0.4224  0.1697  0.0087
10499TIP3    H152988   3.040   6.538   3.510  1.1093  1.5595 -0.3763
10499TIP3    H252989   3.160   6.532   3.603  0.9825  0.3139 -0.2784
10500TIP3   OH252990   6.761   4.279   3.805  0.3880  0.2619 -0.7014
10500TIP3    H152991   6.671   4.260   3.830  1.3621 -2.0366  1.2606
10500TIP3    H252992   6.805   4.303   3.887  1.5875  1.2474 -1.6089
10501TIP3   OH252993   1.183   1.364   0.337  0.4776  0.0342  0.0187
10501TIP3    H152994   1.238   1.289   0.358  0.1206 -0.6304 -1.3627
10501TIP3    H252995   1.153   1.348   0.248  0.8374  2.0815 -0.5098
10502TIP3   OH252996   4.298   4.454   4.466  0.0315 -0.3257 -0.3029
10502TIP3    H152997   4.343   4.447   4.550 -3.5809 -0.8361  1.6762
10502TIP3    H252998   4.257   4.368   4.454 -2.0854  0.7688 -1.0307
10503TIP3   OH252999   1.875   6.011  11.147 -0.2158 -0.2970  0.0332
10503TIP3    H153000   1.959   5.992  11.105 -0.3710 -0.9927  0.0406
10503TIP3    H253001   1.829   5.927  11.150 -0.9864  0.1074 -0.1335
10504TIP3   OH253002   6.354   1.828   2.646  0.7451 -0.1136  0.2430
10504TIP3    H153003   6.423   1.835   2.712  2.0842  1.4624 -1.2714
10504TIP3    H253004   6.331   1.918   2.625 -1.3604 -0.6144  0.2717
10505TIP3   OH253005   2.172   4.671  15.295  0.2273 -0.2502 -0.2584
10505TIP3    H153006   2.247   4.691  15.239  0.5336 -0.8520 -0.0635
10505TIP3    H253007   2.112   4.623  15.239  0.7852 -1.3592  0.0706
10506TIP3   OH253008   1.466   3.271   5.785 -0.4733 -0.3788  0.2148
10506TIP3    H153009   1.482   3.365   5.778  2.2138 -0.8418 -0.0612
10506TIP3    H253010   1.535   3.231   5.733 -0.7409 -2.5811  1.5303
10507TIP3   OH253011   0.459   3.456   1.746 -0.4583 -0.0657  0.2862
10507TIP3    H153012   0.508   3.532   1.776 -1.2116  1.9294 -3.2628
10507TIP3    H253013   0.521   3.407   1.691 -0.1134 -1.8051  2.1842
10508TIP3   OH253014   1.287   6.525  13.618 -0.0118  0.4354  0.4794
10508TIP3    H153015   1.209   6.581  13.611 -1.0862 -0.9587  1.1680
10508TIP3    H253016   1.340   6.568  13.685 -0.7524  0.7287  0.8912
10509TIP3   OH253017   5.748   5.099  15.906  0.2928  0.3213  0.2192
10509TIP3    H153018   5.735   5.131  15.817  0.3447  0.2255  0.1763
10509TIP3    H253019   5.842   5.102  15.921  0.1993  1.3359  0.6449
10510TIP3   OH253020   4.596   5.594   5.416 -0.1783  0.1890 -0.3065
10510TIP3    H153021   4.654   5.517   5.416 -0.6805 -0.1910 -0.9040
10510TIP3    H253022   4.508   5.557   5.408 -0.3225  0.8944 -2.3444
10511TIP3   OH253023   0.505   2.698  17.044 -0.0386  0.3320  0.9584
10511TIP3    H153024   0.574   2.637  17.071  1.0478  0.9136 -0.4335
10511TIP3    H253025   0.502   2.689  16.948 -1.9215  0.2974  1.0043
10512TIP3   OH253026   3.968   5.406  11.695  0.1949  0.0380 -0.4872
10512TIP3    H153027   3.949   5.500  11.700  1.2464  0.2213  0.1977
10512TIP3    H253028   4.046   5.400  11.641  0.1705 -0.4379 -0.4715
10513TIP3   OH253029   1.441   3.027  14.905  0.0495 -0.2215 -0.0694
10513TIP3    H153030   1.388   3.102  14.877 -1.0011 -0.7967  0.3068
10513TIP3    H253031   1.530   3.049  14.881 -0.4564  0.5021 -1.3170
10514TIP3   OH253032   0.381   5.587   6.357 -0.3952 -0.0942 -0.6194
10514TIP3    H153033   0.447   5.583   6.288  0.2133 -1.5669  0.0232
10514TIP3    H253034   0.358   5.679   6.363  1.5104  0.4200 -0.9606
10515TIP3   OH253035   1.086   2.809   2.968  1.0292  0.3377 -0.2112
10515TIP3    H153036   1.003   2.787   2.926  0.7489  1.0226 -0.0247
10515TIP3    H253037   1.115   2.727   3.008 -1.4349  0.9260  2.9654
10516TIP3   OH253038   0.481   0.633  11.316  0.7664 -0.7441 -0.2772
10516TIP3    H153039   0.551   0.619  11.380 -1.3304  1.3949  2.6030
10516TIP3    H253040   0.503   0.717  11.276 -1.1461  0.9933  2.1417
10517TIP3   OH253041   3.844   5.939   6.265 -0.5821  0.5948  1.0835
10517TIP3    H153042   3.786   6.015   6.266 -0.7831  0.4408  1.1751
10517TIP3    H253043   3.921   5.968   6.313 -0.5014  0.8637  0.7927
10518TIP3   OH253044   0.599   1.817   2.256  0.3666  0.5523 -0.1736
10518TIP3    H153045   0.610   1.891   2.315  0.4385  0.2388  0.2072
10518TIP3    H253046   0.587   1.857   2.170 -1.3607  1.0686  0.2841
10519TIP3   OH253047   6.096   5.577   0.265 -0.1627  0.2940  0.0171
10519TIP3    H153048   6.107   5.509   0.332  0.1664  0.8667  0.5565
10519TIP3    H253049   6.005   5.603   0.272 -0.4621 -0.5490 -0.6423
10520TIP3   OH253050   0.915   5.274  11.655  0.0396 -0.2691  1.0182
10520TIP3    H153051   0.946   5.363  11.671 -0.5178 -0.3999  2.9658
10520TIP3    H253052   0.823   5.285  11.632 -0.3109 -0.3955  2.3036
10521TIP3   OH253053   0.605   2.175  11.807  0.1179  0.1126 -0.5321
10521TIP3    H153054   0.514   2.192  11.786 -0.1214 -1.5521 -0.8446
10521TIP3    H253055   0.640   2.130  11.731  1.2070  0.7079 -0.4027
10522TIP3   OH253056   5.717   0.284   4.687 -0.2524 -0.2485 -0.1501
10522TIP3    H153057   5.800   0.294   4.640  0.2980  0.8443  1.0338
10522TIP3    H253058   5.676   0.370   4.684 -0.5526 -0.3527  0.7272
10523TIP3   OH253059   0.259   0.324  16.060 -0.8877 -0.3485 -1.0870
10523TIP3    H153060   0.312   0.380  16.116  3.6442 -2.7763 -2.6431
10523TIP3    H253061   0.219   0.383  15.996  1.8083  1.4015 -1.2226
10524TIP3   OH253062   1.391   6.081  14.940 -0.0581 -0.1384  0.0834
10524TIP3    H153063   1.299   6.100  14.923  0.0468  0.1422 -0.1717
10524TIP3    H253064   1.422   6.154  14.993  0.0671 -0.1363  0.0080
10525TIP3   OH253065   4.410   2.476   4.025 -0.0117  0.1082 -0.0329
10525TIP3    H153066   4.435   2.568   4.018  0.2283  0.0808  0.3851
10525TIP3    H253067   4.320   2.478   4.057 -0.4017  0.2046 -1.1157
10526TIP3   OH253068   1.162   2.980  13.577  0.0494 -0.8121  0.0464
10526TIP3    H153069   1.110   3.034  13.517  1.9912  0.7900 -0.2460
10526TIP3    H253070   1.153   3.025  13.661  1.7359  0.0603 -0.2155
10527TIP3   OH253071   4.053   1.847  13.990 -0.7370 -0.2267  0.3790
10527TIP3    H153072   3.969   1.887  13.966 -1.0066 -0.5367  0.8149
10527TIP3    H253073   4.067   1.874  14.081 -1.0978 -1.4413  0.7940
10528TIP3   OH253074   5.655   0.338   1.092 -0.5743 -0.1232 -0.2205
10528TIP3    H153075   5.713   0.365   1.021 -0.9235 -3.2452 -1.8196
10528TIP3    H253076   5.707   0.347   1.171  1.0525  0.0344 -1.2799
10529TIP3   OH253077   4.920   5.547  12.072 -0.1378 -0.5630 -0.1496
10529TIP3    H153078   4.957   5.508  11.993  0.7374  1.6802 -0.9034
10529TIP3    H253079   4.826   5.532  12.065  0.2679 -3.4197  0.1364
10530TIP3   OH253080   2.497   3.642   2.116 -0.1785 -0.5816 -0.0533
10530TIP3    H153081   2.520   3.558   2.156  0.7668 -1.1071 -1.6771
10530TIP3    H253082   2.513   3.630   2.023 -2.7718  0.4930 -0.7033
10531TIP3   OH253083   0.672   4.857  13.165 -0.2854 -0.0994  0.1100
10531TIP3    H153084   0.700   4.947  13.183 -1.2671  0.2977 -0.2772
10531TIP3    H253085   0.682   4.849  13.070 -1.3373  0.0096 -0.0172
10532TIP3   OH253086   4.704   3.902  11.288  0.2398  0.6614  0.6761
10532TIP3    H153087   4.776   3.868  11.237  0.4679  2.3488 -0.1690
10532TIP3    H253088   4.632   3.840  11.274  0.1782  1.2713 -2.0043
10533TIP3   OH253089   5.029   3.257   3.266  0.1341 -0.3275 -0.6988
10533TIP3    H153090   5.053   3.188   3.204 -1.1439 -0.5884 -0.9239
10533TIP3    H253091   5.015   3.211   3.348 -2.1488 -0.5713 -1.1895
10534TIP3   OH253092   1.024   3.627  16.052  0.3509 -0.2136 -0.5646
10534TIP3    H153093   0.954   3.628  16.117 -0.1343 -2.0041 -1.0374
10534TIP3    H253094   1.056   3.717  16.050 -1.1082  0.3487  0.5512
10535TIP3   OH253095   1.109   0.989  15.224 -0.1671 -0.6557  0.2747
10535TIP3    H153096   1.052   1.063  15.241 -2.3249 -2.3931  0.7643
10535TIP3    H253097   1.060   0.933  15.164  1.0748 -2.1006  0.5661
10536TIP3   OH253098   5.046   6.595   5.968 -0.0439  0.2070 -0.2466
10536TIP3    H153099   5.000   6.558   6.043 -0.4261 -0.4824 -0.8100
10536TIP3    H253100   5.013   6.545   5.893  0.0815  1.1156 -0.9110
10537TIP3   OH253101   1.361   5.885   1.712  0.3340 -0.1367  0.0212
10537TIP3    H153102   1.357   5.943   1.788  1.3847 -1.3709  1.0413
10537TIP3    H253103   1.400   5.938   1.643  0.8483  0.5139  0.8042
10538TIP3   OH253104   1.686   4.240  12.882  0.1559  0.5429 -0.0912
10538TIP3    H153105   1.618   4.306  12.894 -0.0494  0.4082 -0.5018
10538TIP3    H253106   1.639   4.162  12.854  0.4951  0.4983 -0.5454
10539TIP3   OH253107   4.390   1.890   6.666 -0.0319  0.0918 -0.2629
10539TIP3    H153108   4.444   1.912   6.590 -0.1431  0.7511 -0.1498
10539TIP3    H253109   4.326   1.827   6.632 -0.9393  1.4062 -1.0297
10540TIP3   OH253110   3.849   4.201  15.663  0.0845 -0.1126 -0.2838
10540TIP3    H153111   3.896   4.235  15.739 -0.1186  0.1034 -0.2552
10540TIP3    H253112   3.848   4.106  15.676 -1.1015  0.0186  0.6476
10541TIP3   OH253113   6.244   3.398  10.298  0.5554 -0.7032 -0.1314
10541TIP3    H153114   6.180   3.336  10.265  0.6187  0.5759 -2.7701
10541TIP3    H253115   6.233   3.476  10.243  0.5891  1.5908  2.9674
10542TIP3   OH253116   4.098   2.009   3.648 -0.1217 -0.5794  0.0234
10542TIP3    H153117   4.191   2.007   3.669  0.0577  0.2326 -0.6445
10542TIP3    H253118   4.054   1.978   3.727  0.8243 -3.0318 -0.3666
10543TIP3   OH253119   3.960   1.839   3.864  0.2041 -0.1087 -0.3077
10543TIP3    H153120   3.891   1.883   3.914  3.0537  1.3162  2.5957
10543TIP3    H253121   3.993   1.772   3.923  1.1255 -0.9483 -1.7613
10544TIP3   OH253122   6.784   2.666   2.712 -0.0658 -0.0485  0.4677
10544TIP3    H153123   6.801   2.576   2.684  2.3372 -0.1156  2.0283
10544TIP3    H253124   6.862   2.715   2.685 -0.9356  1.3907  0.4948
10545TIP3   OH253125   0.463   1.940   5.684  0.6212  0.1517  0.5196
10545TIP3    H153126   0.523   2.013   5.675  2.1733 -1.1423  0.0881
10545TIP3    H253127   0.492   1.877   5.618 -2.3877  0.2726 -0.9812
10546TIP3   OH253128   3.781   4.907  16.786 -0.0348 -0.5856 -0.2992
10546TIP3    H153129   3.840   4.833  16.770  0.2654 -0.6258  0.9581
10546TIP3    H253130   3.805   4.939  16.873 -0.2380  0.9267 -0.7806
10547TIP3   OH253131   0.929   5.225  16.797 -0.4037  0.1811 -0.1253
10547TIP3    H153132   0.835   5.240  16.791 -0.3702  0.4957  0.1638
10547TIP3    H253133   0.965   5.305  16.834  0.2941  1.1264 -2.6999
10548TIP3   OH253134   4.846   2.382  11.769 -0.1913  0.4789 -0.1096
10548TIP3    H153135   4.882   2.467  11.741 -3.0773  2.0722  0.8048
10548TIP3    H253136   4.782   2.405  11.837 -0.4134 -2.5327  0.7489
10549TIP3   OH253137   3.535   1.498  13.202 -0.0072 -0.1019  0.1471
10549TIP3    H153138   3.533   1.545  13.119  2.1469  1.7783  1.1159
10549TIP3    H253139   3.591   1.422  13.185 -2.1322 -1.4615 -0.9576
10550TIP3   OH253140   6.609   5.317  12.040  0.0525 -0.0076  0.1521
10550TIP3    H153141   6.651   5.398  12.011 -1.1847  0.8265  0.6285
10550TIP3    H253142   6.681   5.255  12.049  1.2248  1.4435  1.1384
10551TIP3   OH253143   6.358   4.999  11.602  0.0372 -0.3146  0.3975
10551TIP3    H153144   6.323   5.046  11.678  0.4937 -1.9754  1.6669
10551TIP3    H253145   6.311   5.036  11.527  1.2162  2.9708  1.2014
10552TIP3   OH253146   1.138   6.227   1.733 -0.1019 -0.0102  0.3316
10552TIP3    H153147   1.210   6.268   1.686  0.6292  1.6581  2.7930
10552TIP3    H253148   1.059   6.266   1.696  0.4062  0.6343 -0.0774
10553TIP3   OH253149   3.609   4.893  16.362  0.1563 -0.1718 -0.2388
10553TIP3    H153150   3.639   4.983  16.354 -0.2681 -0.0621 -0.5949
10553TIP3    H253151   3.563   4.875  16.280 -0.1425 -0.5683  0.0132
10554TIP3   OH253152   4.791   5.538   1.706 -0.0268 -0.1068 -0.0560
10554TIP3    H153153   4.876   5.581   1.719 -0.3630  0.4247  0.4244
10554TIP3    H253154   4.752   5.584   1.632 -0.2935  0.2837  0.3206
10555TIP3   OH253155   1.350   0.209   2.805 -0.7973 -0.0403 -0.0492
10555TIP3    H153156   1.259   0.215   2.775 -0.8573  0.6549  0.2437
10555TIP3    H253157   1.381   0.126   2.770 -1.1228  0.3557 -1.3365
10556TIP3   OH253158   1.685   4.107  11.868  0.9627 -0.4038  0.1713
10556TIP3    H153159   1.597   4.071  11.867  0.3199  1.1256  0.8286
10556TIP3    H253160   1.741   4.032  11.889 -0.0607 -1.5705 -1.1424
10557TIP3   OH253161   4.377   5.824   1.544 -0.3590 -0.0085  0.3312
10557TIP3    H153162   4.347   5.896   1.488 -1.0429  1.3098  2.3372
10557TIP3    H253163   4.297   5.790   1.584  0.3507  0.6858  2.3877
10558TIP3   OH253164   3.913   4.095   1.200  0.0797 -0.1227 -0.0066
10558TIP3    H153165   3.863   4.065   1.124 -0.3648  1.9272 -0.5593
10558TIP3    H253166   4.005   4.081   1.175 -0.0847 -0.0889 -0.6324
10559TIP3   OH253167   2.275   3.719  14.490 -0.5736  0.3306  0.3310
10559TIP3    H153168   2.188   3.714  14.451 -0.2467  2.3345 -0.7434
10559TIP3    H253169   2.335   3.711  14.417  0.1852 -1.7157  1.1532
10560TIP3   OH253170   5.239   1.793  16.702  0.1756  0.0964 -0.6394
10560TIP3    H153171   5.246   1.876  16.656 -0.5440 -0.2506 -1.3959
10560TIP3    H253172   5.292   1.804  16.781 -0.9401  1.7138 -0.0977
10561TIP3   OH253173   6.478   5.184   4.949 -0.4354 -0.9826  0.1672
10561TIP3    H153174   6.442   5.133   5.022 -1.3240 -0.8626 -0.1864
10561TIP3    H253175   6.506   5.266   4.990  1.4041 -1.8945  0.8190
10562TIP3   OH253176   1.356   3.893  13.086  0.9141 -0.2500  0.1684
10562TIP3    H153177   1.386   3.891  12.995  1.3503 -2.2547  0.3301
10562TIP3    H253178   1.434   3.917  13.136  1.2769 -1.4996  0.2180
10563TIP3   OH253179   4.213   4.907   4.964  0.1703 -0.7625 -0.6383
10563TIP3    H153180   4.293   4.880   4.919  1.4669 -0.5868  1.4907
10563TIP3    H253181   4.215   5.003   4.962  0.5066 -0.7545  0.2886
10564TIP3   OH253182   1.255   0.742   4.153 -0.0888  0.4578 -0.7122
10564TIP3    H153183   1.250   0.651   4.124  1.4981  0.5038 -1.1608
10564TIP3    H253184   1.164   0.769   4.162 -0.5921 -0.7072 -2.0582
10565TIP3   OH253185   0.363   3.369  12.189 -0.1144 -0.1115  0.7210
10565TIP3    H153186   0.390   3.279  12.205 -0.9484 -0.1049  2.2265
10565TIP3    H253187   0.394   3.388  12.100 -0.3457 -2.0355  0.2075
10566TIP3   OH253188   1.954   1.341   6.531 -0.5633  0.0080 -0.2095
10566TIP3    H153189   2.016   1.281   6.491  1.1957  0.2268  2.1116
10566TIP3    H253190   1.955   1.418   6.473  1.3216  0.0137 -0.1852
10567TIP3   OH253191   3.735   0.947   4.253  0.0558  0.1886  0.6348
10567TIP3    H153192   3.773   0.892   4.321  0.5725 -0.5923 -0.2745
10567TIP3    H253193   3.771   0.913   4.171  0.3375  1.8484  0.0514
10568TIP3   OH253194   2.899   6.281  14.574  0.2476  0.2498 -0.2642
10568TIP3    H153195   2.884   6.303  14.482 -1.0009  0.6720  0.0349
10568TIP3    H253196   2.828   6.220  14.596  0.7749 -0.1675  0.3068
10569TIP3   OH253197   4.807   4.041   2.708  0.0598 -0.8312  0.1243
10569TIP3    H153198   4.772   3.977   2.771 -0.1014 -0.4962  0.3792
10569TIP3    H253199   4.757   4.026   2.628  0.3670 -1.3621  0.0299
10570TIP3   OH253200   3.628   0.591   1.445 -0.7855  0.1623  0.5559
10570TIP3    H153201   3.685   0.556   1.514 -2.2619 -0.5696  1.4261
10570TIP3    H253202   3.686   0.645   1.392  1.3113 -2.5219 -0.0458
10571TIP3   OH253203   6.113   2.443  15.340 -0.7515 -0.2104  0.2196
10571TIP3    H153204   6.186   2.504  15.337  0.5603 -1.7335  0.2539
10571TIP3    H253205   6.113   2.410  15.430  0.1427 -2.0860 -0.4280
10572TIP3   OH253206   6.221   2.639   4.169  0.0167 -0.2093  0.2534
10572TIP3    H153207   6.268   2.598   4.241  0.6385  1.2812  0.7034
10572TIP3    H253208   6.153   2.691   4.212 -2.4630 -2.7509 -0.3857
10573TIP3   OH253209   6.493   2.534   2.870 -0.2029  0.8072  0.1616
10573TIP3    H153210   6.466   2.474   2.938  3.1060  1.4132  2.1098
10573TIP3    H253211   6.462   2.494   2.788  0.0353 -2.3858  1.5852
10574TIP3   OH253212   5.334   0.369   1.405  0.3182  0.3212  0.3065
10574TIP3    H153213   5.322   0.447   1.460  1.1121 -0.1103  1.0975
10574TIP3    H253214   5.334   0.296   1.466  1.0342 -0.1788 -0.2850
10575TIP3   OH253215   2.294   3.309  12.674  0.0935  0.2612  0.0673
10575TIP3    H153216   2.335   3.386  12.713 -2.5526  1.5045  0.5116
10575TIP3    H253217   2.362   3.241  12.676  1.9882  2.1443  1.0209
10576TIP3   OH253218   5.706   2.868  12.958 -0.3397 -0.0143  0.0005
10576TIP3    H153219   5.625   2.817  12.962  0.0935 -0.7457 -0.5595
10576TIP3    H253220   5.689   2.936  12.892 -0.2350 -0.6183 -0.6480
10577TIP3   OH253221   3.845   4.114   5.065 -0.0941 -0.4686 -0.0280
10577TIP3    H153222   3.873   4.105   5.156  0.7122 -0.2849 -0.2582
10577TIP3    H253223   3.899   4.185   5.030 -1.3959  0.4256 -0.2513
10578TIP3   OH253224   4.946   4.922   1.954  0.5961 -0.5903 -0.8601
10578TIP3    H153225   4.891   4.994   1.986 -1.1880 -1.2636 -2.3341
10578TIP3    H253226   4.903   4.844   1.989  1.5743 -1.0422 -0.6684
10579TIP3   OH253227   2.150   4.360  11.961 -0.1724  0.3388  0.0651
10579TIP3    H153228   2.216   4.429  11.964 -0.4697  0.6320 -0.1180
10579TIP3    H253229   2.067   4.405  11.973 -0.5531  0.3045 -2.1358
10580TIP3   OH253230   2.531   2.152   4.645  0.0981  0.0881 -0.9000
10580TIP3    H153231   2.481   2.074   4.668 -1.1334  0.8005 -1.1249
10580TIP3    H253232   2.496   2.179   4.561  0.8524  0.6175 -1.0505
10581TIP3   OH253233   1.936   3.136  13.105  0.9334 -0.2862  0.3463
10581TIP3    H153234   2.006   3.141  13.170  0.9162  1.4194  0.2352
10581TIP3    H253235   1.886   3.216  13.116 -0.8033 -1.3114  0.1668
10582TIP3   OH253236   4.249   3.291   2.325  0.1316  0.3304 -0.1748
10582TIP3    H153237   4.310   3.364   2.315  0.2066  0.1136 -1.3762
10582TIP3    H253238   4.231   3.287   2.419  0.6260  1.4852 -0.0264
10583TIP3   OH253239   2.197   1.145  16.699 -0.0096 -0.0068  0.6874
10583TIP3    H153240   2.152   1.078  16.751 -1.3717 -0.1793 -0.6441
10583TIP3    H253241   2.206   1.105  16.612 -0.7035  1.4612 -0.0807
10584TIP3   OH253242   5.174   0.848  12.382 -0.0969 -0.1571  0.3329
10584TIP3    H153243   5.189   0.929  12.333 -1.7189  0.8955  1.5208
10584TIP3    H253244   5.261   0.820  12.410  0.6660  0.1857 -1.6152
10585TIP3   OH253245   0.646   1.788   3.160 -0.5326  0.0255  0.3700
10585TIP3    H153246   0.695   1.722   3.111  1.1750  0.0552  2.0108
10585TIP3    H253247   0.567   1.743   3.188 -0.1219 -0.8650  0.1235
10586TIP3   OH253248   4.592   5.603   4.008 -0.1532 -0.2218 -0.4671
10586TIP3    H153249   4.601   5.654   4.088  0.5616  0.5962 -1.0516
10586TIP3    H253250   4.503   5.622   3.977 -0.8480 -1.4591  0.7368
10587TIP3   OH253251   2.666   5.796  15.002 -0.0794 -0.6242 -0.3724
10587TIP3    H153252   2.589   5.776  15.054 -0.3539 -0.1382 -0.5888
10587TIP3    H253253   2.672   5.724  14.939 -0.1024 -0.8885 -0.0726
10588TIP3   OH253254   0.500   0.999  17.028  0.3500  0.2728 -0.1232
10588TIP3    H153255   0.505   1.083  16.982  0.2317 -0.6667 -1.8877
10588TIP3    H253256   0.414   0.963  17.004  0.2217 -0.1727  0.9585
10589TIP3   OH253257   1.961   2.394  13.497  0.5327  0.1833 -0.1465
10589TIP3    H153258   1.938   2.425  13.585 -0.3280 -1.7807  0.3659
10589TIP3    H253259   2.003   2.468  13.455 -1.3231  1.9823  1.0623
10590TIP3   OH253260   1.414   5.534  12.617 -0.0533 -0.1856  0.2705
10590TIP3    H153261   1.479   5.466  12.634  1.0148  0.8875  0.6367
10590TIP3    H253262   1.466   5.615  12.613 -1.1123  0.4364 -1.5247
10591TIP3   OH253263   2.582   1.208  13.325 -0.5528 -0.6311  0.3902
10591TIP3    H153264   2.517   1.195  13.393 -1.5202 -2.3725 -0.8172
10591TIP3    H253265   2.566   1.137  13.262  0.2042  0.9821 -1.7122
10592TIP3   OH253266   1.523   4.617  14.594 -0.2784 -0.1947 -0.3904
10592TIP3    H153267   1.476   4.594  14.674 -0.6594  0.0567 -0.5438
10592TIP3    H253268   1.588   4.682  14.621 -0.9300  0.4704 -0.4301
10593TIP3   OH253269   5.659   1.496   2.701  0.0732  0.0780  0.7224
10593TIP3    H153270   5.589   1.530   2.645 -0.1382 -1.5565 -0.0704
10593TIP3    H253271   5.739   1.506   2.648 -0.1334 -1.5098  0.0710
10594TIP3   OH253272   0.952   1.703   0.363 -0.1175  0.6641 -0.2211
10594TIP3    H153273   1.027   1.673   0.311  0.4530  2.2811 -0.3606
10594TIP3    H253274   0.959   1.656   0.446  1.1859  0.9688 -0.1547
10595TIP3   OH253275   1.062   5.963   5.261 -0.1556 -0.2832  0.6121
10595TIP3    H153276   1.117   5.933   5.189  0.3961  0.0993  0.8622
10595TIP3    H253277   0.992   5.898   5.268  0.6551 -1.1556  0.7369
10596TIP3   OH253278   2.880   0.440  16.805  0.0687 -0.6233 -0.4621
10596TIP3    H153279   2.854   0.480  16.722  0.2589  0.4265 -0.0275
10596TIP3    H253280   2.855   0.505  16.871  2.4366 -0.2204  0.0780
10597TIP3   OH253281   5.063   6.775   0.489  0.0623 -0.5307 -0.2253
10597TIP3    H153282   5.092   6.827   0.414  1.1460  1.9409  1.8347
10597TIP3    H253283   4.972   6.803   0.503 -0.9275 -2.7110 -2.0009
10598TIP3   OH253284   1.312   1.442   4.458 -0.3717  0.0684 -0.6148
10598TIP3    H153285   1.372   1.437   4.532  0.4592 -1.3801 -1.3588
10598TIP3    H253286   1.333   1.525   4.415  0.2687  0.1320 -0.1769
10599TIP3   OH253287   5.699   1.942   3.284  0.3225  0.1966  0.7926
10599TIP3    H153288   5.612   1.904   3.270  1.1100 -1.5244  0.4207
10599TIP3    H253289   5.684   2.017   3.341 -1.4637  0.2018  0.3434
10600TIP3   OH253290   0.346   1.211   2.141 -0.3815 -0.5928 -0.1415
10600TIP3    H153291   0.401   1.273   2.190  0.1041 -0.5507 -0.7306
10600TIP3    H253292   0.375   1.125   2.170 -1.3255 -0.5480  0.9700
10601TIP3   OH253293   0.938   1.916  13.472 -0.6291  0.3879 -0.1240
10601TIP3    H153294   0.847   1.942  13.487 -0.5643  0.9392 -0.6284
10601TIP3    H253295   0.967   1.973  13.400 -0.1676 -0.4150 -0.5812
10602TIP3   OH253296   0.908   3.826   4.747 -0.1884 -0.0830 -0.0334
10602TIP3    H153297   0.993   3.786   4.731  0.3522  0.1679  2.1044
10602TIP3    H253298   0.871   3.775   4.819 -0.9393  1.1577  0.4768
10603TIP3   OH253299   3.158   4.095  12.413  0.8434 -0.2378 -0.6209
10603TIP3    H153300   3.070   4.072  12.384  0.6292 -0.4469  0.2029
10603TIP3    H253301   3.145   4.169  12.472  1.2629  0.0407 -0.8758
10604TIP3   OH253302   3.949   5.006  15.026 -0.2339  0.1980 -0.4279
10604TIP3    H153303   3.977   5.081  15.080  0.4236 -0.0279 -0.4467
10604TIP3    H253304   3.993   4.931  15.066 -0.0367 -0.0224 -1.0619
10605TIP3   OH253305   6.208   4.312   4.451 -0.4535 -1.0994 -0.9892
10605TIP3    H153306   6.179   4.356   4.371  0.4835  0.5841 -0.4282
10605TIP3    H253307   6.138   4.329   4.514 -0.3121 -0.8214 -0.9079
10606TIP3   OH253308   2.348   2.298  16.050 -0.4593  0.1209 -0.3201
10606TIP3    H153309   2.368   2.370  16.109  1.4399  0.9393 -1.9049
10606TIP3    H253310   2.277   2.251  16.093 -0.6716  2.0188  1.4890
10607TIP3   OH253311   2.971   0.711   6.071 -0.0581  0.0980 -0.3801
10607TIP3    H153312   2.901   0.647   6.054 -1.5981  1.4903  0.4937
10607TIP3    H253313   2.980   0.712   6.166 -0.5172  1.6011 -0.3232
10608TIP3   OH253314   1.743   5.159   1.325  0.1249 -0.3005  0.3817
10608TIP3    H153315   1.658   5.121   1.347  0.0945 -0.6111 -0.2557
10608TIP3    H253316   1.771   5.112   1.246 -0.2566  1.5014 -0.8450
10609TIP3   OH253317   2.457   5.247  13.744  0.6558  0.5256  0.8322
10609TIP3    H153318   2.481   5.287  13.828  1.6443  0.7663  0.4443
10609TIP3    H253319   2.480   5.155  13.754  0.6437  0.5274  0.8777
10610TIP3   OH253320   5.920   3.658   2.168  0.2549  0.3738 -0.2177
10610TIP3    H153321   5.981   3.645   2.241 -2.0084  2.2960  2.1617
10610TIP3    H253322   5.846   3.601   2.189  0.2099 -0.1862 -1.8427
10611TIP3   OH253323   3.345   3.524   5.674 -0.3841 -0.0899  0.1811
10611TIP3    H153324   3.331   3.619   5.674  2.4460  0.3861 -1.5841
10611TIP3    H253325   3.336   3.499   5.766 -2.6685  1.6151  0.4765
10612TIP3   OH253326   2.700   4.735   5.240 -0.1920  0.5469 -0.0453
10612TIP3    H153327   2.606   4.749   5.242 -0.3962 -0.9544  1.9080
10612TIP3    H253328   2.712   4.657   5.185 -0.0707  0.8670 -0.4744
10613TIP3   OH253329   1.955   4.201   3.434  0.3494  0.5308 -0.6068
10613TIP3    H153330   1.875   4.254   3.441  0.8331  1.3947 -1.4707
10613TIP3    H253331   1.994   4.228   3.351  1.3360 -0.1774 -0.3745
10614TIP3   OH253332   0.142   5.194  15.639  0.6699 -0.1469 -0.0215
10614TIP3    H153333   0.086   5.138  15.693  0.1108  0.2520 -0.1960
10614TIP3    H253334   0.173   5.262  15.699  0.3852  0.0552 -0.1063
10615TIP3   OH253335   1.624   1.218   0.831  0.1204  0.1463  0.1540
10615TIP3    H153336   1.657   1.153   0.769 -1.7110 -0.6677  0.0038
10615TIP3    H253337   1.579   1.283   0.776 -0.5398  0.0083  0.5162
10616TIP3   OH253338   4.678   4.583  12.548 -0.2770  0.3051  0.9947
10616TIP3    H153339   4.686   4.501  12.597 -1.3588 -1.2102 -1.2725
10616TIP3    H253340   4.602   4.627  12.586 -0.1158 -0.0825  1.7657
10617TIP3   OH253341   5.568   6.275  10.789 -0.4561 -0.3066 -0.0385
10617TIP3    H153342   5.548   6.286  10.882  1.0291 -0.7810  0.3550
10617TIP3    H253343   5.661   6.295  10.782 -0.3409 -1.2209 -1.2639
10618TIP3   OH253344   2.018   5.260  14.218 -0.0487  0.0647  0.3489
10618TIP3    H153345   2.023   5.348  14.180 -0.1485  0.0023  0.1928
10618TIP3    H253346   2.110   5.237  14.236 -0.0459  0.3399  0.7107
10619TIP3   OH253347   3.979   0.962  14.712  0.6135  0.7111 -0.1018
10619TIP3    H153348   4.030   0.971  14.631 -0.0498  0.3602 -0.5571
10619TIP3    H253349   3.960   0.869  14.718  0.7039  0.7277  0.4939
10620TIP3   OH253350   1.908   1.887  15.017  0.0366 -0.4149  0.1281
10620TIP3    H153351   1.939   1.797  15.006  0.0454 -0.4299  0.2820
10620TIP3    H253352   1.841   1.881  15.085  1.3058 -0.0130  1.4260
10621TIP3   OH253353   4.560   5.089   5.516 -0.4097  0.5576  0.1242
10621TIP3    H153354   4.646   5.094   5.557 -0.9704  2.4349  1.1606
10621TIP3    H253355   4.579   5.069   5.424  1.2538  2.4731  0.0001
10622TIP3   OH253356   1.852   1.352  15.415  0.4063 -0.5746  0.1700
10622TIP3    H153357   1.841   1.447  15.412 -0.1432 -0.6489 -0.2064
10622TIP3    H253358   1.899   1.336  15.498  0.7434  0.0407  0.1012
10623TIP3   OH253359   0.815   3.316  13.492 -0.4382 -0.8108 -0.1730
10623TIP3    H153360   0.733   3.319  13.542  0.6622  1.1451  1.5961
10623TIP3    H253361   0.841   3.408  13.483  0.8691 -1.3223 -1.9018
10624TIP3   OH253362   4.273   4.340  14.663  0.0241 -0.0433 -0.0185
10624TIP3    H153363   4.184   4.360  14.636 -0.0324 -2.4474 -1.7998
10624TIP3    H253364   4.317   4.313  14.582  2.1264  0.3203  0.9777
10625TIP3   OH253365   5.193   5.096   2.945  0.0926  0.1317 -0.0992
10625TIP3    H153366   5.108   5.067   2.913  0.6750 -1.8927  0.0922
10625TIP3    H253367   5.256   5.044   2.894  1.0807 -1.9789  3.1572
10626TIP3   OH253368   5.441   2.805  15.042 -0.3866  0.0217 -0.1514
10626TIP3    H153369   5.451   2.724  15.092  3.1652  0.2196 -0.3943
10626TIP3    H253370   5.392   2.780  14.964  2.6169 -2.5066 -1.3591
10627TIP3   OH253371   3.670   2.649   5.786  0.1968  0.0826  0.1859
10627TIP3    H153372   3.735   2.590   5.824 -0.3482 -1.7518 -1.6455
10627TIP3    H253373   3.711   2.682   5.707  0.0151  1.2366  0.5647
10628TIP3   OH253374   5.350   4.737  15.818 -0.0033 -0.2294  0.4690
10628TIP3    H153375   5.356   4.641  15.824 -0.7069 -0.3967 -1.1304
10628TIP3    H253376   5.312   4.764  15.902  4.7246 -0.8691  2.9644
10629TIP3   OH253377   2.844   4.906   4.943 -0.2198 -0.3005 -0.5417
10629TIP3    H153378   2.888   4.898   5.027  2.0285 -2.7218 -1.8588
10629TIP3    H253379   2.763   4.953   4.962  1.0804  0.7490  2.6350
10630TIP3   OH253380   4.399   6.795   1.778 -0.1448  0.4284  0.0341
10630TIP3    H153381   4.421   6.785   1.686 -0.5024 -2.1049  0.1852
10630TIP3    H253382   4.468   6.851   1.814  0.7763  0.2551 -1.4537
10631TIP3   OH253383   6.403   4.992  16.897  0.1604  0.1291  0.5054
10631TIP3    H153384   6.376   5.078  16.865  0.9018  0.0317 -0.4227
10631TIP3    H253385   6.322   4.942  16.903 -0.1828  0.6589  0.3126
10632TIP3   OH253386   3.936   0.206   3.538 -0.0974  0.3542  0.6170
10632TIP3    H153387   4.028   0.196   3.517  0.0380 -0.5891  1.5763
10632TIP3    H253388   3.907   0.118   3.563 -1.3813  0.5322 -0.1711
10633TIP3   OH253389   3.883   6.736  11.336  0.1671  0.0842  0.0759
10633TIP3    H153390   3.965   6.715  11.291 -0.4460 -0.2918 -0.8755
10633TIP3    H253391   3.893   6.696  11.423  0.8714 -0.2066 -0.1289
10634TIP3   OH253392   6.079   1.901   3.921 -0.2620 -0.5276  0.0992
10634TIP3    H153393   6.038   1.822   3.954  0.7791 -0.4876  1.5218
10634TIP3    H253394   6.160   1.909   3.971  0.1914  0.8293 -0.8136
10635TIP3   OH253395   0.144   3.265  14.244  0.2201  0.4716 -0.3497
10635TIP3    H153396   0.087   3.199  14.205 -0.2160  1.6182 -1.6816
10635TIP3    H253397   0.189   3.305  14.170  0.6725  1.4899  0.4625
10636TIP3   OH253398   1.908   6.392  12.224 -0.5407  0.3559 -0.3322
10636TIP3    H153399   1.926   6.372  12.316 -0.8494  2.3213  0.1749
10636TIP3    H253400   1.956   6.325  12.175  1.4040  0.6052  1.2013
10637TIP3   OH253401   6.217   0.733  15.883  0.2217  0.0847  0.4975
10637TIP3    H153402   6.187   0.644  15.906  0.6846 -0.3505 -0.5437
10637TIP3    H253403   6.298   0.719  15.835 -0.8837  0.9402 -1.6821
10638TIP3   OH253404   3.592   4.463  14.014  0.2620 -0.4110 -0.3384
10638TIP3    H153405   3.501   4.486  14.030 -0.2790 -2.6419  0.0365
10638TIP3    H253406   3.613   4.507  13.931 -0.7468  1.1438  0.2096
10639TIP3   OH253407   3.374   4.178  12.206  0.6377  0.3462  0.1422
10639TIP3    H153408   3.333   4.257  12.171  1.3122  0.5347 -0.2370
10639TIP3    H253409   3.326   4.159  12.286  1.0254  1.6335  0.6920
10640TIP3   OH253410   2.785   1.468   2.985 -0.0893  0.0379  0.1162
10640TIP3    H153411   2.737   1.397   3.027 -0.0689 -0.8842 -1.3827
10640TIP3    H253412   2.865   1.477   3.037 -0.9548  0.2217  1.4143
10641TIP3   OH253413   4.051   4.944   2.839 -0.3098  0.5922 -0.2433
10641TIP3    H153414   4.073   4.891   2.916  0.2211  0.6818 -0.3306
10641TIP3    H253415   4.131   4.945   2.787 -0.9696 -0.3233 -1.3108
10642TIP3   OH253416   3.425   0.991  16.543 -0.1707  0.0565 -0.5564
10642TIP3    H153417   3.357   0.927  16.523 -0.8542  0.8581 -0.8247
10642TIP3    H253418   3.450   0.972  16.633 -0.9552 -0.0634 -0.3565
10643TIP3   OH253419   3.958   3.368  12.761  0.4722 -0.2179  0.0456
10643TIP3    H153420   3.869   3.366  12.796  1.0250  0.4067  1.5343
10643TIP3    H253421   3.954   3.431  12.690 -0.0973  0.4679  0.6716
10644TIP3   OH253422   2.272   6.348  17.139  0.1362  0.4091  0.2692
10644TIP3    H153423   2.302   6.428  17.097  0.2741 -0.3498 -1.0946
10644TIP3    H253424   2.344   6.286  17.129 -0.9518 -0.6818 -0.9622
10645TIP3   OH253425   3.227   0.944  12.620  0.4072 -0.0652  0.0980
10645TIP3    H153426   3.179   1.025  12.637  0.8603  0.2658 -0.2006
10645TIP3    H253427   3.310   0.954  12.666  0.4379 -0.3840  0.1125
10646TIP3   OH253428   5.228   2.086  11.979  0.6149  0.2721 -0.1409
10646TIP3    H153429   5.174   2.010  12.000  0.8728 -0.1912 -1.1247
10646TIP3    H253430   5.202   2.153  12.042 -0.4988 -0.2237 -0.0723
10647TIP3   OH253431   6.341   4.464  13.032 -0.0433 -0.4028 -0.3618
10647TIP3    H153432   6.388   4.421  13.104 -0.0116 -0.7644 -0.6009
10647TIP3    H253433   6.406   4.519  12.991 -0.2095  0.2733  0.2646
10648TIP3   OH253434   5.363   1.847   3.049 -0.0154  0.4249  0.1696
10648TIP3    H153435   5.344   1.760   3.015  0.4404 -0.0484  1.1065
10648TIP3    H253436   5.278   1.892   3.048 -0.6252 -0.6475  1.4299
10649TIP3   OH253437   2.392   5.543   2.122 -0.0509 -0.2038  0.6283
10649TIP3    H153438   2.312   5.507   2.158  1.2237 -3.6068  0.2349
10649TIP3    H253439   2.461   5.486   2.155  2.1074  2.0134  0.0926
10650TIP3   OH253440   3.703   2.305  15.490  0.2155  0.2200 -0.0218
10650TIP3    H153441   3.660   2.343  15.567 -0.4417  0.6503 -0.5863
10650TIP3    H253442   3.796   2.308  15.510  0.0733  0.7523  0.5751
10651TIP3   OH253443   3.056   6.122   2.645 -0.2136  0.4721 -0.9293
10651TIP3    H153444   3.148   6.141   2.661 -0.8031  0.5657  2.6949
10651TIP3    H253445   3.036   6.047   2.701 -3.0229  2.2480  0.5888
10652TIP3   OH253446   4.693   3.890   2.896 -0.1104  0.0936 -0.6376
10652TIP3    H153447   4.655   3.973   2.925 -1.5656 -0.7995  0.0487
10652TIP3    H253448   4.744   3.860   2.970 -0.4015 -0.1258 -0.5284
10653TIP3   OH253449   6.067   2.289  13.448  0.1111 -0.3400 -0.4028
10653TIP3    H153450   6.064   2.379  13.479 -1.8827 -0.8165  0.8955
10653TIP3    H253451   5.976   2.266  13.431  0.7134 -1.6956 -2.0046
10654TIP3   OH253452   0.509   5.155  15.616 -0.5034 -0.0072  0.0345
10654TIP3    H153453   0.472   5.118  15.536 -1.9034 -0.0917  0.7126
10654TIP3    H253454   0.482   5.095  15.685  2.3895 -1.0452  0.3398
10655TIP3   OH253455   4.775   6.362  12.751 -0.4460  0.1609 -0.1827
10655TIP3    H153456   4.844   6.296  12.754 -0.8455 -0.1781  1.7866
10655TIP3    H253457   4.699   6.315  12.716 -0.2575  0.0339 -0.4293
10656TIP3   OH253458   5.066   1.874  12.731  0.8218  0.7935  0.5248
10656TIP3    H153459   5.134   1.866  12.798  0.4711  0.9669  0.9057
10656TIP3    H253460   4.986   1.895  12.780  1.0383  3.3369 -0.1140
10657TIP3   OH253461   3.556   5.193  12.647  0.2929  0.2589 -0.1065
10657TIP3    H153462   3.556   5.156  12.735 -0.8005  0.2821 -0.0877
10657TIP3    H253463   3.645   5.177  12.614  0.8958  0.7934  1.2163
10658TIP3   OH253464   2.661   6.283  13.383  0.0956  0.5018 -0.2804
10658TIP3    H153465   2.686   6.256  13.471  0.5899  0.2224 -0.5023
10658TIP3    H253466   2.738   6.329  13.350 -0.6387  1.9502 -0.0053
10659TIP3   OH253467   2.072   5.145   2.401 -0.1016 -0.1586 -0.8301
10659TIP3    H153468   2.048   5.234   2.374 -0.3103 -0.1957 -0.7693
10659TIP3    H253469   2.112   5.106   2.324  2.4475  0.8766 -0.0844
10660TIP3   OH253470   6.569   5.406   5.099 -0.1003 -0.9471  0.2328
10660TIP3    H153471   6.605   5.370   5.180 -0.0744 -0.4784  0.4318
10660TIP3    H253472   6.482   5.437   5.123  1.3894  2.8687  1.0880
10661TIP3   OH253473   4.671   5.121  17.073  0.1888 -0.1354 -0.1975
10661TIP3    H153474   4.576   5.132  17.073  0.0490 -1.2870 -0.4785
10661TIP3    H253475   4.684   5.029  17.048  1.3843  0.1550 -0.6640
10662TIP3   OH253476   4.122   0.718  13.075  0.0021 -0.0958  0.7450
10662TIP3    H153477   4.083   0.759  13.153  0.2604  3.6496 -1.0037
10662TIP3    H253478   4.047   0.691  13.022 -0.1814  0.3926  0.7572
10663TIP3   OH253479   4.699   2.889   6.469  0.1461 -0.2359 -0.1663
10663TIP3    H153480   4.692   2.983   6.453 -0.5055 -0.5156 -1.5255
10663TIP3    H253481   4.792   2.871   6.460  0.0322 -0.0619 -1.8868
10664TIP3   OH253482   5.107   1.662  11.300  0.2871 -0.1183  0.3362
10664TIP3    H153483   5.086   1.735  11.242 -0.9178 -0.4890  0.3003
10664TIP3    H253484   5.140   1.704  11.380 -0.7786  0.4843  0.4662
10665TIP3   OH253485   0.025   0.395   5.210  0.0437 -0.0809  0.4460
10665TIP3    H153486  -0.056   0.355   5.240  0.3569 -1.1102 -0.0741
10665TIP3    H253487   0.093   0.355   5.263 -0.0575  3.1117  3.1464
10666TIP3   OH253488   2.074   3.914   3.455 -0.1749 -0.3215  0.2077
10666TIP3    H153489   1.980   3.909   3.472 -0.0125  0.3349  1.3469
10666TIP3    H253490   2.084   3.988   3.394 -0.5134 -1.1317 -0.8319
10667TIP3   OH253491   2.184   1.566  14.235  0.2630  0.1859 -0.0720
10667TIP3    H153492   2.273   1.561  14.271  1.3423 -0.6354 -2.7271
10667TIP3    H253493   2.180   1.651  14.193 -0.5723  0.6318  0.8856
10668TIP3   OH253494   2.979   1.880   5.555  0.1405  0.2051  0.4316
10668TIP3    H153495   3.008   1.791   5.576  0.4322  0.3606  0.6930
10668TIP3    H253496   3.054   1.935   5.576 -0.0976  0.5314  0.4245
10669TIP3   OH253497   2.656   3.200  14.149  0.0647  1.0001 -0.6188
10669TIP3    H153498   2.634   3.136  14.217  1.5533 -0.7450 -1.7528
10669TIP3    H253499   2.579   3.202  14.092  0.3269 -0.4452 -1.0543
10670TIP3   OH253500   1.534   1.385  14.292  0.0461  0.2674  0.2848
10670TIP3    H153501   1.549   1.367  14.199 -0.6755 -0.3895  0.2926
10670TIP3    H253502   1.439   1.392  14.299  0.2123  2.5448  0.5607
10671TIP3   OH253503   4.766   5.940  10.420 -0.3756 -0.6475 -0.4481
10671TIP3    H153504   4.752   6.032  10.395 -2.5938 -0.7258  0.3752
10671TIP3    H253505   4.859   5.935  10.440  0.0936  1.0517 -2.0035
10672TIP3   OH253506   6.689   4.701  11.878  0.3296 -0.0352  0.0870
10672TIP3    H153507   6.647   4.771  11.828  1.4253 -0.7374 -1.8878
10672TIP3    H253508   6.661   4.620  11.835  1.9401 -0.6164  0.0752
10673TIP3   OH253509   3.607   2.823   3.340 -0.0171 -0.1101  0.2531
10673TIP3    H153510   3.611   2.785   3.252  0.5095 -0.1554  0.2951
10673TIP3    H253511   3.585   2.915   3.326  2.5608  0.4839 -0.0780
10674TIP3   OH253512   1.565   1.783   2.530  0.3739  0.3901 -0.3719
10674TIP3    H153513   1.502   1.807   2.598  1.2078  0.4954  0.3751
10674TIP3    H253514   1.631   1.731   2.576  1.9354  2.0355 -0.7403
10675TIP3   OH253515   6.670   3.531   4.723 -0.2517  0.0091  0.3975
10675TIP3    H153516   6.727   3.530   4.800 -0.9497 -0.3143  0.9153
10675TIP3    H253517   6.728   3.507   4.650  0.2176 -0.5675  0.9537
10676TIP3   OH253518   6.281   0.232  13.927  0.3319 -0.2865  0.4615
10676TIP3    H153519   6.364   0.257  13.967  1.4691 -2.7705 -0.2985
10676TIP3    H253520   6.265   0.142  13.957 -0.5219 -0.9416 -1.8874
10677TIP3   OH253521   0.932   1.496   4.803 -0.2767 -0.2198  0.7707
10677TIP3    H153522   0.999   1.444   4.759 -0.5019 -0.4406  0.6885
10677TIP3    H253523   0.850   1.452   4.783 -0.4962  0.3022  0.5003
10678TIP3   OH253524   1.777   2.532   3.552  0.0232 -0.5300 -0.4173
10678TIP3    H153525   1.725   2.468   3.503  1.2085 -1.9917  0.1529
10678TIP3    H253526   1.776   2.500   3.642 -1.1386  1.4674  0.2924
10679TIP3   OH253527   6.687   5.167   2.403  0.5461 -0.2039 -0.0465
10679TIP3    H153528   6.763   5.116   2.374  0.7460  1.0888 -1.8582
10679TIP3    H253529   6.668   5.226   2.330  0.6717  2.7355  2.1846
10680TIP3   OH253530   0.090   2.372   0.183  0.2221 -0.3897 -0.1325
10680TIP3    H153531   0.065   2.316   0.257  0.0789 -1.5722 -1.0528
10680TIP3    H253532   0.073   2.318   0.106  0.4456  0.8003 -1.0300
10681TIP3   OH253533   3.271   2.251   4.024  0.0616  0.2204  0.1010
10681TIP3    H153534   3.297   2.331   3.978  0.4020  0.2728  0.3884
10681TIP3    H253535   3.175   2.252   4.020 -0.1104  2.2738  2.8049
10682TIP3   OH253536   0.562   2.741  12.017 -0.6155 -0.5239 -0.2701
10682TIP3    H153537   0.655   2.756  12.031 -0.8586  2.2059 -1.2047
10682TIP3    H253538   0.555   2.647  12.000  1.6795 -1.1147  1.7688
10683TIP3   OH253539   1.794   2.949  12.952  0.0838 -0.2064  0.5042
10683TIP3    H153540   1.824   2.999  13.028 -1.0979  2.8568 -0.9522
10683TIP3    H253541   1.725   2.892  12.987 -0.0782  0.7801  1.8421
10684TIP3   OH253542   5.330   5.991   1.154  0.3957 -1.1791  0.8310
10684TIP3    H153543   5.337   5.993   1.249  1.3454 -0.1713  0.7604
10684TIP3    H253544   5.321   6.083   1.129 -0.5832 -1.4970 -0.0074
10685TIP3   OH253545   1.041   4.492   3.647 -0.3631  0.4072 -0.3531
10685TIP3    H153546   0.991   4.514   3.726 -0.0220 -2.6223  0.7439
10685TIP3    H253547   0.987   4.428   3.601  0.9725 -0.3539 -0.8949
10686TIP3   OH253548   3.985   1.373  13.652  0.2378  0.1206  0.4722
10686TIP3    H153549   3.989   1.419  13.736  2.9393  1.3882 -0.2798
10686TIP3    H253550   4.074   1.339  13.640 -0.3315 -0.6985 -1.5148
10687TIP3   OH253551   2.389   4.692   0.254 -0.1923 -0.4886  0.2401
10687TIP3    H153552   2.295   4.710   0.249 -0.1311 -0.3917 -0.5914
10687TIP3    H253553   2.410   4.650   0.171  0.4323 -0.8493  0.5762
10688TIP3   OH253554   0.337   2.587   3.169  0.0524  0.3194 -0.0769
10688TIP3    H153555   0.371   2.668   3.131 -0.1618  1.1075  1.3796
10688TIP3    H253556   0.291   2.544   3.097  0.7754  1.1495 -1.0427
10689TIP3   OH253557   6.785   4.151   2.300  0.0122  0.1712 -0.1447
10689TIP3    H153558   6.743   4.065   2.293  0.4678 -0.2302  1.8300
10689TIP3    H253559   6.756   4.185   2.385  1.5811  1.0155  0.0605
10690TIP3   OH253560   2.637   0.899  12.180  0.2895 -0.3099  0.0078
10690TIP3    H153561   2.692   0.898  12.258 -2.5533  0.6964  2.1063
10690TIP3    H253562   2.593   0.814  12.181 -1.1703  0.4451  0.5668
10691TIP3   OH253563   3.420   6.133   4.516 -0.0482  0.2593 -0.1759
10691TIP3    H153564   3.340   6.183   4.532 -0.6994 -1.0507  0.7293
10691TIP3    H253565   3.490   6.197   4.523 -0.6159  0.5452  3.8567
10692TIP3   OH253566   0.319   4.862  16.622  0.2536 -0.0114  0.0995
10692TIP3    H153567   0.347   4.807  16.695  0.0104  1.7681  1.5505
10692TIP3    H253568   0.282   4.800  16.559  2.3407 -1.7889  0.5628
10693TIP3   OH253569   0.844   5.680   0.912  0.5085  0.3389  0.2913
10693TIP3    H153570   0.786   5.703   0.840  0.9097  3.8350  1.0166
10693TIP3    H253571   0.927   5.658   0.870  0.0496  0.0283 -0.4577
10694TIP3   OH253572   0.055   2.030  12.717 -0.1374  0.0967 -0.8170
10694TIP3    H153573   0.129   1.998  12.768 -2.0780  0.9272  2.6970
10694TIP3    H253574  -0.006   1.956  12.716 -0.9487  0.7486 -0.1678
10695TIP3   OH253575   5.885   4.717   3.437  0.1617  0.3746 -0.4073
10695TIP3    H153576   5.979   4.732   3.433  0.0465  1.0093 -0.7926
10695TIP3    H253577   5.876   4.621   3.441  0.8971  0.3692  1.7044
10696TIP3   OH253578   3.905   0.302   5.435 -0.3265  0.4011 -0.5368
10696TIP3    H153579   3.949   0.246   5.499  1.0018  2.1103  0.0940
10696TIP3    H253580   3.818   0.316   5.472 -1.3324 -2.6620 -1.5916
10697TIP3   OH253581   0.154   4.154   4.382 -0.3734  0.1062 -0.1663
10697TIP3    H153582   0.100   4.147   4.303  0.1913  0.5715 -0.6062
10697TIP3    H253583   0.202   4.071   4.385 -2.0176 -0.8154  0.9138
10698TIP3   OH253584   3.519   0.041  15.949 -0.3461  0.2932  0.2433
10698TIP3    H153585   3.505  -0.051  15.974  1.1054  0.1642  0.6302
10698TIP3    H253586   3.540   0.084  16.032 -0.8158  0.9372  0.0261
10699TIP3   OH253587   6.312   1.920   5.619  0.1240 -0.2466  0.2525
10699TIP3    H153588   6.252   1.902   5.546 -0.9225 -0.2480  1.1052
10699TIP3    H253589   6.323   1.835   5.661 -1.8824  0.3582  2.0628
10700TIP3   OH253590   0.858   1.711  15.057 -0.1628 -0.5656 -0.1431
10700TIP3    H153591   0.807   1.711  15.138 -1.0339  0.7565 -0.6608
10700TIP3    H253592   0.949   1.712  15.085 -0.4656  0.7711  0.8378
10701TIP3   OH253593   6.109   6.194  12.043 -0.3969 -0.1283 -0.6018
10701TIP3    H153594   6.073   6.171  11.957 -0.0305 -2.2905 -0.1869
10701TIP3    H253595   6.139   6.112  12.080  0.4564  0.9430  1.1657
10702TIP3   OH253596   2.280   6.084   0.010  0.0865  0.1384 -0.2605
10702TIP3    H153597   2.250   6.098  -0.080  0.4160  0.9949 -0.2441
10702TIP3    H253598   2.353   6.023   0.003  0.8129  1.0553 -0.6838
10703TIP3   OH253599   1.420   2.797   0.371 -0.9758 -0.2105 -0.0505
10703TIP3    H153600   1.483   2.823   0.438 -0.1682 -0.4179 -0.7297
10703TIP3    H253601   1.422   2.701   0.373  0.3232 -0.2319 -1.5530
10704TIP3   OH253602   2.265   4.253   6.171  0.1516  0.3368 -0.0600
10704TIP3    H153603   2.230   4.166   6.189  0.7313 -0.0088 -0.5854
10704TIP3    H253604   2.237   4.306   6.246 -0.9309 -0.0861 -0.1546
10705TIP3   OH253605   1.718   5.903  11.500  0.3969  0.7950 -0.2467
10705TIP3    H153606   1.712   5.937  11.589 -1.5070 -0.7535  0.2725
10705TIP3    H253607   1.809   5.874  11.491  0.7354  1.4407  1.0070
10706TIP3   OH253608   0.767   6.409   3.321 -0.2002 -0.0253  0.0024
10706TIP3    H153609   0.704   6.424   3.251 -0.4271 -1.0662 -0.0253
10706TIP3    H253610   0.748   6.320   3.352  1.1057 -0.2677  0.1436
10707TIP3   OH253611   5.487   0.406   2.443  0.5907 -0.2564  0.5995
10707TIP3    H153612   5.443   0.382   2.524  0.4605  0.4068  0.7342
10707TIP3    H253613   5.527   0.491   2.462  1.2108 -0.4584  0.2101
10708TIP3   OH253614   2.437   0.514  17.069 -0.2812 -0.4345  0.4615
10708TIP3    H153615   2.440   0.581  17.000  0.4830 -1.9335 -1.0023
10708TIP3    H253616   2.346   0.512  17.096 -0.8303 -0.6288 -1.3382
10709TIP3   OH253617   2.052   4.520  12.933 -0.0921 -0.1033 -0.7544
10709TIP3    H153618   2.089   4.601  12.896 -0.2718  1.2019  1.8384
10709TIP3    H253619   1.971   4.507  12.884 -0.1385  1.3823 -1.1221
10710TIP3   OH253620   4.829   3.357  12.957  0.2674 -0.0715 -0.0154
10710TIP3    H153621   4.884   3.430  12.984 -0.8004  0.3976  0.9352
10710TIP3    H253622   4.806   3.313  13.039 -0.2985 -0.5927 -0.4526
10711TIP3   OH253623   4.359   5.212  17.019 -0.0349 -0.3394 -0.7258
10711TIP3    H153624   4.359   5.237  17.112  0.4606  0.0365 -0.8258
10711TIP3    H253625   4.312   5.284  16.976  3.5392  1.7433 -1.3451
10712TIP3   OH253626   2.209   5.462  10.463 -0.2073 -0.2685  0.1535
10712TIP3    H153627   2.167   5.401  10.524  2.8356 -0.3075  2.3639
10712TIP3    H253628   2.227   5.410  10.385  2.6361 -2.4333  2.1309
10713TIP3   OH253629   6.710   5.659   5.043  0.1027 -0.0152  0.0880
10713TIP3    H153630   6.663   5.697   4.969 -0.3634  1.7477  1.2511
10713TIP3    H253631   6.668   5.574   5.058 -1.5881  0.7879  0.0227
10714TIP3   OH253632   0.725   2.784  16.200 -0.5498  0.2722  0.7442
10714TIP3    H153633   0.809   2.830  16.209 -0.7620  0.7110  0.5188
10714TIP3    H253634   0.749   2.694  16.180 -0.1494  0.8653 -1.5378
10715TIP3   OH253635   6.661   4.291  13.542 -0.4026  0.4148  0.0664
10715TIP3    H153636   6.571   4.321  13.531 -0.7139 -0.9042 -1.0713
10715TIP3    H253637   6.709   4.332  13.471  0.4224  3.0811  2.0866
10716TIP3   OH253638   3.818   1.049   2.307 -0.4591 -0.3547 -0.7996
10716TIP3    H153639   3.891   1.013   2.358  0.0864  0.1925 -1.1882
10716TIP3    H253640   3.755   0.977   2.302 -2.1275  0.6351  3.5822
10717TIP3   OH253641   5.257   3.365   5.927 -0.1204 -0.1551 -0.3754
10717TIP3    H153642   5.171   3.361   5.967  0.0730  0.6922  0.1432
10717TIP3    H253643   5.308   3.299   5.975 -0.7411 -1.3622 -1.3568
10718TIP3   OH253644   0.117   1.029  16.297 -0.6621 -0.0178 -0.8241
10718TIP3    H153645   0.034   0.994  16.267 -1.2136 -0.4007  1.0807
10718TIP3    H253646   0.177   0.954  16.298 -0.2845  0.2621 -2.2178
10719TIP3   OH253647   4.485   5.808  15.394 -0.0513  0.5253 -0.5862
10719TIP3    H153648   4.451   5.897  15.390 -0.3475  0.5300  1.6018
10719TIP3    H253649   4.577   5.818  15.418 -0.5968  0.1699  1.6994
10720TIP3   OH253650   0.700   0.792  16.821  0.2664  0.3717 -0.0425
10720TIP3    H153651   0.791   0.764  16.820  0.7258  1.8075  0.3382
10720TIP3    H253652   0.702   0.883  16.790 -1.1188  0.1797 -0.7780
10721TIP3   OH253653   1.282   2.499   4.666 -0.1204 -0.2092 -0.5445
10721TIP3    H153654   1.192   2.473   4.688  0.0369 -0.3007  0.0094
10721TIP3    H253655   1.336   2.451   4.729  0.1791  1.4531  0.4966
10722TIP3   OH253656   5.469   3.926  16.600  0.6981  0.9816 -0.0804
10722TIP3    H153657   5.558   3.899  16.578 -0.5119  0.0741 -4.3637
10722TIP3    H253658   5.480   3.997  16.663  4.5299  1.9672 -1.7219
10723TIP3   OH253659   0.450   4.313   0.072 -0.0038 -0.1872  0.6132
10723TIP3    H153660   0.432   4.260  -0.006 -1.8285  0.7700  0.3689
10723TIP3    H253661   0.532   4.276   0.107 -0.4783 -2.2478 -0.3397
10724TIP3   OH253662   3.349   2.759  11.033  0.2264 -0.0574 -0.3591
10724TIP3    H153663   3.333   2.850  11.009 -0.2511  0.1067  0.5351
10724TIP3    H253664   3.444   2.752  11.040  0.1322  1.4179  3.3849
10725TIP3   OH253665   2.705   6.213  16.834 -0.0492  0.1465 -1.0979
10725TIP3    H153666   2.694   6.277  16.763 -1.8250  0.4941 -0.5349
10725TIP3    H253667   2.793   6.179  16.822 -0.2369  0.3835 -3.3441
10726TIP3   OH253668   4.739   2.536  16.974  0.0395  0.5753 -0.2185
10726TIP3    H153669   4.747   2.458  17.029  3.1035  2.2206  1.7685
10726TIP3    H253670   4.758   2.504  16.885 -1.0734 -1.3656  0.2209
10727TIP3   OH253671   0.156   0.718   2.893  0.0110  0.1818  0.9632
10727TIP3    H153672   0.117   0.738   2.808  0.5865  1.5437  1.0042
10727TIP3    H253673   0.209   0.640   2.878  2.0718  1.8166 -0.5278
10728TIP3   OH253674   2.181   1.099   0.664  0.2674 -0.5333  0.4516
10728TIP3    H153675   2.177   1.004   0.659 -0.2730 -0.5242  0.6584
10728TIP3    H253676   2.136   1.121   0.746  0.5039 -0.1088  0.4713
10729TIP3   OH253677   4.337   3.629   0.123 -0.2519  0.3256 -0.5750
10729TIP3    H153678   4.303   3.636   0.213  1.8167  0.4792  0.2183
10729TIP3    H253679   4.289   3.696   0.075  0.1429  1.7253  0.9120
10730TIP3   OH253680   5.872   1.801  14.334  0.2624  0.5716 -0.3091
10730TIP3    H153681   5.804   1.843  14.281 -1.0952  0.7091  1.4927
10730TIP3    H253682   5.947   1.793  14.275 -0.1446  3.6143 -1.3344
10731TIP3   OH253683   1.095   3.853  17.019 -0.1652 -0.1162 -0.0333
10731TIP3    H153684   1.101   3.901  16.936  0.4151  2.2237  1.3133
10731TIP3    H253685   1.176   3.874  17.064 -0.0896 -2.0881  0.7710
10732TIP3   OH253686   1.845   1.932  13.189  0.3933 -0.2746 -0.1823
10732TIP3    H153687   1.787   1.857  13.206 -0.8194  0.5034 -0.8403
10732TIP3    H253688   1.800   1.983  13.122  2.7130 -0.6098 -2.0639
10733TIP3   OH253689   5.972   4.400  14.394 -0.4832  0.1663 -0.1335
10733TIP3    H153690   6.016   4.485  14.404 -0.4853  0.3117 -1.3843
10733TIP3    H253691   5.926   4.388  14.477 -0.0665  1.1501  0.2480
10734TIP3   OH253692   5.533   4.053  11.345 -0.6534 -0.1721  0.0375
10734TIP3    H153693   5.440   4.069  11.358 -0.4850  1.9296 -1.0904
10734TIP3    H253694   5.538   3.995  11.269 -1.0867 -1.6605  1.1200
10735TIP3   OH253695   4.465   6.232  13.749 -0.2976 -0.0618  0.5795
10735TIP3    H153696   4.506   6.313  13.779 -0.6704 -0.1482  1.3481
10735TIP3    H253697   4.411   6.259  13.675  3.1564 -0.3876 -2.1631
10736TIP3   OH253698   3.407   1.574   1.107  0.9192  0.5190 -0.2803
10736TIP3    H153699   3.482   1.515   1.103  0.7698  0.2284  1.0584
10736TIP3    H253700   3.394   1.601   1.016  1.0559 -1.4151 -0.9077
10737TIP3   OH253701   4.314   1.471   5.095  0.4887  0.5668  0.0948
10737TIP3    H153702   4.351   1.406   5.155 -0.4217 -0.4261 -0.3877
10737TIP3    H253703   4.339   1.440   5.008 -0.3316  0.6156 -0.1613
10738TIP3   OH253704   5.132   1.707   1.798  0.2496 -0.2910  0.0455
10738TIP3    H153705   5.076   1.679   1.870  0.1725  2.6539  1.1905
10738TIP3    H253706   5.074   1.712   1.723 -0.3934 -0.0192  0.5650
10739TIP3   OH253707   3.926   1.525   2.474  0.4376  0.2368 -0.2110
10739TIP3    H153708   3.954   1.442   2.436  3.1027  0.1419  1.8168
10739TIP3    H253709   3.970   1.591   2.420  1.7168  0.1761  0.7173
10740TIP3   OH253710   4.168   4.530  16.574 -0.2646  0.1233  0.1143
10740TIP3    H153711   4.242   4.525  16.513  0.5244  0.8542  0.9789
10740TIP3    H253712   4.189   4.605  16.630 -1.9596  0.7086 -0.0036
10741TIP3   OH253713   1.689   5.538   0.759 -0.0279  0.1048 -0.2719
10741TIP3    H153714   1.727   5.516   0.674 -2.4528 -0.5603 -1.1978
10741TIP3    H253715   1.729   5.474   0.819  1.2561  0.2109 -0.9816
10742TIP3   OH253716   2.837   6.720  15.037 -0.3838  0.1618  0.2598
10742TIP3    H153717   2.909   6.781  15.056  0.7166 -1.1609  0.4648
10742TIP3    H253718   2.864   6.676  14.956 -0.4613 -1.0468  0.8699
10743TIP3   OH253719   4.706   1.705   4.747 -0.7890  0.1108  0.3967
10743TIP3    H153720   4.690   1.703   4.841  0.3644 -0.7200  0.5904
10743TIP3    H253721   4.689   1.796   4.721  3.6742  1.6222  2.3036
10744TIP3   OH253722   5.060   0.972   1.320  0.3784  0.1489  0.3083
10744TIP3    H153723   5.006   0.910   1.370 -0.7444  1.0915  0.2734
10744TIP3    H253724   4.998   1.016   1.262  1.3107  0.7200 -0.2508
10745TIP3   OH253725   3.087   3.586   4.533 -0.2422  0.2828 -0.3067
10745TIP3    H153726   3.157   3.553   4.588 -0.1063 -1.8767 -1.7218
10745TIP3    H253727   3.119   3.671   4.502  0.8847  0.2078  0.6250
10746TIP3   OH253728   4.268   0.019  14.707 -0.3055  0.1608 -0.1819
10746TIP3    H153729   4.346   0.001  14.760 -0.6657  1.2903  0.7538
10746TIP3    H253730   4.231  -0.068  14.689  2.0516 -0.4960 -2.0186
10747TIP3   OH253731   1.592   2.080   2.402 -0.2817 -0.4918  0.2356
10747TIP3    H153732   1.555   1.993   2.388 -2.3360 -0.0761  2.7662
10747TIP3    H253733   1.525   2.140   2.369  0.4855  0.1758 -0.1311
10748TIP3   OH253734   2.626   3.412   5.234 -0.1499  0.6162  0.5105
10748TIP3    H153735   2.552   3.352   5.245 -0.3173  0.5004 -1.0352
10748TIP3    H253736   2.664   3.421   5.321 -1.2069 -0.3371  1.0801
10749TIP3   OH253737   1.914   5.277   1.104  0.3609 -0.2794  0.0421
10749TIP3    H153738   1.973   5.264   1.178  2.9933  0.5651 -1.8279
10749TIP3    H253739   1.868   5.194   1.094  3.1182 -1.8344 -0.0443
10750TIP3   OH253740   6.356   2.591  13.401  0.2907  0.8846  0.7320
10750TIP3    H153741   6.322   2.551  13.321 -1.4363  1.9380  0.9184
10750TIP3    H253742   6.451   2.580  13.395  0.1717  0.9626 -1.4654
10751TIP3   OH253743   3.425   5.923  14.087  0.1558 -0.3357  0.1955
10751TIP3    H153744   3.333   5.908  14.068 -0.1299 -0.5502  1.6726
10751TIP3    H253745   3.471   5.857  14.035 -0.2881  1.7398 -2.9562
10752TIP3   OH253746   3.272   6.140  15.693 -0.1178 -0.2716 -0.0403
10752TIP3    H153747   3.245   6.088  15.617  1.5538 -1.1995 -0.0379
10752TIP3    H253748   3.283   6.076  15.763 -1.0165  0.4956  0.8120
10753TIP3   OH253749   4.065   6.774   5.644 -0.4647 -0.0575 -0.0978
10753TIP3    H153750   4.042   6.687   5.613  1.1819 -0.1067 -1.2481
10753TIP3    H253751   4.161   6.773   5.651 -0.3247  2.0419 -1.3113
10754TIP3   OH253752   5.664   2.083  12.394  0.5109 -0.1009  0.5182
10754TIP3    H153753   5.649   2.153  12.330  0.4925 -2.0771 -1.7274
10754TIP3    H253754   5.690   2.007  12.341  1.1192 -1.6417  2.9246
10755TIP3   OH253755   1.704   6.286   4.021 -0.4304  0.3383 -0.0863
10755TIP3    H153756   1.697   6.381   4.017 -1.5117  0.2527 -0.4805
10755TIP3    H253757   1.724   6.260   3.931 -0.8336  0.1386 -0.1173
10756TIP3   OH253758   6.122   6.461   1.746  0.1725 -0.3596 -0.1530
10756TIP3    H153759   6.172   6.529   1.702  1.0865 -1.6828 -1.2279
10756TIP3    H253760   6.030   6.488   1.737  0.5839  1.2580  0.3993
10757TIP3   OH253761   5.473   3.093  16.202  0.1422 -0.3668 -0.5173
10757TIP3    H153762   5.494   3.120  16.112  0.8116  0.5256 -0.1100
10757TIP3    H253763   5.443   3.173  16.244  3.9585  0.2612  1.2553
10758TIP3   OH253764   4.606   5.229   5.960 -0.1778 -0.3733 -0.6090
10758TIP3    H153765   4.697   5.257   5.948 -0.8227  2.1757  0.0666
10758TIP3    H253766   4.610   5.157   6.023  1.4480 -0.9187 -1.3283
10759TIP3   OH253767   5.257   1.661  14.850 -0.1006 -0.9073 -0.3791
10759TIP3    H153768   5.255   1.600  14.924  1.3419 -0.8514 -0.2690
10759TIP3    H253769   5.343   1.703  14.857 -1.1912  1.3904 -0.2488
10760TIP3   OH253770   6.140   4.048  13.169 -0.1452 -0.3526 -0.0888
10760TIP3    H153771   6.224   4.002  13.162 -0.1179 -0.3877  0.4174
10760TIP3    H253772   6.092   3.999  13.236  1.5126  2.7763  3.6109
10761TIP3   OH253773   4.081   2.511  13.441  0.0864  0.5856  0.3809
10761TIP3    H153774   4.069   2.603  13.463 -0.4952  0.3922  0.8858
10761TIP3    H253775   4.003   2.468  13.476 -0.5128  0.1664 -1.4201
10762TIP3   OH253776   4.636   6.613  12.730 -0.1432 -0.5938 -0.1808
10762TIP3    H153777   4.703   6.658  12.781  0.0201 -0.0472 -0.8871
10762TIP3    H253778   4.677   6.530  12.704 -0.5589 -1.3163  1.3968
10763TIP3   OH253779   4.365   0.362  14.878 -0.3352 -0.1290  1.3522
10763TIP3    H153780   4.430   0.294  14.860  0.7309  1.1704  0.0815
10763TIP3    H253781   4.282   0.315  14.882  0.4078 -1.5483  0.7952
10764TIP3   OH253782   3.126   0.112   5.883 -0.2315  0.2279 -0.1333
10764TIP3    H153783   3.213   0.093   5.916  0.1339 -0.9824 -1.7298
10764TIP3    H253784   3.141   0.170   5.808 -0.9180  1.4365  0.6530
10765TIP3   OH253785   6.575   3.151   2.532 -0.5903 -0.0735 -0.0231
10765TIP3    H153786   6.590   3.066   2.571 -2.6129 -0.9197 -1.0073
10765TIP3    H253787   6.660   3.177   2.496  0.6138 -0.5236  2.4387
10766TIP3   OH253788   3.783   3.230  11.000 -1.2051 -0.1744 -0.6179
10766TIP3    H153789   3.782   3.207  11.093  0.3480  0.8537 -0.3295
10766TIP3    H253790   3.871   3.206  10.971 -1.7242 -0.6108 -1.8579
10767TIP3   OH253791   1.836   4.290  16.805 -0.2137  0.5616 -0.6399
10767TIP3    H153792   1.921   4.251  16.826 -0.3941  0.3965 -0.2200
10767TIP3    H253793   1.790   4.294  16.889 -1.2127 -0.7586 -1.1092
10768TIP3   OH253794   3.954   2.740  15.192  0.3418 -0.1717  0.4544
10768TIP3    H153795   3.910   2.808  15.243  0.0417  0.1163 -0.1908
10768TIP3    H253796   4.015   2.788  15.136  0.5254 -0.4770  0.3929
10769TIP3   OH253797   2.370   1.520  14.770  0.0947 -0.0194 -0.2025
10769TIP3    H153798   2.431   1.507  14.843 -1.8366  0.7777  1.5889
10769TIP3    H253799   2.422   1.566  14.703  3.1617 -4.5996 -1.2231
10770TIP3   OH253800   2.816   4.741  11.536  0.4349 -0.1858 -0.1556
10770TIP3    H153801   2.900   4.778  11.509 -0.3416  0.6684 -1.4450
10770TIP3    H253802   2.792   4.791  11.614  1.2058 -0.5614  0.3252
10771TIP3   OH253803   4.107   5.002  16.844 -0.3329  0.3930 -0.4120
10771TIP3    H153804   4.070   5.085  16.814 -0.1216 -0.0516 -1.9345
10771TIP3    H253805   4.043   4.968  16.906 -0.2160  1.8994  0.5689
10772TIP3   OH253806   3.029   5.191  10.740  0.2686  0.2520 -0.2326
10772TIP3    H153807   3.018   5.149  10.825  1.2406 -0.6923 -0.5651
10772TIP3    H253808   2.972   5.142  10.681  0.8667 -0.1708 -0.4702
10773TIP3   OH253809   2.123   0.317  15.138 -0.1926  0.3768 -0.1251
10773TIP3    H153810   2.125   0.368  15.219  1.4554 -0.7882  0.5937
10773TIP3    H253811   2.143   0.381  15.069 -0.9406  1.2410  0.4390
10774TIP3   OH253812   0.182   0.812   5.353 -0.0113 -0.1316  0.4016
10774TIP3    H153813   0.197   0.731   5.305  0.8332 -0.1629  0.7154
10774TIP3    H253814   0.269   0.842   5.378 -0.4190  0.0011  1.7110
10775TIP3   OH253815   3.365   4.495   6.762  0.0246 -0.0558  0.2023
10775TIP3    H153816   3.450   4.518   6.723  0.4986 -0.9073  0.7076
10775TIP3    H253817   3.348   4.566   6.824  0.6165 -0.1396  0.4677
10776TIP3   OH253818   3.992   4.374  14.587 -0.0020 -0.6241 -0.0613
10776TIP3    H153819   3.977   4.361  14.681  1.0139 -3.3694 -0.2183
10776TIP3    H253820   3.927   4.439  14.561 -0.8636 -0.4488  2.3765
10777TIP3   OH253821   2.760   1.043   2.267  0.1433 -0.0409  0.2800
10777TIP3    H153822   2.786   1.130   2.296  0.4119  0.6966 -2.0864
10777TIP3    H253823   2.823   1.020   2.200 -0.9754 -1.3226 -0.3667
10778TIP3   OH253824   2.971   0.783   1.643 -0.6236 -0.6184  0.4021
10778TIP3    H153825   3.035   0.752   1.708 -1.2344 -0.8839  0.8735
10778TIP3    H253826   2.993   0.734   1.564 -0.9003 -1.4810  0.8514
10779TIP3   OH253827   3.122   0.556  15.895  0.1150  0.0240 -0.1579
10779TIP3    H153828   3.044   0.592  15.854 -0.0397 -0.0806  0.0432
10779TIP3    H253829   3.153   0.624  15.954  1.7132  1.1316 -2.1999
10780TIP3   OH253830   0.839   0.339  13.608  0.5454 -0.1215  0.4650
10780TIP3    H153831   0.841   0.417  13.552 -0.8520 -1.9124 -2.1674
10780TIP3    H253832   0.754   0.343  13.651  0.2448 -0.4731 -0.0941
10781TIP3   OH253833   5.644   2.504  13.989  0.2008 -0.9443  0.2706
10781TIP3    H153834   5.589   2.503  13.910  1.2029 -0.4536 -0.4446
10781TIP3    H253835   5.652   2.597  14.011 -0.8969 -1.1389  1.5479
10782TIP3   OH253836   3.194   2.584   1.889  0.2108 -0.3435  0.8232
10782TIP3    H153837   3.190   2.492   1.863  1.7750 -0.1335 -0.2336
10782TIP3    H253838   3.213   2.631   1.808 -0.2140  0.8735  1.4285
10783TIP3   OH253839   6.466   0.517   1.043  0.5161  0.3442 -0.3296
10783TIP3    H153840   6.519   0.440   1.023 -0.0827 -0.1927  0.1465
10783TIP3    H253841   6.482   0.533   1.136 -0.5489 -0.1261 -0.0584
10784TIP3   OH253842   4.068   3.292   0.647 -0.0691  0.2432 -0.3516
10784TIP3    H153843   4.035   3.357   0.710 -0.8947 -1.0460  0.5674
10784TIP3    H253844   4.007   3.219   0.655  1.5888 -1.1671 -0.4575
10785TIP3   OH253845   4.647   2.461  14.548 -0.5100 -0.3275 -0.7260
10785TIP3    H153846   4.668   2.492  14.460 -0.6140 -2.0662 -1.3746
10785TIP3    H253847   4.666   2.367  14.546 -0.2862 -0.3523  1.1717
10786TIP3   OH253848   1.192   2.923  12.902 -0.1646  0.3721  0.6984
10786TIP3    H153849   1.242   2.853  12.859 -0.5934  0.2044  0.4708
10786TIP3    H253850   1.147   2.967  12.831 -1.1326 -0.1100  0.9986
10787TIP3   OH253851   0.204   0.083  13.909 -0.0401  0.9800  0.2782
10787TIP3    H153852   0.210   0.094  13.814 -0.2554  1.1994  0.2887
10787TIP3    H253853   0.175   0.169  13.941 -2.3942  0.1901  0.3150
10788TIP3   OH253854   2.159   0.382  16.215 -0.4645 -0.5940 -0.2768
10788TIP3    H153855   2.085   0.346  16.263 -0.3926 -2.0954 -1.2430
10788TIP3    H253856   2.169   0.324  16.139  1.8285 -0.5620 -0.0562
10789TIP3   OH253857   3.726   1.092  17.109  0.1415  0.3556  0.0823
10789TIP3    H153858   3.695   1.088  17.200  0.0395 -1.2191 -0.0101
10789TIP3    H253859   3.669   1.156  17.067  0.2117  1.1233  1.1301
10790TIP3   OH253860   3.332   3.968   6.621  0.5293 -0.5800 -0.1941
10790TIP3    H153861   3.383   3.912   6.679  3.3459  0.2897 -1.7212
10790TIP3    H253862   3.392   4.038   6.595 -1.9807  1.4787 -0.7259
10791TIP3   OH253863   0.410   5.011  13.990 -0.2679  0.4461  0.4219
10791TIP3    H153864   0.338   4.962  14.031 -1.8849  0.7541 -1.8901
10791TIP3    H253865   0.396   5.102  14.018 -0.3818  0.3947  0.5349
10792TIP3   OH253866   2.171   6.188   2.526 -0.1343 -0.1573  0.3156
10792TIP3    H153867   2.132   6.157   2.445 -1.8886  0.0667  1.0458
10792TIP3    H253868   2.158   6.283   2.524 -0.5468 -0.1906  1.0226
10793TIP3   OH253869   6.780   0.379   0.850  0.0863 -0.6834 -0.4437
10793TIP3    H153870   6.723   0.320   0.899 -0.3919 -1.0105 -1.3779
10793TIP3    H253871   6.848   0.405   0.913 -1.1535 -0.1819  0.7032
10794TIP3   OH253872   2.168   1.297  12.712 -0.6222  0.3734  0.0210
10794TIP3    H153873   2.234   1.349  12.666 -0.1546 -0.5346 -0.3469
10794TIP3    H253874   2.158   1.341  12.796  0.2248  0.6947 -0.0383
10795TIP3   OH253875   0.807   1.963   2.804 -0.2154  0.2626 -0.4372
10795TIP3    H153876   0.736   1.913   2.763  0.6941  0.4617 -2.3168
10795TIP3    H253877   0.772   1.988   2.890 -1.2697 -2.2247 -0.1109
10796TIP3   OH253878   4.367   0.343   5.321  0.2424 -0.1178  0.2791
10796TIP3    H153879   4.345   0.420   5.268  0.5410  0.4354  0.9415
10796TIP3    H253880   4.312   0.351   5.400 -0.8667 -1.4141 -0.3395
10797TIP3   OH253881   2.956   0.335  12.465  0.1787 -0.2876  0.8120
10797TIP3    H153882   2.977   0.338  12.371  0.8826 -2.2593  0.8806
10797TIP3    H253883   2.873   0.287  12.469 -0.6426  1.1247  1.1024
10798TIP3   OH253884   3.355   4.931  17.045 -0.4268  0.0884 -0.4606
10798TIP3    H153885   3.402   4.870  16.988 -0.1375  0.7659 -0.9549
10798TIP3    H253886   3.411   4.942  17.121  0.8244  1.8289 -1.5813
10799TIP3   OH253887   1.035   1.496   4.423 -0.1648  0.4962  0.1491
10799TIP3    H153888   1.116   1.461   4.461  0.7669  1.4571 -0.9251
10799TIP3    H253889   1.051   1.590   4.416 -0.3564  0.3449 -2.5357
10800TIP3   OH253890   0.971   2.048   3.442  0.4820  0.0218 -0.4047
10800TIP3    H153891   0.997   2.018   3.355  0.3352  0.5320 -0.6207
10800TIP3    H253892   1.051   2.084   3.480  0.7086 -0.8147 -0.0672
10801TIP3   OH253893   0.401   4.785  10.207 -0.8427  0.4698 -0.4737
10801TIP3    H153894   0.454   4.865  10.202 -1.7704  1.3096  1.9687
10801TIP3    H253895   0.335   4.805  10.274 -0.1502 -2.8803  1.3040
10802TIP3   OH253896   4.704   5.921  15.149  0.0064 -0.0224  0.3354
10802TIP3    H153897   4.638   5.863  15.111  1.0969 -0.7463 -0.5031
10802TIP3    H253898   4.746   5.867  15.217  0.3183  0.1330  0.2666
10803TIP3   OH253899   3.597   4.638  15.260 -0.2177  0.6906 -0.0858
10803TIP3    H153900   3.686   4.669  15.279  0.3582 -0.4946 -0.8403
10803TIP3    H253901   3.584   4.659  15.168 -0.7697  0.9345  0.0412
10804TIP3   OH253902   3.689   1.081  12.308  0.3744  0.2930 -0.1090
10804TIP3    H153903   3.732   1.091  12.223  1.1155 -1.2417  0.0673
10804TIP3    H253904   3.614   1.024  12.290  0.8729 -0.5170  0.3784
10805TIP3   OH253905   0.536   5.621   2.715 -0.0902  0.1011  0.4697
10805TIP3    H153906   0.485   5.559   2.767 -0.0399  0.6366  1.1589
10805TIP3    H253907   0.570   5.684   2.779 -0.5378  1.1200 -0.2727
10806TIP3   OH253908   0.665   2.648  12.937  0.1270  0.0735  0.4646
10806TIP3    H153909   0.644   2.708  12.866  1.3288  0.5486  0.5009
10806TIP3    H253910   0.585   2.596  12.949 -1.4752  2.6074  1.3943
10807TIP3   OH253911   0.192   2.569  11.985  0.1186 -0.6560 -0.1335
10807TIP3    H153912   0.190   2.537  12.075  0.4444 -1.3002 -0.3554
10807TIP3    H253913   0.216   2.493  11.933  1.6110  0.1037 -0.5787
10808TIP3   OH253914   5.779   2.949  16.025  0.0093  0.4528  0.2848
10808TIP3    H153915   5.785   2.963  15.930  1.0793  0.5009  0.3549
10808TIP3    H253916   5.700   2.896  16.037 -0.4109  0.8803 -0.5897
10809TIP3   OH253917   4.353   3.261   5.218  0.3597 -0.0721 -0.4630
10809TIP3    H153918   4.353   3.167   5.202 -0.1425 -0.3208  0.9378
10809TIP3    H253919   4.429   3.276   5.273 -0.3936  0.1227  0.5309
10810TIP3   OH253920   0.272   1.373   3.559  0.1405 -0.0054  0.4669
10810TIP3    H153921   0.277   1.423   3.477 -1.3530  1.9091  1.5003
10810TIP3    H253922   0.351   1.398   3.607  1.7061 -2.1494 -0.9001
10811TIP3   OH253923   2.470   4.000   0.476 -0.0980 -0.0194  0.1857
10811TIP3    H153924   2.491   3.913   0.443  0.3101  0.5644 -1.1228
10811TIP3    H253925   2.419   3.984   0.555 -0.6144 -1.4496 -0.4242
10812TIP3   OH253926   1.145   3.799   5.090  0.0972 -0.3699 -0.5390
10812TIP3    H153927   1.235   3.818   5.118 -0.6328  1.4312  0.6526
10812TIP3    H253928   1.103   3.885   5.085 -1.2949 -1.1127 -2.0656
10813TIP3   OH253929   5.546   0.239  12.595  0.3049  0.3486  0.2280
10813TIP3    H153930   5.572   0.248  12.503  2.7728  1.8671  1.0324
10813TIP3    H253931   5.536   0.329  12.626 -0.6320 -0.1538  1.4224
10814TIP3   OH253932   5.123   3.452   2.859 -0.2543 -0.3521 -0.2124
10814TIP3    H153933   5.190   3.434   2.925 -1.0909 -2.1407  0.1530
10814TIP3    H253934   5.093   3.366   2.830 -4.3705  0.3581  1.5945
10815TIP3   OH253935   3.155   5.145   5.047 -0.3154 -0.1988  0.1066
10815TIP3    H153936   3.087   5.212   5.032 -2.2355 -2.3517 -1.2567
10815TIP3    H253937   3.145   5.085   4.973  0.7243 -2.5114  1.7990
10816TIP3   OH253938   3.516   6.336   3.855 -0.6248  0.2430  0.0049
10816TIP3    H153939   3.481   6.291   3.778  1.7988  0.0014 -1.0040
10816TIP3    H253940   3.540   6.423   3.823  1.6803 -0.3288  0.1090
10817TIP3   OH253941   4.438   0.252   3.173 -0.7404  0.5724  0.1236
10817TIP3    H153942   4.459   0.287   3.260  0.4643 -0.1469  0.1393
10817TIP3    H253943   4.375   0.181   3.190  0.2993 -0.2726  0.5255
10818TIP3   OH253944   2.851   2.687  16.929 -0.2678 -0.2996 -0.1162
10818TIP3    H153945   2.894   2.608  16.897 -0.1212 -0.4710  0.5032
10818TIP3    H253946   2.758   2.665  16.933 -0.5413  0.3407 -2.2691
10819TIP3   OH253947   5.551   3.048  15.739 -0.2887  0.0039  0.0641
10819TIP3    H153948   5.548   2.954  15.755  2.2644  0.1293  1.4640
10819TIP3    H253949   5.582   3.056  15.648  0.1210 -0.4842  0.1595
10820TIP3   OH253950   3.669   1.659   3.402 -0.7343  0.2403 -0.6929
10820TIP3    H153951   3.708   1.675   3.487 -0.0595 -2.1520 -0.5080
10820TIP3    H253952   3.738   1.680   3.339 -0.3137 -0.5889 -0.5176
10821TIP3   OH253953   5.791   1.163  11.103  0.3581 -0.3654 -0.2957
10821TIP3    H153954   5.774   1.249  11.063 -0.2663 -1.0677 -1.5567
10821TIP3    H253955   5.817   1.184  11.192 -0.8495  1.0972 -0.2534
10822TIP3   OH253956   2.613   4.559  14.104  0.8043 -0.0222 -0.0717
10822TIP3    H153957   2.680   4.618  14.140  1.1287  0.4660 -1.4489
10822TIP3    H253958   2.605   4.490  14.169  1.8612  0.4963  0.6274
10823TIP3   OH253959   1.049   0.399   5.993  0.1478  0.0213  0.1665
10823TIP3    H153960   1.090   0.386   5.907  0.6574  0.7729  0.2907
10823TIP3    H253961   0.965   0.353   5.986  1.6274 -2.7946  0.4083
10824TIP3   OH253962   5.415   5.151  15.258  0.1879 -0.7310 -0.3219
10824TIP3    H153963   5.335   5.125  15.212 -0.3359 -1.3196  0.8990
10824TIP3    H253964   5.461   5.208  15.196 -2.3724  1.6790 -0.0903
10825TIP3   OH253965   6.631   2.894   1.710  0.1330  0.1599  0.1839
10825TIP3    H153966   6.701   2.959   1.719  0.2213  0.0622  0.2040
10825TIP3    H253967   6.623   2.856   1.798  1.1830 -0.9981 -0.2117
10826TIP3   OH253968   2.977   1.151   2.653 -0.4187  0.1258  0.1396
10826TIP3    H153969   2.884   1.141   2.634  0.0244 -0.2121 -2.0061
10826TIP3    H253970   2.987   1.243   2.676 -0.9807  0.6414 -1.5802
10827TIP3   OH253971   6.466   6.149   3.571 -0.3838  0.0403  0.5149
10827TIP3    H153972   6.554   6.168   3.539 -1.1185  0.9849 -1.0362
10827TIP3    H253973   6.431   6.234   3.598 -1.0273 -0.2353  0.5657
10828TIP3   OH253974   5.476   1.344   2.395 -0.0559  0.5154  1.3100
10828TIP3    H153975   5.532   1.418   2.418  1.3519 -0.3043  0.5985
10828TIP3    H253976   5.401   1.384   2.352  0.4356  1.5683  1.4095
10829TIP3   OH253977   6.439   3.510   3.706 -0.2921  0.5301  0.0113
10829TIP3    H153978   6.370   3.448   3.679  0.4826  0.0111 -0.8253
10829TIP3    H253979   6.481   3.467   3.781 -0.4840  0.5691  0.1425
10830TIP3   OH253980   0.159   2.634  16.292  0.0716 -0.2653  0.4703
10830TIP3    H153981   0.170   2.561  16.231 -1.5091 -1.1334  1.2047
10830TIP3    H253982   0.153   2.711  16.236 -0.1598 -0.9210 -0.4192
10831TIP3   OH253983   1.052   3.349   1.137  0.5971  0.0249  0.8985
10831TIP3    H153984   0.975   3.375   1.086  0.2898  1.3425  1.9906
10831TIP3    H253985   1.017   3.333   1.225  1.4582 -0.0927  1.2205
10832TIP3   OH253986   0.884   0.932  14.359  0.2784 -0.5468 -0.0315
10832TIP3    H153987   0.790   0.937  14.341  0.1695  2.8463  1.0771
10832TIP3    H253988   0.890   0.928  14.455  1.2662 -0.9173 -0.1059
10833TIP3   OH253989   6.719   3.690  15.167 -0.8543 -0.2899 -0.2878
10833TIP3    H153990   6.653   3.669  15.100 -0.7261  0.0314 -0.5201
10833TIP3    H253991   6.789   3.626  15.153 -0.0021  0.8888 -1.6504
10834TIP3   OH253992   1.315   5.167  12.315  0.4759 -0.7261  0.2938
10834TIP3    H153993   1.336   5.256  12.287  0.1456  0.4133  3.5053
10834TIP3    H253994   1.398   5.121  12.315  0.7450 -0.2550 -0.7786
10835TIP3   OH253995   4.779   3.642  16.308 -0.4629  0.4948  0.4581
10835TIP3    H153996   4.759   3.554  16.340  0.0471  0.8049  1.6725
10835TIP3    H253997   4.836   3.628  16.233  0.9433 -0.1963  1.6253
10836TIP3   OH253998   1.007   3.904  12.873 -0.3696  0.3917 -0.1238
10836TIP3    H153999   1.047   3.956  12.943  1.3651  0.6305 -1.2548
10836TIP3    H254000   1.072   3.837  12.852 -0.5299  0.7818 -1.9933
10837TIP3   OH254001   6.329   6.768   2.576 -0.3221 -0.0692  0.1947
10837TIP3    H154002   6.239   6.762   2.607 -0.9483  1.6281 -1.2538
10837TIP3    H254003   6.361   6.851   2.611  0.6241 -0.5570  0.5135
10838TIP3   OH254004   3.826   5.698   2.160 -1.0410 -0.0757  0.8239
10838TIP3    H154005   3.793   5.608   2.161 -0.1628 -0.4346 -0.3155
10838TIP3    H254006   3.919   5.689   2.179 -0.8081  0.5148 -0.0169
10839TIP3   OH254007   6.757   2.979  10.846 -0.0646  0.2876 -1.0365
10839TIP3    H154008   6.700   3.019  10.912 -0.1775 -1.3887 -0.1121
10839TIP3    H254009   6.843   3.018  10.862 -0.0406 -0.2902  0.2452
10840TIP3   OH254010   2.437   1.751   1.397 -0.1496  0.6281  0.2516
10840TIP3    H154011   2.499   1.819   1.372  1.7711  0.1723  3.3962
10840TIP3    H254012   2.381   1.792   1.463  0.3168 -0.4464  1.3531
10841TIP3   OH254013   3.621   6.360   4.544  0.8710 -0.0396  0.3500
10841TIP3    H154014   3.642   6.429   4.481 -0.1092  0.9103  1.0454
10841TIP3    H254015   3.573   6.405   4.614  1.2476 -1.2208  1.3835
10842TIP3   OH254016   3.186   6.517   6.643  0.3158  0.0591  0.3362
10842TIP3    H154017   3.217   6.607   6.633  0.0879  0.2696  1.4892
10842TIP3    H254018   3.262   6.470   6.678  0.5995 -0.3191 -0.7688
10843TIP3   OH254019   3.991   2.729   4.257 -0.1607  0.5021  0.3721
10843TIP3    H154020   3.955   2.668   4.321  1.0027  2.3175  2.8843
10843TIP3    H254021   4.050   2.785   4.308  2.1900  0.9187 -2.6275
10844TIP3   OH254022   5.422   4.857   3.189  0.1542 -0.3748  0.1349
10844TIP3    H154023   5.506   4.858   3.143 -0.6249  0.4413 -1.3107
10844TIP3    H254024   5.422   4.939   3.239 -0.9911  1.0907 -2.1725
10845TIP3   OH254025   3.463   1.539  10.965  0.1072  0.2625 -0.0452
10845TIP3    H154026   3.421   1.548  10.880 -1.2610  1.9012  0.7864
10845TIP3    H254027   3.536   1.478  10.949 -1.0809 -0.6909 -2.0256
10846TIP3   OH254028   0.521   3.624  15.845 -0.0483 -0.0352  0.1835
10846TIP3    H154029   0.611   3.654  15.833  0.4621 -0.8592  1.7985
10846TIP3    H254030   0.502   3.573  15.766 -0.0059  2.2707 -1.3607
10847TIP3   OH254031   1.697   0.073   4.293  0.7057 -0.0571  0.3969
10847TIP3    H154032   1.724   0.165   4.302 -0.0307  0.2078 -0.1117
10847TIP3    H254033   1.718   0.051   4.202 -1.6070  0.4126 -0.2608
10848TIP3   OH254034   2.194   4.810  17.058 -0.2178  0.6454  0.6010
10848TIP3    H154035   2.149   4.814  16.974  1.5435 -0.6668 -0.4286
10848TIP3    H254036   2.236   4.896  17.067 -2.7418  1.8296  1.5078
10849TIP3   OH254037   5.243   6.258   3.205  0.0802 -0.0478  0.3086
10849TIP3    H154038   5.296   6.218   3.136 -0.0045  1.4014 -0.6189
10849TIP3    H254039   5.181   6.190   3.230 -0.1930 -0.4569 -1.3719
10850TIP3   OH254040   3.078   0.602   2.577 -0.1958  0.0077 -0.2607
10850TIP3    H154041   3.119   0.545   2.512 -0.5201 -1.5489  0.8446
10850TIP3    H254042   3.124   0.581   2.659 -1.7528 -0.2377  0.5795
10851TIP3   OH254043   4.212   4.154  14.137  0.0406 -0.4571 -0.3879
10851TIP3    H154044   4.208   4.164  14.232  1.7503  1.3332 -0.4806
10851TIP3    H254045   4.123   4.175  14.107  0.3979  2.6310  0.5393
10852TIP3   OH254046   4.875   4.144   1.062 -0.3279 -0.2535  0.1748
10852TIP3    H154047   4.796   4.182   1.100 -0.2128  1.0337 -0.8231
10852TIP3    H254048   4.850   4.121   0.972  0.7933  1.4967 -0.6283
10853TIP3   OH254049   5.604   6.581  14.242 -0.6967 -0.2015  0.3599
10853TIP3    H154050   5.581   6.541  14.326 -1.8807 -0.7280 -0.2136
10853TIP3    H254051   5.647   6.512  14.193  1.5452  0.5724  1.1459
10854TIP3   OH254052   2.941   5.662   5.702 -0.5475 -0.2505 -0.0235
10854TIP3    H154053   2.887   5.584   5.715 -1.4689  0.4665  0.4796
10854TIP3    H254054   2.905   5.727   5.763  1.2724  0.0406  0.7763
10855TIP3   OH254055   2.330   3.885   1.085  0.3588  0.1727 -0.7023
10855TIP3    H154056   2.305   3.813   1.143  0.6107  0.7750  0.1796
10855TIP3    H254057   2.424   3.898   1.102  0.1604  1.1547 -0.3418
10856TIP3   OH254058   1.309   3.504  11.074 -0.2722  0.3075 -0.2106
10856TIP3    H154059   1.238   3.561  11.106 -1.2983 -0.9727 -0.1896
10856TIP3    H254060   1.303   3.512  10.978 -1.1921 -0.6813 -0.2471
10857TIP3   OH254061   4.756   1.552  12.595 -0.5507 -0.7403  0.4636
10857TIP3    H154062   4.775   1.640  12.627  1.3859 -1.0190  0.1434
10857TIP3    H254063   4.709   1.510  12.667  0.9142 -0.3137  1.7108
10858TIP3   OH254064   1.833   4.210   5.518 -0.2921  0.2244  0.2147
10858TIP3    H154065   1.801   4.210   5.427 -1.4810  0.6213  0.6245
10858TIP3    H254066   1.827   4.119   5.545  1.2772 -0.1137 -0.5128
10859TIP3   OH254067   0.268   1.255  12.315  0.6264  0.1140  0.6520
10859TIP3    H154068   0.251   1.183  12.255 -0.2141 -0.8659  2.0323
10859TIP3    H254069   0.182   1.277  12.352  0.7440  2.3284 -0.2744
10860TIP3   OH254070   5.727   3.517  15.876  0.2591  0.9353  0.2286
10860TIP3    H154071   5.674   3.581  15.830  0.3875 -0.7452 -2.3666
10860TIP3    H254072   5.666   3.476  15.939 -0.6306  1.3754 -0.3409
10861TIP3   OH254073   6.626   1.001   4.629  0.0164 -0.1115 -0.3316
10861TIP3    H154074   6.699   1.020   4.689  1.5273  0.5268 -2.3090
10861TIP3    H254075   6.621   1.079   4.573 -0.2653 -1.3811 -2.1147
10862TIP3   OH254076   2.474   3.079  12.633  0.4542 -0.2392 -0.1999
10862TIP3    H154077   2.496   3.100  12.543  0.9879  0.5623  0.1101
10862TIP3    H254078   2.535   3.132  12.686  1.9478 -2.6736  0.6019
10863TIP3   OH254079   0.389   6.100   0.222 -0.4592  0.2200 -0.0589
10863TIP3    H154080   0.302   6.096   0.182 -1.1824  0.3311  1.4563
10863TIP3    H254081   0.432   6.174   0.178 -1.1433  0.1987 -0.7826
10864TIP3   OH254082   2.793   0.034   6.203 -0.3091 -0.0068 -0.0807
10864TIP3    H154083   2.745   0.031   6.120 -2.3086  1.8070  0.9792
10864TIP3    H254084   2.757  -0.039   6.254 -2.0296  1.3609  0.7193
10865TIP3   OH254085   3.210   6.163   0.923 -0.1787  0.6616  0.2650
10865TIP3    H154086   3.281   6.224   0.907  0.7045 -0.6881 -1.1568
10865TIP3    H254087   3.250   6.076   0.912 -1.4651 -0.1796  1.9263
10866TIP3   OH254088   0.493   4.580   2.587  0.1551  0.0822  0.2135
10866TIP3    H154089   0.522   4.631   2.512 -1.7335  1.4377  0.3643
10866TIP3    H254090   0.403   4.610   2.603  0.1467 -0.9757  2.3241
10867TIP3   OH254091   5.229   5.266  11.736 -0.2322 -0.0889  0.1017
10867TIP3    H154092   5.318   5.235  11.721 -0.2225  0.5830 -1.2720
10867TIP3    H254093   5.206   5.315  11.657 -2.0297 -0.7363  0.1810
10868TIP3   OH254094   6.706   2.018  11.573 -0.2224 -0.5065  0.2206
10868TIP3    H154095   6.665   1.941  11.533 -1.1095  0.3062 -0.4390
10868TIP3    H254096   6.741   2.068  11.498 -0.6764  0.3233  0.5617
10869TIP3   OH254097   4.922   1.880  11.516  0.5662  0.3845  0.0169
10869TIP3    H154098   5.000   1.926  11.485  0.3767  0.5995 -0.1327
10869TIP3    H254099   4.862   1.880  11.442 -0.4510  2.1401  0.8153
10870TIP3   OH254100   0.375   0.999   4.328  0.3109 -0.2942  0.2765
10870TIP3    H154101   0.349   1.077   4.279  0.2189  0.6628  1.8432
10870TIP3    H254102   0.439   0.956   4.271 -2.6025 -1.2641 -2.4053
10871TIP3   OH254103   6.143   2.780  14.184 -0.5189 -0.2979  0.3853
10871TIP3    H154104   6.072   2.827  14.141  0.6468 -0.5281 -1.8797
10871TIP3    H254105   6.197   2.747  14.112  1.1756 -1.2114  2.0269
10872TIP3   OH254106   5.907   3.867   5.936  0.1313 -0.3802  0.1242
10872TIP3    H154107   5.848   3.931   5.976 -2.4275 -2.2526 -0.5184
10872TIP3    H254108   5.909   3.794   5.997  2.7606  0.1175  0.6861
10873TIP3   OH254109   4.620   5.070  11.410  0.0343 -0.1671 -0.3796
10873TIP3    H154110   4.696   5.036  11.363 -0.8717 -1.7672 -0.7410
10873TIP3    H254111   4.652   5.087  11.499  0.6275 -1.5967 -0.3079
10874TIP3   OH254112   5.386   4.672   2.393 -1.4799 -0.4783  0.0081
10874TIP3    H154113   5.304   4.623   2.403 -0.7630 -1.7292 -0.1354
10874TIP3    H254114   5.422   4.640   2.310 -1.1392  0.4986 -0.2208
10875TIP3   OH254115   1.657   1.687  11.575 -0.1760 -0.1233  0.0060
10875TIP3    H154116   1.693   1.720  11.492  2.2944  0.4493  1.2613
10875TIP3    H254117   1.586   1.748  11.595 -0.2950  0.1950 -1.2859
10876TIP3   OH254118   4.121   0.344   0.914  0.1104  0.3108  0.0487
10876TIP3    H154119   4.159   0.271   0.867  0.2862  1.8518 -2.2954
10876TIP3    H254120   4.069   0.391   0.849  1.9762  3.6546  0.8293
10877TIP3   OH254121   2.720   1.205   5.768 -0.1004  0.2527  0.1514
10877TIP3    H154122   2.674   1.122   5.752  0.1296 -0.1442  1.4605
10877TIP3    H254123   2.810   1.188   5.739 -0.1500  0.1543  0.0570
10878TIP3   OH254124   2.860   1.210  14.888 -0.1670  0.5394  0.1278
10878TIP3    H154125   2.803   1.286  14.882  0.0865  0.6021 -1.9467
10878TIP3    H254126   2.804   1.140  14.923 -0.5528  1.5107  1.4620
10879TIP3   OH254127   1.476   3.937   0.236 -0.6247  0.1976  0.5346
10879TIP3    H154128   1.400   3.890   0.201  0.0466 -0.5002  0.0061
10879TIP3    H254129   1.483   3.907   0.326 -0.1855 -0.7309  0.1899
10880TIP3   OH254130   5.840   6.506   1.737  0.3330 -0.2662 -0.6421
10880TIP3    H154131   5.786   6.427   1.739 -1.3780  0.7997 -3.0555
10880TIP3    H254132   5.781   6.577   1.762  1.0449  0.6826 -1.6006
10881TIP3   OH254133   6.808   5.160   1.817  0.4092  0.0414  0.9822
10881TIP3    H154134   6.803   5.255   1.821 -2.2705 -0.0388  0.7578
10881TIP3    H254135   6.733   5.130   1.869 -0.5234 -1.8525 -1.3278
10882TIP3   OH254136   1.002   4.791  15.470 -0.3809 -0.8188 -0.4018
10882TIP3    H154137   1.076   4.735  15.449  2.1758  1.7881  1.2772
10882TIP3    H254138   1.002   4.857  15.400  0.1828  0.3839  0.7152
10883TIP3   OH254139   0.739   0.631  14.918 -0.6479 -0.3388  0.3491
10883TIP3    H154140   0.814   0.580  14.948 -2.1845 -2.1077  1.2461
10883TIP3    H254141   0.723   0.694  14.989  1.4211  1.6429 -0.8815
10884TIP3   OH254142   6.257   0.797   3.319  0.3814  0.2324 -0.4492
10884TIP3    H154143   6.246   0.892   3.325  0.8835  0.4216 -2.1729
10884TIP3    H254144   6.202   0.771   3.246 -0.5244 -0.9640  0.6387
10885TIP3   OH254145   1.719   3.831   1.247  0.6525  0.6228 -0.1708
10885TIP3    H154146   1.779   3.773   1.199  0.5898  0.9416 -0.6479
10885TIP3    H254147   1.699   3.901   1.184 -2.2891 -0.8537 -0.9464
10886TIP3   OH254148   0.194   4.664  16.493  0.0832 -0.0493 -0.0640
10886TIP3    H154149   0.181   4.598  16.562 -0.2949 -0.3964 -0.4638
10886TIP3    H254150   0.258   4.624  16.434  1.1214  0.6394  0.5901
10887TIP3   OH254151   4.218   0.641  15.191 -0.3232  0.4218 -0.1486
10887TIP3    H154152   4.303   0.621  15.152  0.4820  0.5843  1.4815
10887TIP3    H254153   4.160   0.571  15.159  0.6465 -0.2111 -0.5436
10888TIP3   OH254154   5.254   2.204  16.840  0.2624 -0.1125 -0.4438
10888TIP3    H154155   5.328   2.143  16.843 -1.0225 -1.7468 -0.9894
10888TIP3    H254156   5.292   2.287  16.813  2.0688 -0.6533  0.3440
10889TIP3   OH254157   5.582   6.188  16.037 -0.1125 -0.2408  0.1235
10889TIP3    H154158   5.514   6.124  16.058  0.0226 -0.0655  1.1470
10889TIP3    H254159   5.628   6.151  15.962 -1.3019 -0.3900 -0.5473
10890TIP3   OH254160   5.122   5.403  14.550  0.0882  0.2420 -0.1394
10890TIP3    H154161   5.172   5.322  14.546  0.0689  0.2163  0.1867
10890TIP3    H254162   5.067   5.401  14.471  1.4659  0.8457 -1.1271
10891TIP3   OH254163   5.737   6.518  15.040  0.1436 -0.6428  0.6596
10891TIP3    H154164   5.812   6.521  14.979 -0.3035  0.3243  0.1365
10891TIP3    H254165   5.773   6.480  15.120  1.6680  1.5067  1.0402
10892TIP3   OH254166   5.026   6.573  15.968 -0.4732  0.5831 -0.4042
10892TIP3    H154167   4.950   6.627  15.949  0.4126  1.8344 -0.4918
10892TIP3    H254168   5.069   6.562  15.883  0.8153  2.0470  0.0202
10893TIP3   OH254169   0.479   2.986  16.940  0.3147 -0.3137 -0.3242
10893TIP3    H154170   0.559   3.016  16.983 -0.6330  0.4445  0.9334
10893TIP3    H254171   0.470   2.894  16.968 -0.1853  0.1136  0.9550
10894TIP3   OH254172   4.043   0.706  12.761  0.4212 -0.6330  0.5682
10894TIP3    H154173   3.984   0.636  12.735  0.8670 -0.9785  0.4776
10894TIP3    H254174   4.099   0.720  12.684 -0.2787  0.4616  0.2490
10895TIP3   OH254175   0.326   6.081  11.948  0.0526  0.1749  0.1682
10895TIP3    H154176   0.328   6.145  11.877  1.0271 -0.8080 -0.7109
10895TIP3    H254177   0.247   6.030  11.932 -1.6844  2.2264  1.8666
10896TIP3   OH254178   4.833   2.963   3.297  0.7209 -0.0700 -0.4917
10896TIP3    H154179   4.885   2.885   3.312  0.4019 -0.0319  0.9071
10896TIP3    H254180   4.810   2.994   3.385 -1.5568 -0.0203 -1.0629
10897TIP3   OH254181   4.152   5.353  16.586  0.2124 -0.0890  0.1761
10897TIP3    H154182   4.199   5.392  16.660 -0.7221  1.2924  0.0589
10897TIP3    H254183   4.079   5.306  16.626 -0.5280  0.9960  0.1227
10898TIP3   OH254184   2.898   0.990  14.092  0.1369 -0.1584 -0.0193
10898TIP3    H154185   2.914   1.020  14.002  2.2997  1.9272  0.9945
10898TIP3    H254186   2.803   0.983  14.098 -0.2117  2.1778 -1.7329
10899TIP3   OH254187   3.676   4.812  12.211 -0.5872 -0.2396  0.1785
10899TIP3    H154188   3.617   4.838  12.141  0.9668 -0.6855 -1.3273
10899TIP3    H254189   3.703   4.723  12.189 -0.5090 -0.5939  1.6418
10900TIP3   OH254190   4.056   0.076  16.899  0.5839 -0.5174  0.0290
10900TIP3    H154191   4.041   0.029  16.981  2.6974  0.3242  0.9533
10900TIP3    H254192   4.019   0.163  16.913 -2.0956 -1.4258 -1.1815
10901TIP3   OH254193   6.689   5.709   2.589  0.3279 -0.2262 -0.3107
10901TIP3    H154194   6.685   5.617   2.561  2.2568  0.0671 -1.6812
10901TIP3    H254195   6.605   5.746   2.562 -0.1823 -1.4231 -0.3855
10902TIP3   OH254196   4.510   4.973  12.528  0.2331  0.1140  0.5132
10902TIP3    H154197   4.599   4.979  12.491  0.3337  1.1369  0.9166
10902TIP3    H254198   4.476   5.062  12.523 -1.4201 -0.5587 -1.2008
10903TIP3   OH254199   6.339   3.378  11.503  0.1876  0.3052  0.0179
10903TIP3    H154200   6.369   3.361  11.592 -0.8773 -2.7620 -0.1442
10903TIP3    H254201   6.402   3.332  11.447 -0.0100  0.9385 -0.7389
10904TIP3   OH254202   1.267   4.119   3.837 -0.3896  0.0415  0.3505
10904TIP3    H154203   1.296   4.063   3.910  1.3702  0.6432  0.1470
10904TIP3    H254204   1.293   4.070   3.759  0.1145  0.6091  0.1620
10905TIP3   OH254205   2.592   4.126  12.847  0.0652  0.2515 -0.1623
10905TIP3    H154206   2.603   4.175  12.928 -0.7951  0.7145 -0.3182
10905TIP3    H254207   2.499   4.102  12.846  0.0873  0.1890 -0.9675
10906TIP3   OH254208   6.240   3.627  14.781  0.5668 -0.1770  0.1945
10906TIP3    H154209   6.232   3.536  14.751  2.1261  0.2943 -1.8081
10906TIP3    H254210   6.333   3.647  14.769 -0.5221  3.1343 -3.8205
10907TIP3   OH254211   1.541   0.591   3.953  0.3943  0.0692 -0.0374
10907TIP3    H154212   1.502   0.662   3.902 -0.3181  0.3461  0.8861
10907TIP3    H254213   1.619   0.566   3.903 -0.7856 -0.2782 -1.7530
10908TIP3   OH254214   1.960   0.836  14.755 -0.0238  0.1841  0.8274
10908TIP3    H154215   1.992   0.926  14.740 -0.1752  0.2379  0.8288
10908TIP3    H254216   2.003   0.809  14.836 -1.5755  1.0081  1.9598
10909TIP3   OH254217   6.384   0.400   6.381 -0.4400 -0.0589 -0.9546
10909TIP3    H154218   6.450   0.347   6.337  0.2939 -0.7277  0.9172
10909TIP3    H254219   6.400   0.489   6.350  2.2427 -0.0014  0.4780
10910TIP3   OH254220   5.573   2.484  15.814  0.4409  0.2243  0.5564
10910TIP3    H154221   5.525   2.457  15.892 -0.6163  1.3478  0.3223
10910TIP3    H254222   5.584   2.404  15.764 -1.7510  0.0209  0.3357
10911TIP3   OH254223   3.985   4.327  13.805 -0.7961  0.7159  0.2559
10911TIP3    H154224   3.997   4.252  13.748 -3.3520 -0.6605  1.4624
10911TIP3    H254225   3.908   4.372  13.770 -0.1969  1.9338  0.4583
10912TIP3   OH254226   0.609   5.472   3.716 -0.2548 -0.3907  0.1416
10912TIP3    H154227   0.697   5.508   3.709 -1.1192  2.0684  1.4271
10912TIP3    H254228   0.590   5.435   3.629  1.9229 -0.7515 -0.1980
10913TIP3   OH254229   0.580   0.547   3.338  0.5222 -0.2672  0.5888
10913TIP3    H154230   0.520   0.502   3.398  1.8066 -1.1563  1.2095
10913TIP3    H254231   0.646   0.481   3.316  0.3880  0.2069 -1.3648
10914TIP3   OH254232   5.011   3.903  16.971  0.9020 -0.1896 -0.6784
10914TIP3    H154233   5.049   3.972  17.026 -0.0120 -0.6354  0.5549
10914TIP3    H254234   5.072   3.894  16.898  0.5729  2.5155 -1.3287
10915TIP3   OH254235   2.510   5.517  14.546 -0.2577  0.6081 -0.0146
10915TIP3    H154236   2.569   5.497  14.619 -0.1349  1.0360  0.0085
10915TIP3    H254237   2.565   5.508  14.468 -0.0108  1.5583  0.0449
10916TIP3   OH254238   1.796   0.703  16.690  0.1383 -0.0136 -0.0991
10916TIP3    H154239   1.757   0.740  16.769  3.1633  0.8423  1.0432
10916TIP3    H254240   1.752   0.749  16.618 -2.3181 -0.4985  1.0586
10917TIP3   OH254241   0.813   2.653   4.534 -0.3979  0.0166  0.4499
10917TIP3    H154242   0.819   2.735   4.486  0.9422  0.1115  0.7778
10917TIP3    H254243   0.722   2.651   4.565 -1.1590  0.1819 -1.6425
10918TIP3   OH254244   2.463   3.614  16.194  0.2283  0.2172  0.5688
10918TIP3    H154245   2.536   3.583  16.140  1.3927  2.7080  0.5936
10918TIP3    H254246   2.402   3.651  16.131 -0.1318 -0.1789  0.6866
10919TIP3   OH254247   1.870   5.736  11.751  0.4654 -0.1135  0.3757
10919TIP3    H154248   1.911   5.788  11.682  0.3474 -1.4776 -0.7254
10919TIP3    H254249   1.843   5.655  11.708  0.2351 -0.9096  1.9866
10920TIP3   OH254250   1.178   6.757   2.884  0.4279  0.3418  0.1395
10920TIP3    H154251   1.166   6.662   2.882 -1.9413  0.6440 -0.6244
10920TIP3    H254252   1.270   6.770   2.859  0.5731 -1.6975 -0.4426
10921TIP3   OH254253   5.665   2.694   4.838  0.0744  0.0157 -0.7399
10921TIP3    H154254   5.741   2.674   4.891  0.0236  2.3795  0.2684
10921TIP3    H254255   5.701   2.729   4.756  0.0755  1.1087 -0.2729
10922TIP3   OH254256   5.983   3.100   1.958 -0.2191  0.1536  0.1160
10922TIP3    H154257   5.950   3.015   1.927  1.6479 -1.3114  2.0226
10922TIP3    H254258   6.053   3.123   1.897  1.4403 -1.2780  1.4265
10923TIP3   OH254259   4.612   0.980   3.287 -0.4071 -0.2420 -0.0395
10923TIP3    H154260   4.529   1.017   3.319 -2.4269 -3.5535 -1.1136
10923TIP3    H254261   4.664   0.965   3.366 -0.4972  2.5279  0.6013
10924TIP3   OH254262   5.869   3.097  11.630 -0.3241  0.0398  0.1484
10924TIP3    H154263   5.942   3.126  11.575 -0.0205 -0.9869 -0.0001
10924TIP3    H254264   5.830   3.178  11.663 -1.2777  0.7435 -2.5865
10925TIP3   OH254265   1.869   0.513   2.430 -0.3261 -0.1565 -0.3787
10925TIP3    H154266   1.821   0.594   2.414 -0.6536 -0.1852  0.4609
10925TIP3    H254267   1.807   0.443   2.408 -0.3878 -0.1871 -0.1073
10926TIP3   OH254268   2.082   3.988   4.876  0.4006  0.1056 -0.0712
10926TIP3    H154269   1.990   3.992   4.848 -0.2980 -2.3513  1.6784
10926TIP3    H254270   2.098   4.072   4.919 -2.0297 -0.5955  2.3790
10927TIP3   OH254271   0.045   3.167  13.833  0.7053 -0.6572  0.4825
10927TIP3    H154272  -0.008   3.087  13.841 -1.0657  0.5155  0.7155
10927TIP3    H254273   0.133   3.140  13.860  0.0249 -2.4228  1.0126
10928TIP3   OH254274   3.972   3.491   3.537 -0.1727 -0.0740  0.1395
10928TIP3    H154275   3.979   3.564   3.476  2.4936 -0.0937  0.3667
10928TIP3    H254276   3.989   3.529   3.623 -0.1008 -0.7070  0.4106
10929TIP3   OH254277   4.566   0.810  14.738  0.3171  0.1778  0.2213
10929TIP3    H154278   4.556   0.718  14.712 -1.5883  0.6172 -0.7370
10929TIP3    H254279   4.540   0.860  14.661  1.4215  1.5332  0.7043
10930TIP3   OH254280   0.542   3.083  11.025 -0.2095 -0.2413 -0.1788
10930TIP3    H154281   0.499   3.108  10.943  0.1320 -0.0007 -0.2840
10930TIP3    H254282   0.478   3.027  11.069 -0.3595 -0.4403 -0.6459
10931TIP3   OH254283   4.493   2.818  14.588 -0.4004  0.3781 -0.3390
10931TIP3    H154284   4.515   2.740  14.638 -2.3989 -1.2207 -1.8746
10931TIP3    H254285   4.519   2.891  14.645  1.8777 -1.3773  0.9359
10932TIP3   OH254286   6.353   6.467   6.144  0.1312 -0.0458  0.1682
10932TIP3    H154287   6.320   6.496   6.229  1.2434  0.2005  0.5176
10932TIP3    H254288   6.274   6.439   6.096 -0.5274  0.0763  1.1693
10933TIP3   OH254289   4.181   0.200   1.543 -0.2420 -0.3065  0.2443
10933TIP3    H154290   4.204   0.176   1.453 -2.8320  1.8210 -1.0716
10933TIP3    H254291   4.257   0.250   1.574  0.5640 -0.8008 -0.8862
10934TIP3   OH254292   4.742   0.562   5.706  0.0063 -0.2622  0.0954
10934TIP3    H154293   4.787   0.485   5.670 -0.2265 -0.9062  1.1855
10934TIP3    H254294   4.651   0.550   5.681  0.1821  0.3151 -0.8521
10935TIP3   OH254295   3.139   6.575   5.093  0.1289 -0.7551 -0.5215
10935TIP3    H154296   3.139   6.670   5.087  4.2322 -0.5591  1.0792
10935TIP3    H254297   3.106   6.556   5.181  1.2623 -0.6994 -0.0786
10936TIP3   OH254298   4.155   0.808   1.937 -0.1208  0.0031  0.1417
10936TIP3    H154299   4.064   0.796   1.964 -0.0446  1.3653  1.0604
10936TIP3    H254300   4.206   0.788   2.016  0.4497 -1.7303 -0.6361
10937TIP3   OH254301   3.085   3.754  11.368  0.4719  0.4940 -0.1855
10937TIP3    H154302   3.107   3.716  11.283 -0.3592 -2.4339  0.8540
10937TIP3    H254303   3.138   3.834  11.373  4.2855 -1.8231 -1.3827
10938TIP3   OH254304   4.725   2.513   0.302  0.1617 -0.6577 -0.0552
10938TIP3    H154305   4.703   2.576   0.233  0.2881 -0.1247  0.3902
10938TIP3    H254306   4.668   2.536   0.375  1.9035  0.5023  0.9791
10939TIP3   OH254307   4.826   1.072  13.731 -0.5410  0.3229  0.2937
10939TIP3    H154308   4.780   1.153  13.751 -2.1650 -0.1740 -1.2419
10939TIP3    H254309   4.759   1.016  13.692  0.6365 -1.6297  1.0157
10940TIP3   OH254310   3.568   5.616  14.539  0.0152 -0.0362  0.5941
10940TIP3    H154311   3.550   5.534  14.492  2.6212 -0.7843  0.8380
10940TIP3    H254312   3.553   5.685  14.474 -1.0790 -0.7482  0.0610
10941TIP3   OH254313   1.987   6.281  12.458  0.2340 -0.1054  0.1965
10941TIP3    H154314   2.004   6.236  12.540 -0.6752  0.4569  0.7029
10941TIP3    H254315   1.927   6.224  12.411  1.9292 -1.1441 -0.7345
10942TIP3   OH254316   3.928   5.751  14.919  0.0372 -0.3402  0.3062
10942TIP3    H154317   4.003   5.692  14.930  0.4492  0.3701  1.3025
10942TIP3    H254318   3.893   5.729  14.832  0.4603 -1.7356  0.4766
10943TIP3   OH254319   2.404   0.678   4.056  0.0227  0.0403 -0.1026
10943TIP3    H154320   2.455   0.665   3.975  0.9063 -1.6831  0.7050
10943TIP3    H254321   2.317   0.646   4.035 -0.2059  1.1222 -0.8664
10944TIP3   OH254322   5.671   1.441  15.079  0.0392  0.6309 -0.0438
10944TIP3    H154323   5.758   1.428  15.040 -0.0897  0.4475 -0.2774
10944TIP3    H254324   5.688   1.484  15.162  0.3729  0.3671  0.0282
10945TIP3   OH254325   2.738   0.744  17.075 -0.1628 -0.3180  0.7149
10945TIP3    H154326   2.737   0.720  17.168 -0.3977 -2.1738  0.2711
10945TIP3    H254327   2.829   0.732  17.049 -0.1681 -0.1650  0.6301
10946TIP3   OH254328   4.159   5.532   2.415 -0.2900 -0.2504 -0.6109
10946TIP3    H154329   4.096   5.479   2.367 -0.7482 -0.1587 -0.1091
10946TIP3    H254330   4.213   5.469   2.463 -1.0701 -0.2529  0.2781
10947TIP3   OH254331   5.094   6.242   2.480  0.6174 -0.0929  0.0113
10947TIP3    H154332   5.108   6.328   2.442  0.2592  0.0291  0.1478
10947TIP3    H254333   5.160   6.234   2.549  0.2324  0.3334  0.4298
10948TIP3   OH254334   6.275   0.669  13.931 -0.2150  0.3811 -0.6122
10948TIP3    H154335   6.364   0.664  13.898  0.2341  0.5302  0.5499
10948TIP3    H254336   6.224   0.613  13.872  0.7063  0.0292 -1.0801
10949TIP3   OH254337   4.070   0.032  12.298  0.0725 -0.0031  0.1615
10949TIP3    H154338   4.074  -0.053  12.342 -0.0055  0.3975  0.9622
10949TIP3    H254339   4.019   0.087  12.358  0.3125  0.6644 -0.2450
10950TIP3   OH254340   2.768   5.250   4.489 -0.1983  1.0536 -0.1493
10950TIP3    H154341   2.731   5.300   4.416 -1.1843  2.6709  1.4390
10950TIP3    H254342   2.722   5.282   4.566  1.4229 -0.0528  1.3135
10951TIP3   OH254343   1.138   1.858  12.309 -0.5832  0.3606 -0.0989
10951TIP3    H154344   1.205   1.803  12.350  0.9527  1.6165 -0.8373
10951TIP3    H254345   1.058   1.840  12.358  0.4579 -0.6419  1.2761
10952TIP3   OH254346   3.333   5.882   3.483  0.7101  0.0975  0.0105
10952TIP3    H154347   3.327   5.900   3.389  0.9799 -0.1241 -0.0498
10952TIP3    H254348   3.415   5.832   3.493  2.9214  3.6815  0.8733
10953TIP3   OH254349   6.430   3.560  13.249  0.3823  0.2877  0.1604
10953TIP3    H154350   6.471   3.588  13.167  0.7304 -0.5029  0.0618
10953TIP3    H254351   6.496   3.577  13.316  0.6436 -0.4225  0.0824
10954TIP3   OH254352   2.558   3.615  16.993 -0.0405 -0.2885 -0.0435
10954TIP3    H154353   2.479   3.567  17.019  1.0805 -1.5578  1.1053
10954TIP3    H254354   2.525   3.699  16.961 -1.9792 -1.5359 -1.4061
10955TIP3   OH254355   5.164   3.115  16.146 -0.5193  0.4187  0.1197
10955TIP3    H154356   5.229   3.152  16.206 -1.0610  0.8276  0.4587
10955TIP3    H254357   5.193   3.025  16.132  0.3865  0.7452 -0.1123
10956TIP3   OH254358   3.284   1.355  16.751 -0.0499 -0.1619  0.3150
10956TIP3    H154359   3.221   1.418  16.786 -1.0852  0.1173 -2.0266
10956TIP3    H254360   3.249   1.270  16.776 -2.2058 -0.0813 -2.2757
10957TIP3   OH254361   1.788   2.865   3.046 -0.0553  0.1825 -0.4215
10957TIP3    H154362   1.792   2.849   3.140 -1.4338  2.0306 -0.0218
10957TIP3    H254363   1.779   2.778   3.007 -2.3032 -0.4362  1.3507
10958TIP3   OH254364   4.395   4.283   3.335  0.0448 -0.0997 -0.1712
10958TIP3    H154365   4.457   4.354   3.316 -1.0720  1.1824  0.9031
10958TIP3    H254366   4.344   4.273   3.255  1.3404 -0.8651 -0.9137
10959TIP3   OH254367   0.506   2.735   4.999  0.0038  0.2058  0.0970
10959TIP3    H154368   0.497   2.652   5.046  0.3210 -0.4631 -0.9996
10959TIP3    H254369   0.563   2.788   5.054  1.3693 -1.0205 -0.1135
10960TIP3   OH254370   1.035   4.828   1.673  0.3182  0.7814  0.1820
10960TIP3    H154371   0.988   4.750   1.701  0.7783  0.6744  0.6558
10960TIP3    H254372   1.008   4.896   1.735  0.1752  0.9213 -0.0296
10961TIP3   OH254373   0.857   5.767  15.770  0.0090 -0.2410 -0.9030
10961TIP3    H154374   0.930   5.826  15.789  1.6115 -1.6576 -2.4857
10961TIP3    H254375   0.801   5.818  15.711 -0.6896  1.1185  0.8948
10962TIP3   OH254376   1.949   3.129   1.862 -0.3379 -0.0916 -0.3812
10962TIP3    H154377   1.951   3.220   1.829  1.0274  0.2991  0.7496
10962TIP3    H254378   1.969   3.076   1.785 -1.8051  0.4955 -1.2099
10963TIP3   OH254379   2.465   6.772   5.217 -0.4111  0.6669  0.0256
10963TIP3    H154380   2.383   6.796   5.258  0.5888  0.9920  1.8894
10963TIP3    H254381   2.524   6.751   5.290  0.7214 -1.0142 -1.3091
10964TIP3   OH254382   2.337   1.077  13.253 -0.1918  0.0305 -0.8253
10964TIP3    H154383   2.281   1.007  13.219  0.1295 -1.7881  2.2284
10964TIP3    H254384   2.316   1.082  13.346  3.4976  0.4436  0.0641
10965TIP3   OH254385   6.075   4.986  16.092  0.3069 -0.1153  0.1337
10965TIP3    H154386   6.123   4.990  16.009 -0.4722 -0.4254 -0.3343
10965TIP3    H254387   6.087   4.896  16.122 -0.1084 -0.2348 -0.0583
10966TIP3   OH254388   3.448   4.428  16.596 -0.0446 -0.4177 -0.4671
10966TIP3    H154389   3.464   4.465  16.682 -1.4220  0.7796 -0.7052
10966TIP3    H254390   3.405   4.344  16.613  0.1729 -0.4325  0.0125
10967TIP3   OH254391   0.710   0.737  10.807  0.7033  0.0606 -0.2407
10967TIP3    H154392   0.737   0.650  10.780 -0.8583 -0.2184 -0.9375
10967TIP3    H254393   0.779   0.766  10.867  1.6020 -1.3464 -0.5817
10968TIP3   OH254394   1.213   2.945  14.060 -0.5281  0.0300 -0.2498
10968TIP3    H154395   1.199   2.862  14.015  1.3754  0.0207 -0.8801
10968TIP3    H254396   1.308   2.955  14.062 -0.7384  2.5818 -0.9338
10969TIP3   OH254397   0.264   1.655  12.318  0.0515 -0.1803  0.2461
10969TIP3    H154398   0.256   1.613  12.232 -1.1159 -0.8523  0.6716
10969TIP3    H254399   0.331   1.722  12.306 -1.4620  1.0329 -1.7203
10970TIP3   OH254400   5.399   6.386  13.380  0.1755  0.5231 -0.0491
10970TIP3    H154401   5.320   6.434  13.404  0.0612  0.5015 -0.3766
10970TIP3    H254402   5.421   6.335  13.458  1.4060  2.5699  0.9946
10971TIP3   OH254403   0.573   3.639   2.573  0.0696 -0.3185 -0.0467
10971TIP3    H154404   0.498   3.579   2.566 -0.9285  0.9655 -0.6156
10971TIP3    H254405   0.567   3.675   2.662 -0.7475  0.7401 -0.5189
10972TIP3   OH254406   2.410   4.957   2.311  0.3588  0.7777 -0.5853
10972TIP3    H154407   2.406   4.924   2.221  0.3913  0.5553 -0.5035
10972TIP3    H254408   2.330   4.924   2.352  0.2697  1.0027 -0.5740
10973TIP3   OH254409   4.795   0.757  11.932 -0.3053 -0.1369  0.2240
10973TIP3    H154410   4.723   0.808  11.897 -0.7742  0.9180  2.5942
10973TIP3    H254411   4.754   0.701  11.999  0.6977 -1.3271 -0.1401
10974TIP3   OH254412   2.223   3.950  11.124  0.2783 -0.0797 -0.2881
10974TIP3    H154413   2.127   3.957  11.129  0.0570 -3.1191  0.9654
10974TIP3    H254414   2.239   3.856  11.114  3.1196  0.5076 -1.6880
10975TIP3   OH254415   2.893   1.881   4.982 -0.3689  0.1880 -0.3221
10975TIP3    H154416   2.885   1.786   4.991 -1.7155  0.4115  1.0330
10975TIP3    H254417   2.814   1.907   4.935 -0.6204  0.7828  0.4303
10976TIP3   OH254418   3.521   6.165  12.255  0.7053  0.1637 -0.6995
10976TIP3    H154419   3.469   6.091  12.285  0.3952 -0.1801 -2.0273
10976TIP3    H254420   3.609   6.149  12.290  0.7283 -1.0399 -1.2753
10977TIP3   OH254421   3.609   2.470   2.745  0.2268 -0.2666 -0.2675
10977TIP3    H154422   3.633   2.394   2.692 -0.0343  0.1898 -1.0463
10977TIP3    H254423   3.607   2.436   2.834  0.8254 -1.0087 -0.5191
10978TIP3   OH254424   5.696   6.363   5.368  0.0746 -0.5077  0.6657
10978TIP3    H154425   5.628   6.344   5.303 -1.5813 -0.0720  2.2152
10978TIP3    H254426   5.684   6.295   5.435  1.3078 -0.5530  0.8365
10979TIP3   OH254427   0.053   5.342   1.213 -0.5417  0.0339 -0.3186
10979TIP3    H154428  -0.028   5.322   1.166 -0.8220 -0.2543  0.2855
10979TIP3    H254429   0.122   5.325   1.149 -1.0003  1.4221 -1.2247
10980TIP3   OH254430   4.931   6.694   0.769  0.5205 -0.1930 -0.4350
10980TIP3    H154431   5.020   6.660   0.758  0.4938 -0.6770  0.8268
10980TIP3    H254432   4.925   6.718   0.861  1.4518  5.8319 -1.7148
10981TIP3   OH254433   5.052   4.352  12.422  0.4107  0.0122 -0.0870
10981TIP3    H154434   5.024   4.438  12.392  1.0447  0.3283  0.2101
10981TIP3    H254435   4.975   4.314  12.464 -0.1666  0.0078 -1.1494
10982TIP3   OH254436   0.758   1.624   5.189 -0.2831 -0.8625  0.3782
10982TIP3    H154437   0.836   1.569   5.185 -0.0300 -0.6523  2.0187
10982TIP3    H254438   0.686   1.562   5.199 -0.3412 -1.0512 -1.0534
10983TIP3   OH254439   2.608   0.006   5.934  1.1136  0.5078  0.6348
10983TIP3    H154440   2.662   0.081   5.908 -0.0255  0.9445 -0.5409
10983TIP3    H254441   2.666  -0.069   5.927  1.8345  1.0897  0.3021
10984TIP3   OH254442   2.985   6.561  13.701 -0.6790  0.4499 -0.1203
10984TIP3    H154443   3.004   6.492  13.637 -0.6620 -1.3475  1.7486
10984TIP3    H254444   3.063   6.563  13.758 -1.1121  1.3059  0.4546
10985TIP3   OH254445   3.286   6.479  16.526  0.0236  0.0766 -0.0205
10985TIP3    H154446   3.282   6.390  16.490 -0.2539  0.0801  0.0043
10985TIP3    H254447   3.325   6.467  16.613 -1.4764 -0.2207  0.6369
10986TIP3   OH254448   4.708   2.611  13.089  0.3562 -0.2824  0.2857
10986TIP3    H154449   4.795   2.643  13.114  0.6844 -0.8282 -0.1709
10986TIP3    H254450   4.701   2.629  12.996  0.3763 -1.1528  0.1098
10987TIP3   OH254451   6.342   1.663  15.980  0.5107 -0.4334  0.2200
10987TIP3    H154452   6.345   1.607  16.057  2.1580  0.7238  1.0437
10987TIP3    H254453   6.280   1.733  16.003  2.0629  0.6883  1.0746
10988TIP3   OH254454   2.760   2.067   4.510 -0.4320 -0.4264  0.3387
10988TIP3    H154455   2.712   1.984   4.509 -0.9150 -0.1633  1.4995
10988TIP3    H254456   2.729   2.112   4.588  0.8735  0.2393  0.4821
10989TIP3   OH254457   6.122   0.132  16.926 -0.1947  0.3821  0.4329
10989TIP3    H154458   6.057   0.102  16.990 -0.2857 -0.4262 -0.0227
10989TIP3    H254459   6.149   0.218  16.957 -3.5210  1.9925 -0.8328
10990TIP3   OH254460   5.852   5.109   6.254  0.7563 -0.2191 -0.2293
10990TIP3    H154461   5.943   5.116   6.225  0.9595  0.8870  0.6355
10990TIP3    H254462   5.853   5.142   6.344 -0.7890  1.3978 -0.7716
10991TIP3   OH254463   3.545   0.076  13.771  0.2682 -0.2222  0.2794
10991TIP3    H154464   3.531   0.167  13.742  0.1522  0.3666  2.1256
10991TIP3    H254465   3.555   0.027  13.690  1.3494  1.6056 -0.7282
10992TIP3   OH254466   1.671   0.316   3.552  0.1823  0.3546 -0.4539
10992TIP3    H154467   1.678   0.222   3.535 -0.2410  0.4778 -1.3412
10992TIP3    H254468   1.741   0.355   3.499  2.0754  0.3270  1.9417
10993TIP3   OH254469   1.232   5.529   2.758 -0.1770  0.1739  0.0320
10993TIP3    H154470   1.310   5.503   2.807 -0.4798 -2.7969 -0.9282
10993TIP3    H254471   1.174   5.569   2.823  1.0892  0.0145  1.2757
10994TIP3   OH254472   1.234   0.501  11.419 -0.1835 -0.4434 -0.2617
10994TIP3    H154473   1.257   0.426  11.365  0.1257  0.6426 -1.6665
10994TIP3    H254474   1.311   0.558  11.416 -0.5490  0.1064  0.4928
10995TIP3   OH254475   0.745   1.004   4.587 -0.1764  0.2160  0.0932
10995TIP3    H154476   0.684   1.046   4.527 -0.9918 -0.9338  0.1064
10995TIP3    H254477   0.690   0.968   4.657  0.5176 -0.8018  0.1262
10996TIP3   OH254478   0.487   2.658  10.605  0.2048 -0.3604 -0.0045
10996TIP3    H154479   0.446   2.574  10.584  1.6918 -0.9808 -0.4303
10996TIP3    H254480   0.475   2.711  10.526 -1.9571  0.3476  0.7374
10997TIP3   OH254481   6.498   3.923  16.481  0.0969  0.4651  0.4159
10997TIP3    H154482   6.502   4.015  16.457 -0.2153  0.6242  0.9727
10997TIP3    H254483   6.502   3.876  16.397  1.5217  0.9415  0.2068
10998TIP3   OH254484   0.442   2.249   0.239  0.2653 -0.5749 -0.2408
10998TIP3    H154485   0.464   2.340   0.224  0.3701 -0.5726 -0.0785
10998TIP3    H254486   0.521   2.200   0.215  0.8550 -0.4759  1.4133
10999TIP3   OH254487   6.116   0.704  16.994 -0.5562  0.4295 -0.3264
10999TIP3    H154488   6.113   0.680  16.902  0.6832  1.3991 -0.6377
10999TIP3    H254489   6.124   0.799  16.994  1.9128  0.2718  0.7028
11000TIP3   OH254490   6.179   2.743  15.579  0.0360  0.5467  0.7349
11000TIP3    H154491   6.245   2.806  15.610 -0.3097  1.1042  0.3523
11000TIP3    H254492   6.160   2.770  15.489 -1.6590  1.2006  1.2687
11001TIP3   OH254493   6.406   2.500  14.837  0.6193  0.4383  0.0721
11001TIP3    H154494   6.396   2.499  14.742 -0.0566 -0.6776  0.1510
11001TIP3    H254495   6.424   2.409  14.861  0.2182  0.6133  1.0826
11002TIP3   OH254496   3.493   5.326  12.967  0.2407 -0.3165 -0.0753
11002TIP3    H154497   3.583   5.311  12.938  0.6052 -0.7854  1.2563
11002TIP3    H254498   3.481   5.420  12.957  1.1729 -0.1227  0.5377
11003TIP3   OH254499   0.728   3.834   5.151  0.7494  0.2833 -0.5879
11003TIP3    H154500   0.724   3.824   5.246  3.0831  1.2265 -0.3556
11003TIP3    H254501   0.787   3.909   5.138  1.6925 -0.8237 -2.8204
11004TIP3   OH254502   4.489   6.341  15.300 -0.6302 -0.2604 -0.5218
11004TIP3    H154503   4.496   6.346  15.205 -0.2853  1.2474 -0.4202
11004TIP3    H254504   4.510   6.429  15.331 -1.9394 -0.4275  0.8886
11005TIP3   OH254505   6.809   0.944   2.808  0.1354  0.1076  0.1758
11005TIP3    H154506   6.744   1.014   2.809 -0.7305 -0.6557 -0.9426
11005TIP3    H254507   6.845   0.943   2.897  0.0971  1.8963  0.2233
11006TIP3   OH254508   3.911   3.752  14.954  0.0967  0.7462  0.6522
11006TIP3    H154509   3.901   3.733  14.861  1.5870 -0.0321  0.6291
11006TIP3    H254510   3.950   3.839  14.957  2.3077 -0.1868  0.4354
11007TIP3   OH254511   5.046   6.042   5.366  0.6895 -0.1900  0.2318
11007TIP3    H154512   5.088   6.127   5.380 -0.5036  0.5156 -0.3478
11007TIP3    H254513   4.960   6.052   5.407  0.7986 -1.3625  0.7670
11008TIP3   OH254514   1.682   2.433  15.606  0.3944  0.6617  0.5557
11008TIP3    H154515   1.698   2.441  15.512 -0.1239  2.3269  0.5848
11008TIP3    H254516   1.594   2.468  15.619  1.1150  2.1027  1.8649
11009TIP3   OH254517   0.684   4.354   1.527 -0.0140 -0.0492  0.5242
11009TIP3    H154518   0.621   4.326   1.461  0.8426 -0.6086 -0.0660
11009TIP3    H254519   0.698   4.277   1.582  0.8159 -0.1815  0.1263
11010TIP3   OH254520   3.048   3.167  13.258  0.0669 -0.3133  0.4775
11010TIP3    H154521   3.061   3.242  13.199  1.4865  1.2977  2.7604
11010TIP3    H254522   2.970   3.189  13.309 -0.7586 -1.3861 -0.3025
11011TIP3   OH254523   5.730   3.618   1.851  0.2615 -0.0430 -0.3442
11011TIP3    H154524   5.692   3.654   1.931  1.2924 -0.0714  0.1710
11011TIP3    H254525   5.703   3.526   1.850  0.6495 -0.1655  0.2250
11012TIP3   OH254526   2.764   6.622  17.253 -0.1005  0.3420  0.1865
11012TIP3    H154527   2.754   6.547  17.195 -1.3002  0.7114 -0.0971
11012TIP3    H254528   2.679   6.631  17.296  0.1532  1.3004  0.5062
11013TIP3   OH254529   6.218   0.276  14.664  0.3279 -0.2662 -0.0753
11013TIP3    H154530   6.241   0.187  14.637  0.5900 -0.3287  0.3519
11013TIP3    H254531   6.212   0.271  14.760 -2.3410 -0.4776 -0.1959
11014TIP3   OH254532   0.955   1.959   5.257 -0.7928 -0.1130  0.2732
11014TIP3    H154533   1.025   1.899   5.282 -0.1427  0.4226 -0.2453
11014TIP3    H254534   0.929   2.002   5.339 -0.0604  0.1749  0.3528
11015TIP3   OH254535   0.058   3.974   3.597  0.1492 -1.0350  0.1779
11015TIP3    H154536   0.017   3.894   3.563  0.7409 -1.2457 -0.0401
11015TIP3    H254537   0.065   3.959   3.691 -2.6545  0.0636  0.6157
11016TIP3   OH254538   4.507   6.023  13.889 -0.4762  0.3523 -0.8341
11016TIP3    H154539   4.441   5.961  13.858 -1.1206  0.8046 -0.3833
11016TIP3    H254540   4.489   6.104  13.841 -1.6422  1.1382  0.8495
11017TIP3   OH254541   5.352   4.132  13.773  0.2597 -0.1698  0.4809
11017TIP3    H154542   5.390   4.079  13.703  0.2869 -1.8760  1.7618
11017TIP3    H254543   5.263   4.099  13.783 -0.4844  1.5554 -0.2180
11018TIP3   OH254544   3.490   5.010   4.671  0.0017 -0.1271  0.6525
11018TIP3    H154545   3.529   4.941   4.724  2.3368  0.5952 -0.0914
11018TIP3    H254546   3.500   5.089   4.723  0.9971  0.3369 -0.2440
11019TIP3   OH254547   1.408   5.277  13.013 -0.1717 -0.7322 -0.1483
11019TIP3    H154548   1.499   5.274  12.985 -0.2136 -0.7214 -0.2884
11019TIP3    H254549   1.363   5.215  12.957 -0.0886 -1.4286  0.5512
11020TIP3   OH254550   5.741   4.019  11.987 -0.1787 -0.0978 -0.8151
11020TIP3    H154551   5.771   4.091  12.042  0.1361 -0.1083 -0.9680
11020TIP3    H254552   5.653   4.044  11.959 -0.9160 -0.7523  0.8667
11021TIP3   OH254553   3.481   4.125   3.769  0.4336  0.2396  0.0003
11021TIP3    H154554   3.510   4.176   3.694 -0.1619 -0.9190 -1.0258
11021TIP3    H254555   3.388   4.110   3.754  0.0576  0.9396  1.5193
11022TIP3   OH254556   4.542   3.572  12.292 -0.1805 -0.4176 -0.5417
11022TIP3    H154557   4.623   3.619  12.311 -0.4412 -0.2534  0.1938
11022TIP3    H254558   4.519   3.598  12.202 -0.5367  1.1905 -0.0044
11023TIP3   OH254559   5.369   6.679  12.185  0.0127  0.3758  0.1011
11023TIP3    H154560   5.342   6.695  12.276 -0.6680  1.7178 -0.3211
11023TIP3    H254561   5.287   6.654  12.141  0.1687  0.6534 -0.3451
11024TIP3   OH254562   4.549   2.311   4.248  0.7692  0.4744 -0.4836
11024TIP3    H154563   4.487   2.315   4.175  1.2889  0.6401 -0.9210
11024TIP3    H254564   4.585   2.399   4.254 -0.3731  0.8576  0.9512
11025TIP3   OH254565   5.820   2.012  12.602  0.2605 -0.1198 -0.5473
11025TIP3    H154566   5.759   2.024  12.529 -1.8275 -2.5099  0.7070
11025TIP3    H254567   5.901   1.984  12.560 -0.1955  0.7905 -2.1019
11026TIP3   OH254568   2.974   2.220   2.963 -0.3607 -0.1080  0.1113
11026TIP3    H154569   2.939   2.280   3.028  0.1961  0.6569 -0.2747
11026TIP3    H254570   2.963   2.266   2.880  1.1750  0.0014 -0.0571
11027TIP3   OH254571   5.110   2.813  15.083  0.0202 -0.2681  0.8861
11027TIP3    H154572   5.144   2.741  15.137 -0.7139 -1.0662  0.3062
11027TIP3    H254573   5.179   2.879  15.084  1.7067 -1.9575 -0.4723
11028TIP3   OH254574   0.693   3.993  15.082  0.0909 -0.3599 -0.2494
11028TIP3    H154575   0.757   4.064  15.078  0.3710 -0.6339 -0.7035
11028TIP3    H254576   0.621   4.028  15.133 -0.3365  0.7095 -1.5617
11029TIP3   OH254577   3.338   2.814  14.802 -1.0025  1.0704 -0.4972
11029TIP3    H154578   3.374   2.879  14.742 -0.4974  0.5046 -0.8115
11029TIP3    H254579   3.380   2.833  14.886 -1.5793  1.7520 -0.3589
11030TIP3   OH254580   2.503   5.549   5.463  0.4790 -0.2063  0.5427
11030TIP3    H154581   2.543   5.582   5.543  1.4413  0.1217 -0.0812
11030TIP3    H254582   2.453   5.472   5.492  1.9122 -0.8833  1.2414
11031TIP3   OH254583   0.990   2.165   2.792 -0.0505 -0.7254 -0.0654
11031TIP3    H154584   1.013   2.190   2.882  2.4389 -2.5785 -0.1450
11031TIP3    H254585   0.922   2.099   2.802 -1.3941  0.6805  0.3524
11032TIP3   OH254586   3.908   5.908  17.027  0.2234  0.0311 -0.6133
11032TIP3    H154587   3.962   5.950  16.960  0.5390  3.1959  1.5455
11032TIP3    H254588   3.957   5.829  17.050  0.9721 -0.1852 -2.8492
11033TIP3   OH254589   6.627   1.669  11.814  0.4249  0.0939 -0.9435
11033TIP3    H154590   6.555   1.607  11.821  0.5949  0.2568  2.7736
11033TIP3    H254591   6.585   1.754  11.806  0.1396  0.3013  2.2934
11034TIP3   OH254592   3.801   5.433  11.117 -0.3002  0.6389  0.0084
11034TIP3    H154593   3.732   5.392  11.168 -0.7903  2.3545  0.7503
11034TIP3    H254594   3.755   5.490  11.055  0.4123  1.0036 -0.1928
11035TIP3   OH254595   2.147   5.390   5.150  0.4126  0.1461  0.6453
11035TIP3    H154596   2.220   5.442   5.185 -1.2639  1.6098  2.0165
11035TIP3    H254597   2.089   5.453   5.109 -0.5661 -0.9063  0.3748
11036TIP3   OH254598   6.813   0.968   4.381 -0.0714 -0.1073  0.1616
11036TIP3    H154599   6.783   1.053   4.412 -1.2883 -0.3288 -0.3863
11036TIP3    H254600   6.889   0.948   4.436  0.5151  1.5334 -0.0109
11037TIP3   OH254601   0.880   1.928  16.619 -0.4580 -0.0240 -0.1445
11037TIP3    H154602   0.916   1.990  16.683 -1.1070 -1.0307  1.2182
11037TIP3    H254603   0.943   1.856  16.618  0.4962  0.8041 -2.0111
11038TIP3   OH254604   0.516   0.075   2.296 -0.2956  0.1244 -0.4305
11038TIP3    H154605   0.542   0.015   2.225 -0.2471 -0.1938 -0.1427
11038TIP3    H254606   0.599   0.112   2.327 -0.2403 -0.4332  0.0807
11039TIP3   OH254607   0.473   3.527  16.414  0.3313  0.2732 -0.0029
11039TIP3    H154608   0.418   3.453  16.441  0.4077  0.7469  1.4885
11039TIP3    H254609   0.498   3.507  16.324  0.7596 -1.7800  0.5512
11040TIP3   OH254610   5.962   5.653   3.343 -0.1699 -0.6849 -0.3336
11040TIP3    H154611   5.879   5.664   3.389  0.2968 -0.7460  0.5257
11040TIP3    H254612   6.029   5.670   3.409  0.5074 -1.3921 -0.8230
11041TIP3   OH254613   1.951   5.735  16.544 -0.3764 -0.4984  0.2666
11041TIP3    H154614   2.035   5.693  16.522 -0.5260  0.4240 -2.2275
11041TIP3    H254615   1.923   5.777  16.462 -2.2576  0.9737  1.6238
11042TIP3   OH254616   4.471   3.267   3.641 -0.1801  0.0516  0.0984
11042TIP3    H154617   4.417   3.188   3.649  1.0817 -1.0263 -1.7544
11042TIP3    H254618   4.409   3.339   3.650 -1.7947 -1.1717 -0.9728
11043TIP3   OH254619   5.137   5.513   0.129  0.1585  0.1222 -0.2545
11043TIP3    H154620   5.126   5.568   0.052 -0.1379  1.0875  0.4713
11043TIP3    H254621   5.053   5.468   0.138  1.1748 -2.2781 -2.2277
11044TIP3   OH254622   2.004   3.187  16.802  0.1939 -0.0449  0.0402
11044TIP3    H154623   2.042   3.192  16.714  0.1347  0.1582  0.0273
11044TIP3    H254624   2.020   3.097  16.830 -1.1058 -0.5505 -0.7755
11045TIP3   OH254625   3.374   5.869  16.709  0.1274  0.2770  0.3243
11045TIP3    H154626   3.364   5.785  16.754  0.5744  0.4697  0.7960
11045TIP3    H254627   3.388   5.932  16.779  1.5114  0.4781 -0.1029
11046TIP3   OH254628   3.931   2.393   1.478  0.0922 -0.3827  0.0580
11046TIP3    H154629   3.837   2.405   1.492 -0.0834 -0.7015 -0.7979
11046TIP3    H254630   3.971   2.472   1.515 -0.4352 -0.6493  1.2226
11047TIP3   OH254631   5.775   3.930   3.462 -0.6694  0.2537  0.3030
11047TIP3    H154632   5.721   3.866   3.414 -0.2232  0.9859 -1.2033
11047TIP3    H254633   5.834   3.876   3.514 -1.3115 -0.5560  0.2141
11048TIP3   OH254634   5.311   5.850  11.715 -0.1275 -0.6048 -0.2158
11048TIP3    H154635   5.383   5.910  11.694  2.3743 -3.5376 -0.4948
11048TIP3    H254636   5.304   5.794  11.638 -0.3431 -2.5520  1.1778
11049TIP3   OH254637   3.700   4.378   3.826  0.4144 -0.1312 -0.2466
11049TIP3    H154638   3.625   4.388   3.769  0.4061  2.6139  0.1784
11049TIP3    H254639   3.663   4.366   3.913  0.4526 -2.3318 -0.5116
11050TIP3   OH254640   1.907   6.650  13.162  0.5668  0.3480  0.0093
11050TIP3    H154641   1.854   6.573  13.141  0.0966  0.5623  0.4159
11050TIP3    H254642   1.852   6.703  13.219  1.0184  0.8273  0.0081
11051TIP3   OH254643   1.259   2.385  16.878  0.5633 -0.0265  0.2677
11051TIP3    H154644   1.224   2.403  16.791  1.9473 -2.2183 -0.7833
11051TIP3    H254645   1.242   2.465  16.928 -0.5041  1.1487 -1.9161
11052TIP3   OH254646   2.407   1.020   5.745 -0.3778 -0.0474  0.0252
11052TIP3    H154647   2.428   1.104   5.786  0.4014  0.9127 -2.2386
11052TIP3    H254648   2.311   1.015   5.749 -0.4882  1.3162 -0.4611
11053TIP3   OH254649   5.314   2.535  16.360 -0.1430 -0.4845 -0.4011
11053TIP3    H154650   5.260   2.536  16.281  1.8790  1.0006 -1.8156
11053TIP3    H254651   5.324   2.627  16.384 -1.3822 -0.9645  2.0789
11054TIP3   OH254652   4.242   3.536  11.151  0.1296 -0.5931 -0.4396
11054TIP3    H154653   4.315   3.509  11.096  0.1306 -0.4100 -0.5291
11054TIP3    H254654   4.164   3.510  11.103  0.1296 -0.3753 -0.5577
11055TIP3   OH254655   4.590   1.163   0.462  0.1245 -0.2623 -0.1858
11055TIP3    H154656   4.672   1.197   0.427  0.7592  0.5750  2.0268
11055TIP3    H254657   4.524   1.227   0.434  0.2667 -0.6773 -1.5386
11056TIP3   OH254658   4.318   5.697   1.922 -0.4563  0.1494 -0.1391
11056TIP3    H154659   4.333   5.614   1.967 -0.5800 -0.1139 -0.5768
11056TIP3    H254660   4.323   5.674   1.829 -1.5101  0.4405 -0.2647
11057TIP3   OH254661   3.378   6.359   2.650  0.3877 -0.0733 -0.2103
11057TIP3    H154662   3.287   6.364   2.622 -0.0752 -0.1781  1.2138
11057TIP3    H254663   3.425   6.327   2.573 -0.6844  0.5246 -1.1291
11058TIP3   OH254664   2.022   6.327   1.120  1.2184 -0.3511  0.0761
11058TIP3    H154665   2.045   6.278   1.040 -0.7425 -1.1962 -0.0198
11058TIP3    H254666   1.985   6.409   1.088 -0.3209 -1.0278  0.0548
11059TIP3   OH254667   0.353   6.085  16.101 -0.3164  0.4272  0.5295
11059TIP3    H154668   0.314   6.166  16.067 -1.5253 -1.3397 -2.4898
11059TIP3    H254669   0.283   6.044  16.152 -0.3442  0.3052  0.3941
11060TIP3   OH254670   1.990   4.183   2.488 -0.4116 -0.3894 -0.4759
11060TIP3    H154671   1.903   4.155   2.459  0.5072 -2.2740 -1.4643
11060TIP3    H254672   2.038   4.202   2.408  0.3080  0.0089  0.0419
11061TIP3   OH254673   2.317   0.313   2.679  0.3634 -0.1255 -0.5755
11061TIP3    H154674   2.336   0.254   2.752  1.4956 -0.3300 -1.0222
11061TIP3    H254675   2.277   0.258   2.613 -1.1003  0.1529  0.0689
11062TIP3   OH254676   4.019   1.262  12.267 -0.0587 -0.7163  0.2901
11062TIP3    H154677   4.101   1.283  12.312 -0.0715 -0.7848  0.3462
11062TIP3    H254678   4.023   1.312  12.186  0.1390 -0.8939  0.1907
11063TIP3   OH254679   2.257   3.896   4.061 -0.8532  0.6480  0.2707
11063TIP3    H154680   2.338   3.866   4.102 -0.5963  0.6151 -0.2514
11063TIP3    H254681   2.281   3.979   4.019 -1.1004  0.6619  0.1603
11064TIP3   OH254682   6.519   5.160   3.485  0.5798 -0.2990  0.0470
11064TIP3    H154683   6.515   5.137   3.392  0.4958 -0.9372  0.2092
11064TIP3    H254684   6.574   5.093   3.524  0.8593  0.1378  0.4111
11065TIP3   OH254685   0.558   5.693  16.442  0.2938 -0.2234 -0.3917
11065TIP3    H154686   0.517   5.674  16.526  1.3057 -1.4975 -0.1742
11065TIP3    H254687   0.635   5.636  16.440  1.3339  1.1968 -1.3474
11066TIP3   OH254688   2.547   0.398  11.749 -0.3122  0.4793 -0.0667
11066TIP3    H154689   2.618   0.335  11.754 -0.7046  0.0809  0.4473
11066TIP3    H254690   2.483   0.368  11.813 -0.1230  1.8733  0.7863
11067TIP3   OH254691   0.109   5.339   4.489  0.3681 -0.2245 -0.1675
11067TIP3    H154692   0.053   5.284   4.434  1.1473 -1.5037  0.3156
11067TIP3    H254693   0.104   5.300   4.576 -0.9357  1.8472  0.7537
11068TIP3   OH254694   0.833   1.159  13.008  0.4226  0.9718  0.2866
11068TIP3    H154695   0.813   1.094  13.076  0.3704 -0.6948 -1.2652
11068TIP3    H254696   0.898   1.216  13.048 -0.2903  0.5892  2.0594
11069TIP3   OH254697   4.036   1.783  15.466 -0.3179  0.1316 -0.1484
11069TIP3    H154698   4.001   1.866  15.434  0.1713 -0.3154 -1.9008
11069TIP3    H254699   4.103   1.808  15.530  2.0599  1.2208 -2.9363
11070TIP3   OH254700   2.378   4.099  14.443  0.8046  1.0400 -0.2972
11070TIP3    H154701   2.296   4.058  14.471  0.8947  0.2229 -1.2296
11070TIP3    H254702   2.351   4.184  14.408  0.2934  0.5069 -1.1966
11071TIP3   OH254703   2.061   4.144  16.607  0.2077 -0.1723  0.1799
11071TIP3    H154704   2.089   4.133  16.698  4.6928 -0.1349 -1.0692
11071TIP3    H254705   2.055   4.239  16.595 -1.8576 -0.2012  0.7883
11072TIP3   OH254706   0.265   3.866   6.042 -0.8648  0.0677 -1.0054
11072TIP3    H154707   0.332   3.799   6.029 -0.4812 -0.5407  3.4488
11072TIP3    H254708   0.304   3.947   6.010  2.0245 -0.2958  1.4389
11073TIP3   OH254709   4.378   1.600   4.582  0.6158  0.0504  0.6955
11073TIP3    H154710   4.439   1.556   4.641  0.4985  0.1408  0.8861
11073TIP3    H254711   4.342   1.672   4.634 -0.7102 -0.8518  1.0717
11074TIP3   OH254712   5.163   2.641   5.004 -0.4226 -0.1733  0.5405
11074TIP3    H154713   5.136   2.727   5.036 -0.7477 -0.0441 -0.0708
11074TIP3    H254714   5.239   2.659   4.948 -1.2224 -0.1357 -0.5607
11075TIP3   OH254715   2.993   4.960   6.486  0.4251 -0.7181 -0.1342
11075TIP3    H154716   2.939   5.035   6.510  2.3221  0.4273  0.6408
11075TIP3    H254717   2.931   4.896   6.450 -1.4571  0.4650  0.9483
11076TIP3   OH254718   6.381   1.790   1.931  0.1100 -0.6000 -0.1593
11076TIP3    H154719   6.349   1.790   1.841  1.7800 -3.0977 -0.7900
11076TIP3    H254720   6.476   1.792   1.924  0.2602 -0.6417  1.5538
11077TIP3   OH254721   1.038   5.954   2.149  0.8099  0.1616  0.0380
11077TIP3    H154722   1.031   5.932   2.242 -0.4334  0.6224  0.0522
11077TIP3    H254723   0.950   5.978   2.122  1.2606  0.5598 -1.1388
11078TIP3   OH254724   4.335   4.600  15.809  0.2927 -0.1556 -0.0108
11078TIP3    H154725   4.350   4.510  15.840 -4.9268 -0.6327  1.4709
11078TIP3    H254726   4.361   4.655  15.883  2.3415 -0.4064 -0.4892
11079TIP3   OH254727   2.697   4.492  15.579 -0.0525  0.3363  0.0056
11079TIP3    H154728   2.611   4.461  15.549 -0.1960 -0.2871  1.0071
11079TIP3    H254729   2.717   4.567  15.523 -0.6426 -0.3333 -1.1166
11080TIP3   OH254730   4.658   5.884  11.393 -0.0669  0.2187  0.0606
11080TIP3    H154731   4.735   5.835  11.423  2.1668  2.8933 -1.1284
11080TIP3    H254732   4.693   5.963  11.353 -3.5348  2.3122  0.9207
11081TIP3   OH254733   1.138   3.367  14.555  0.1451  0.1918  0.3699
11081TIP3    H154734   1.160   3.284  14.514 -0.5392 -0.3696  1.1320
11081TIP3    H254735   1.124   3.428  14.482  1.2867 -0.1893 -0.1740
11082TIP3   OH254736   5.478   2.276   6.029 -0.1427  0.0471  0.1117
11082TIP3    H154737   5.465   2.256   6.121  0.7237 -0.4160  0.1410
11082TIP3    H254738   5.572   2.265   6.015  0.2859  3.2661 -0.0557
11083TIP3   OH254739   5.707   2.798   4.583  0.5699 -0.2373 -0.2226
11083TIP3    H154740   5.743   2.766   4.500  0.8348 -0.1480 -0.1419
11083TIP3    H254741   5.742   2.886   4.592  0.6506 -0.2971  0.0521
11084TIP3   OH254742   3.011   1.477   6.574 -0.0718  0.6190  0.3056
11084TIP3    H154743   2.933   1.503   6.623 -0.1676  0.5355  0.1970
11084TIP3    H254744   2.983   1.401   6.523  0.2377  0.2298  0.7122
11085TIP3   OH254745   0.968   2.097  10.964  0.1055 -0.0273 -0.0317
11085TIP3    H154746   0.993   2.044  11.040 -1.0658  0.0430  0.4152
11085TIP3    H254747   0.873   2.103  10.969  0.0063 -0.0420 -1.5227
11086TIP3   OH254748   1.390   6.105  12.981  0.0811  0.0432  0.1427
11086TIP3    H154749   1.364   6.018  13.012  0.7454 -0.4356 -0.6365
11086TIP3    H254750   1.325   6.165  13.020 -2.2007 -1.1329 -1.7207
11087TIP3   OH254751   6.099   0.283   3.665 -0.7159  0.2802 -0.0764
11087TIP3    H154752   6.114   0.228   3.588 -0.0329  0.4043 -0.0383
11087TIP3    H254753   6.177   0.270   3.719 -0.5214  1.3261 -0.0920
11088TIP3   OH254754   3.891   1.173   4.658  0.1185 -0.2813 -1.0116
11088TIP3    H154755   3.864   1.158   4.748  1.9912  0.4497 -0.3220
11088TIP3    H254756   3.810   1.161   4.607 -0.4702 -3.0069  0.4869
11089TIP3   OH254757   1.584   4.897  11.350  0.2449 -0.1263  0.2373
11089TIP3    H154758   1.584   4.851  11.433  0.5602 -0.8429 -0.1592
11089TIP3    H254759   1.537   4.839  11.290 -0.7390  0.7665  0.1228
11090TIP3   OH254760   0.553   1.077  15.177 -0.0580 -0.0495  0.1718
11090TIP3    H154761   0.541   1.030  15.094  2.2317  0.0658 -0.2663
11090TIP3    H254762   0.477   1.135  15.183 -0.9864 -1.0977 -1.1281
11091TIP3   OH254763   5.412   2.383  11.705 -0.1301  0.1960 -0.7188
11091TIP3    H154764   5.395   2.293  11.734 -0.1831  0.6653  0.7260
11091TIP3    H254765   5.495   2.378  11.658 -0.3605 -0.6916 -1.0331
11092TIP3   OH254766   5.730   1.573  12.876 -0.4267 -0.4107  0.1712
11092TIP3    H154767   5.707   1.662  12.847  0.8778 -0.2956 -0.5842
11092TIP3    H254768   5.797   1.586  12.943  1.3664 -0.8526 -1.4737
11093TIP3   OH254769   6.808   2.139  16.884  0.1069  0.1378  0.0779
11093TIP3    H154770   6.851   2.224  16.889  1.5400 -0.5610 -0.1307
11093TIP3    H254771   6.760   2.142  16.801  1.5413  0.1121 -0.7650
11094TIP3   OH254772   6.017   1.812  16.619 -0.4892 -0.2035  0.3903
11094TIP3    H154773   6.086   1.781  16.560  0.9786 -1.8296  2.8685
11094TIP3    H254774   5.987   1.894  16.580  0.2309 -1.3648 -2.7526
11095TIP3   OH254775   5.724   0.255  15.092 -0.2305  0.2733  0.3919
11095TIP3    H154776   5.779   0.196  15.143 -1.0627 -3.0930 -2.4369
11095TIP3    H254777   5.783   0.292  15.026 -0.2879  0.4587  0.4460
11096TIP3   OH254778   5.135   3.746  11.955  0.3668  0.1771 -0.3778
11096TIP3    H154779   5.171   3.707  12.035 -0.8352  1.1148  0.6359
11096TIP3    H254780   5.120   3.838  11.978 -1.6076  0.0553 -1.1390
11097TIP3   OH254781   0.936   6.234   1.431  0.9252 -0.0823  0.4141
11097TIP3    H154782   0.863   6.240   1.493 -0.2057 -1.1616 -0.7681
11097TIP3    H254783   0.963   6.325   1.417  0.0673  0.3017  1.1742
11098TIP3   OH254784   3.032   5.074  13.260  0.1178  0.0894 -0.7993
11098TIP3    H154785   2.965   5.077  13.329  1.1796 -2.2809  0.4074
11098TIP3    H254786   2.997   5.012  13.196  0.8251 -0.5663 -0.5469
11099TIP3   OH254787   5.034   2.194   5.327  0.7089  0.1755 -0.4871
11099TIP3    H154788   5.059   2.139   5.252  1.2364 -0.7953  0.3856
11099TIP3    H254789   5.101   2.176   5.393  0.4507  1.2957  0.0888
11100TIP3   OH254790   2.501   2.546  12.931 -0.3239  0.4431  0.0574
11100TIP3    H154791   2.542   2.487  12.995 -1.0656 -0.2221 -0.0760
11100TIP3    H254792   2.575   2.588  12.887  0.2375  2.7790  3.0177
11101TIP3   OH254793   0.370   3.741   4.076 -0.2453  0.4090 -0.8467
11101TIP3    H154794   0.399   3.707   3.992 -0.2967  2.8955 -1.9284
11101TIP3    H254795   0.342   3.831   4.057  3.3070  2.4047  2.4671
11102TIP3   OH254796   0.269   6.191  12.178  0.8246  0.5479  0.2417
11102TIP3    H154797   0.271   6.124  12.247 -0.3449  1.2406  0.9727
11102TIP3    H254798   0.286   6.144  12.097  0.9553 -0.4804  0.8660
11103TIP3   OH254799   0.951   1.418   2.243 -0.0891 -0.0739 -0.2692
11103TIP3    H154800   0.991   1.391   2.326  0.4704  0.1522 -0.4616
11103TIP3    H254801   0.897   1.343   2.217 -0.0276 -0.2660  0.1427
11104TIP3   OH254802   0.842   5.296   1.221 -0.2535 -0.5359  0.7842
11104TIP3    H154803   0.858   5.353   1.297  0.2337  1.0946 -0.4980
11104TIP3    H254804   0.788   5.349   1.162 -0.0454 -1.5244 -0.3149
11105TIP3   OH254805   4.448   2.316   2.633  0.4495 -0.1104  0.0627
11105TIP3    H154806   4.386   2.249   2.606  0.3576  0.2558 -0.6382
11105TIP3    H254807   4.454   2.306   2.728 -1.0056  0.1194  0.1957
11106TIP3   OH254808   5.671   3.175   5.137 -0.4758 -0.0971 -0.3844
11106TIP3    H154809   5.664   3.206   5.227 -1.2975  0.2021 -0.5532
11106TIP3    H254810   5.749   3.219   5.102  0.8724 -1.5477  0.7151
11107TIP3   OH254811   0.699   2.350  12.726 -0.5880  0.0284 -0.0370
11107TIP3    H154812   0.637   2.421  12.710  0.9834  1.7588  1.2995
11107TIP3    H254813   0.659   2.297  12.795 -0.4426  1.3479  1.0820
11108TIP3   OH254814   6.034   1.765   5.760 -0.0056 -0.5059 -0.5113
11108TIP3    H154815   5.955   1.769   5.706  0.6570 -0.9742 -1.5296
11108TIP3    H254816   6.049   1.856   5.788 -0.5619 -0.3210 -0.8118
11109TIP3   OH254817   3.865   5.137  17.224 -0.5956 -0.0126  0.0691
11109TIP3    H154818   3.852   5.161  17.315  2.2218  1.4164  0.1557
11109TIP3    H254819   3.857   5.220  17.176 -0.2424 -0.4467 -0.7538
11110TIP3   OH254820   0.923   3.958   1.443 -0.3385  0.4028  0.4313
11110TIP3    H154821   0.868   3.912   1.379 -0.5242 -0.9542  1.5405
11110TIP3    H254822   0.867   4.027   1.477 -0.2745  1.0733 -0.7804
11111TIP3   OH254823   3.467   0.492   0.863  0.0128  0.5611  0.4450
11111TIP3    H154824   3.510   0.472   0.946  1.7158  1.8460 -0.0893
11111TIP3    H254825   3.441   0.583   0.871  0.6296  0.8401 -0.5935
11112TIP3   OH254826   6.382   4.518  17.040 -0.2804 -0.3207  0.4526
11112TIP3    H154827   6.322   4.516  17.115 -0.3054 -1.8280  0.3913
11112TIP3    H254828   6.451   4.579  17.066 -0.3897 -0.6954  1.6236
11113TIP3   OH254829   0.009   5.428   1.822  0.2163 -0.3282  0.1472
11113TIP3    H154830   0.094   5.423   1.778 -0.1024  0.0020 -0.4949
11113TIP3    H254831   0.007   5.516   1.860  0.4661 -0.5902  0.7914
11114TIP3   OH254832   1.820   6.699  16.149  0.0139  0.3954 -0.1750
11114TIP3    H154833   1.822   6.609  16.116 -0.7880  0.3238 -0.0249
11114TIP3    H254834   1.882   6.698  16.222 -0.5144 -0.2072  0.2706
11115TIP3   OH254835   6.686   2.763   1.973 -0.3814  0.2054 -0.0417
11115TIP3    H154836   6.717   2.675   1.995  1.2014  0.1969 -2.1400
11115TIP3    H254837   6.637   2.791   2.051  1.4598 -1.4198  1.7723
11116TIP3   OH254838   3.757   5.682   1.340 -0.2014  0.4915 -0.1420
11116TIP3    H154839   3.775   5.757   1.396 -0.0495  1.3570 -1.3334
11116TIP3    H254840   3.668   5.697   1.308 -0.5409 -0.3415  0.3872
11117TIP3   OH254841   3.997   5.207  11.110  0.1448  0.0327 -0.4605
11117TIP3    H154842   4.028   5.270  11.045 -0.2654  1.7218  0.9306
11117TIP3    H254843   4.015   5.121  11.072  0.4547  0.9941 -2.5164
11118TIP3   OH254844   0.677   5.618  14.132 -0.2659 -0.4009  0.0547
11118TIP3    H154845   0.719   5.669  14.062 -1.7942 -0.9516 -1.2893
11118TIP3    H254846   0.731   5.539  14.139  1.7630  1.0585  1.7372
11119TIP3   OH254847   6.804   3.807   5.283  1.0424 -0.1471  0.3693
11119TIP3    H154848   6.832   3.893   5.313  1.5856 -0.2348  0.1185
11119TIP3    H254849   6.867   3.783   5.215 -0.3143  0.1411 -1.0187
11120TIP3   OH254850   5.838   6.758   3.589  0.4251 -0.0457  0.2685
11120TIP3    H154851   5.819   6.785   3.499 -2.0230 -1.8369  0.1888
11120TIP3    H254852   5.920   6.709   3.583  0.7833  0.6774 -0.8169
11121TIP3   OH254853   5.435   4.628   3.959 -0.5401 -0.2304  0.1019
11121TIP3    H154854   5.350   4.652   3.997  0.0782  2.6233 -0.2419
11121TIP3    H254855   5.421   4.635   3.864  0.4140  1.5734  0.0714
11122TIP3   OH254856   6.204   6.238   1.540 -0.8359 -0.4604  0.0292
11122TIP3    H154857   6.204   6.311   1.602  0.2144 -0.9058  0.5621
11122TIP3    H254858   6.111   6.220   1.525 -1.0974  0.6814  0.2488
11123TIP3   OH254859   2.310   1.486  16.321 -0.3891 -0.6534  0.3748
11123TIP3    H154860   2.315   1.411  16.262 -0.6888 -0.2905 -0.1112
11123TIP3    H254861   2.217   1.498  16.337 -0.4608  0.7149 -0.9645
11124TIP3   OH254862   4.041   1.830  17.022  0.1945 -0.0946  0.2543
11124TIP3    H154863   4.093   1.847  17.101  0.5128  0.2759 -0.0323
11124TIP3    H254864   4.091   1.764  16.974 -0.9435 -1.7301  1.2713
11125TIP3   OH254865   5.274   1.456   2.278 -0.0440 -0.1203 -0.4332
11125TIP3    H154866   5.232   1.398   2.214 -2.2982  2.2622 -1.2117
11125TIP3    H254867   5.296   1.535   2.228  0.6089  0.7380  1.1653
11126TIP3   OH254868   5.939   3.971  16.435  0.0491 -0.1760 -0.1666
11126TIP3    H154869   6.017   4.019  16.408 -0.2441  0.0458 -0.6169
11126TIP3    H254870   5.892   4.032  16.492 -0.7205  0.3798 -1.3646
11127TIP3   OH254871   5.335   1.596   5.763  0.6458 -0.1548  0.2926
11127TIP3    H154872   5.430   1.602   5.775  0.5637  1.6918  0.1062
11127TIP3    H254873   5.302   1.577   5.851  1.0506  0.8664  0.6706
11128TIP3   OH254874   1.946   5.327   4.785  0.0345  0.2860 -0.4398
11128TIP3    H154875   1.904   5.244   4.765  0.1170  0.5385 -1.6929
11128TIP3    H254876   1.893   5.393   4.740 -0.0170  0.9112  0.5234
11129TIP3   OH254877   6.121   0.214   4.789 -0.9600 -0.2803  0.6279
11129TIP3    H154878   6.071   0.201   4.708 -0.7743 -0.5003  0.5497
11129TIP3    H254879   6.191   0.274   4.764 -0.1418 -1.3477  0.3171
11130TIP3   OH254880   6.390   1.007  15.680  0.0255 -0.0115 -0.3767
11130TIP3    H154881   6.437   1.010  15.597  1.9258 -0.2955  0.6584
11130TIP3    H254882   6.434   1.070  15.736 -0.8963 -0.2006  0.5965
11131TIP3   OH254883   0.383   6.493   2.896  0.2673 -0.6668  0.0984
11131TIP3    H154884   0.456   6.555   2.894  0.8644 -1.3002  1.7235
11131TIP3    H254885   0.334   6.512   2.816  1.3537  0.7943 -0.2494
11132TIP3   OH254886   4.900   6.349  14.362 -0.1701 -0.0218 -0.0611
11132TIP3    H154887   4.858   6.431  14.336 -1.5160 -0.3372  1.0254
11132TIP3    H254888   4.839   6.281  14.335 -0.8052 -0.4448  2.3051
11133TIP3   OH254889   0.780   3.645   4.931 -0.2165 -0.1628 -0.1805
11133TIP3    H154890   0.750   3.693   5.008 -4.7019  3.0119 -3.6341
11133TIP3    H254891   0.710   3.582   4.914  0.9422 -1.1384 -1.3963
11134TIP3   OH254892   1.424   2.551   3.545  0.4302  0.3410 -0.1388
11134TIP3    H154893   1.493   2.605   3.583  1.8083 -1.0827 -0.5529
11134TIP3    H254894   1.464   2.464   3.536 -0.8119 -0.0659 -2.0740
11135TIP3   OH254895   4.448   3.196   1.743 -0.5257  0.0813  0.1140
11135TIP3    H154896   4.389   3.248   1.798  1.7145  1.7827  0.9563
11135TIP3    H254897   4.510   3.157   1.803  0.1994 -0.3995 -0.9263
11136TIP3   OH254898   5.468   2.440   2.361  0.1635  0.0169 -0.3158
11136TIP3    H154899   5.508   2.401   2.439 -4.2907 -1.2777  1.5046
11136TIP3    H254900   5.499   2.530   2.360  0.4654  0.0167  2.9266
11137TIP3   OH254901   4.365   1.970   5.176 -0.2003 -0.5191 -0.8546
11137TIP3    H154902   4.407   1.981   5.261 -1.2770  0.3939 -0.4295
11137TIP3    H254903   4.363   1.875   5.163  0.7404 -0.6268 -0.2633
11138TIP3   OH254904   6.648   2.385   4.090  0.8870  0.4203  0.1108
11138TIP3    H154905   6.630   2.334   4.011  2.0467  0.3179 -0.0922
11138TIP3    H254906   6.609   2.470   4.073  1.5856  0.5640 -0.7847
11139TIP3   OH254907   6.581   4.801  12.812  0.2343 -0.2424 -0.3129
11139TIP3    H154908   6.628   4.770  12.889 -0.9007 -1.0312  0.0774
11139TIP3    H254909   6.649   4.838  12.756  1.2019 -0.5699  0.6240
11140TIP3   OH254910   0.615   5.802  17.275 -0.3354 -0.4861 -0.1968
11140TIP3    H154911   0.537   5.750  17.259  0.1488 -0.9654 -1.0150
11140TIP3    H254912   0.640   5.782  17.365 -0.1088 -1.7265 -0.5359
11141TIP3   OH254913   6.285   1.606  12.751  0.4558 -0.3389 -0.1519
11141TIP3    H154914   6.255   1.640  12.835  0.8756 -0.1020 -0.0966
11141TIP3    H254915   6.366   1.654  12.734  0.3113 -0.3003 -0.7443
11142TIP3   OH254916   1.125   3.992   2.977 -0.3187  0.7843 -0.0142
11142TIP3    H154917   1.122   4.033   2.890  0.8548 -1.5481 -1.1975
11142TIP3    H254918   1.157   4.061   3.035  0.7415  1.8200 -1.7886
11143TIP3   OH254919   3.398   5.927   4.075  0.4277  0.2236 -0.0598
11143TIP3    H154920   3.386   5.902   3.983  1.7145 -1.2136  0.1415
11143TIP3    H254921   3.470   5.990   4.074 -0.5099  1.3049 -0.1842
11144TIP3   OH254922   1.946   6.215   1.349 -0.3280  0.6738  0.4637
11144TIP3    H154923   1.883   6.163   1.300  0.3780  0.6484 -0.4401
11144TIP3    H254924   1.991   6.267   1.282  0.1221  1.1961  1.1719
11145TIP3   OH254925   5.856   4.016   3.198 -0.0040  0.4077  0.3549
11145TIP3    H154926   5.811   3.996   3.280 -1.3805  0.2913 -0.4018
11145TIP3    H254927   5.842   4.110   3.186 -1.0288  0.1600 -0.4460
11146TIP3   OH254928   6.376   5.067  14.794 -0.1098 -0.0422 -0.5166
11146TIP3    H154929   6.323   5.012  14.737  1.2242 -1.0722 -0.8077
11146TIP3    H254930   6.427   5.005  14.846  2.1546  0.8639 -1.5472
11147TIP3   OH254931   3.726   4.660   2.195  0.2674  0.0034 -0.0180
11147TIP3    H154932   3.773   4.624   2.120 -0.5476  1.8627 -1.4581
11147TIP3    H254933   3.791   4.661   2.265  1.9218  0.8774 -1.4932
11148TIP3   OH254934   2.475   1.538  11.489 -0.0497 -0.0580  0.2786
11148TIP3    H154935   2.487   1.618  11.540  0.4427 -0.6926  1.1835
11148TIP3    H254936   2.399   1.495  11.528 -2.3781  1.5405 -2.3074
11149TIP3   OH254937   4.975   2.766  15.997 -0.0124  0.3640  0.0991
11149TIP3    H154938   5.004   2.693  15.942 -1.0080 -0.8216  1.1441
11149TIP3    H254939   4.956   2.836  15.935 -0.4155 -0.7206 -1.0156
11150TIP3   OH254940   1.461   2.006  13.211  0.3180  0.3833  0.0554
11150TIP3    H154941   1.454   1.929  13.155  2.2251 -1.1684  1.8532
11150TIP3    H254942   1.505   1.974  13.290 -1.0743  2.7836  1.8837
11151TIP3   OH254943   6.042   2.568  14.546  0.0722  0.3472  0.3178
11151TIP3    H154944   5.955   2.562  14.586 -0.1642 -0.4154 -0.3076
11151TIP3    H254945   6.026   2.576  14.453  0.6978 -1.5833  0.0171
11152TIP3   OH254946   0.163   6.628  13.963  0.2678  0.1065 -0.2635
11152TIP3    H154947   0.129   6.622  13.873  1.1139  1.4597 -0.6911
11152TIP3    H254948   0.172   6.722  13.979  2.1158 -0.1786  0.4595
11153TIP3   OH254949   1.571   2.694  11.952 -0.4334 -0.1296  0.4382
11153TIP3    H154950   1.665   2.675  11.940 -0.2511 -0.2345  1.9460
11153TIP3    H254951   1.567   2.743  12.034 -1.5135  1.5692 -0.6092
11154TIP3   OH254952   1.021   5.083  12.202  0.1551 -0.3515 -0.1365
11154TIP3    H154953   1.028   5.095  12.297 -1.1029 -0.0767 -0.0649
11154TIP3    H254954   0.927   5.082  12.185  0.3500 -1.4997 -1.2503
11155TIP3   OH254955   3.789   1.258   2.121 -0.6594 -0.0158  0.1883
11155TIP3    H154956   3.869   1.251   2.069 -0.4492  2.0326  0.2056
11155TIP3    H254957   3.784   1.174   2.168  0.2230 -1.0917 -1.5593
11156TIP3   OH254958   6.289   3.297  12.976  1.0060 -0.0069  0.2797
11156TIP3    H154959   6.281   3.202  12.971  1.0897 -0.0093  0.1952
11156TIP3    H254960   6.263   3.319  13.065 -0.3388  0.0230 -0.1137
11157TIP3   OH254961   3.714   4.953   4.337  0.0981  0.1511 -0.4375
11157TIP3    H154962   3.739   4.931   4.248  1.0231  2.0582 -0.6630
11157TIP3    H254963   3.734   5.046   4.346  1.8779 -0.4300  2.3664
11158TIP3   OH254964   2.930   0.897  13.467  0.3095 -0.1597 -0.0292
11158TIP3    H154965   3.020   0.930  13.461  0.4016 -0.2314  0.7998
11158TIP3    H254966   2.884   0.937  13.394  0.7981  0.6103  0.0838
11159TIP3   OH254967   6.727   3.765  10.766  0.0371 -0.2047 -0.0448
11159TIP3    H154968   6.708   3.856  10.743 -1.4383 -0.4994 -0.0262
11159TIP3    H254969   6.654   3.715  10.729  0.3027 -1.2610  0.8399
11160TIP3   OH254970   2.624   6.736   4.356 -0.1584 -0.5926  0.2392
11160TIP3    H154971   2.624   6.829   4.377 -0.6231 -0.9336  1.7944
11160TIP3    H254972   2.709   6.721   4.315 -0.4763  0.7109 -0.9223
11161TIP3   OH254973   2.744   6.560  15.441 -0.7734 -0.5316  0.3766
11161TIP3    H154974   2.732   6.609  15.360 -1.0126  0.4845  1.0227
11161TIP3    H254975   2.701   6.613  15.508  1.4935 -0.1644  1.5783
11162TIP3   OH254976   0.749   3.196  13.176 -0.3149 -0.1460  0.9534
11162TIP3    H154977   0.786   3.252  13.108  0.0430 -1.3158  0.1683
11162TIP3    H254978   0.689   3.253  13.224 -0.5380  0.7037 -0.3156
11163TIP3   OH254979   3.955   3.962   6.465  0.0616 -0.0836 -0.0970
11163TIP3    H154980   3.892   3.989   6.531  0.7134  1.3044 -0.0259
11163TIP3    H254981   3.975   3.871   6.486 -2.6427 -0.8692 -0.7094
11164TIP3   OH254982   4.459   3.630  12.044 -0.5340  0.0398 -0.1811
11164TIP3    H154983   4.505   3.621  11.960  0.7677 -0.4917  0.5804
11164TIP3    H254984   4.368   3.609  12.023 -0.2361 -0.0456 -1.4698
11165TIP3   OH254985   6.794   5.671  10.231  0.0736  0.2582 -0.7656
11165TIP3    H154986   6.879   5.709  10.250 -0.2860  0.1611  1.2024
11165TIP3    H254987   6.810   5.576  10.229  0.2493  0.3055 -1.7270
11166TIP3   OH254988   6.751   6.600   2.139 -0.4221 -0.1381  0.1819
11166TIP3    H154989   6.789   6.654   2.209 -1.7640  0.1410  0.7166
11166TIP3    H254990   6.757   6.511   2.171  1.5481 -0.3030 -0.5824
11167TIP3   OH254991   1.875   1.749   2.637 -0.2051 -0.0351  0.2184
11167TIP3    H154992   1.953   1.702   2.666 -0.7042  0.8527  3.1619
11167TIP3    H254993   1.893   1.841   2.659 -0.4662  0.7453 -2.7223
11168TIP3   OH254994   0.900   0.981   5.358  0.3555  0.1319 -0.0043
11168TIP3    H154995   0.990   1.004   5.383  1.5378 -1.8863 -2.2235
11168TIP3    H254996   0.879   1.041   5.287 -0.7207  1.7570  1.6593
11169TIP3   OH254997   0.500   0.994  15.450 -0.1511 -0.4021  0.2552
11169TIP3    H154998   0.509   1.045  15.369 -0.7616 -1.0671 -0.2383
11169TIP3    H254999   0.574   0.933  15.448 -0.8040 -1.1979 -0.3869
11170TIP3   OH255000   1.409   1.289  12.123  0.3133  0.1041  0.0141
11170TIP3    H155001   1.477   1.281  12.190  1.6498 -3.4110 -1.6744
11170TIP3    H255002   1.455   1.282  12.040 -2.1109 -2.9294 -1.1726
11171TIP3   OH255003   0.107   3.608  14.159 -0.2981 -0.1510  0.3435
11171TIP3    H155004   0.072   3.540  14.101  0.5810 -0.2047 -0.1255
11171TIP3    H255005   0.185   3.569  14.198  0.6217  0.8345 -0.4737
11172TIP3   OH255006   5.292   6.036   1.888  0.3106 -0.1226 -0.3142
11172TIP3    H155007   5.239   5.956   1.895 -0.4563  0.5461  2.0151
11172TIP3    H255008   5.266   6.089   1.963  2.8496  1.1078 -0.2358
11173TIP3   OH255009   5.923   3.933  13.306 -0.2237 -0.0556 -0.1761
11173TIP3    H155010   5.918   3.843  13.275  1.6727 -0.6928  1.2740
11173TIP3    H255011   5.905   3.927  13.400 -0.5084  1.1485 -0.1351
11174TIP3   OH255012   1.967   1.853   5.588  0.0452  0.4326 -0.4948
11174TIP3    H155013   1.898   1.787   5.577 -0.2035  0.2506  1.8975
11174TIP3    H255014   2.046   1.810   5.557 -0.4930 -0.2112 -0.9961
11175TIP3   OH255015   0.455   5.093   5.487 -0.3931 -0.6721 -0.4683
11175TIP3    H155016   0.373   5.061   5.449 -0.8175 -2.4218  1.7863
11175TIP3    H255017   0.431   5.122   5.575  1.1930 -0.1461 -0.1898
11176TIP3   OH255018   0.678   0.135   0.717  0.5100  0.7848  0.1475
11176TIP3    H155019   0.585   0.109   0.720 -0.1746  3.0141 -1.2324
11176TIP3    H255020   0.725   0.052   0.709 -1.3745 -0.3477  0.4111
11177TIP3   OH255021   3.266   0.087   6.300  0.0886  0.0267  0.1645
11177TIP3    H155022   3.189   0.034   6.319 -0.6938  0.9633 -0.3564
11177TIP3    H255023   3.246   0.173   6.338  0.9041  0.2623  0.0785
11178TIP3   OH255024   1.380   0.215   1.362 -0.0049 -0.5318  0.1365
11178TIP3    H155025   1.315   0.285   1.371  0.5866 -0.2563  2.3834
11178TIP3    H255026   1.463   0.256   1.385  0.5613 -1.5999  0.0187
11179TIP3   OH255027   4.445   1.489   2.376 -0.3624  0.6841 -0.2745
11179TIP3    H155028   4.396   1.464   2.454  0.2564  0.0662 -0.0860
11179TIP3    H255029   4.534   1.505   2.407  0.2324 -0.9697 -1.0762
11180TIP3   OH255030   4.804   4.239  13.968 -0.0103 -0.6555 -0.5541
11180TIP3    H155031   4.893   4.275  13.974 -0.9450  1.7232 -0.7856
11180TIP3    H255032   4.752   4.309  13.930 -2.6776 -0.8447  2.5379
11181TIP3   OH255033   1.088   6.382  16.642  0.3180 -0.1467 -0.3135
11181TIP3    H155034   1.028   6.332  16.697  1.1492 -0.2572  0.4969
11181TIP3    H255035   1.044   6.387  16.557 -0.6072 -0.6567  0.1298
11182TIP3   OH255036   6.134   0.289   2.469  0.2720 -0.0205 -0.5466
11182TIP3    H155037   6.056   0.318   2.517 -0.4596 -0.7440 -1.2710
11182TIP3    H255038   6.200   0.356   2.488 -0.3290  0.2631  0.5906
11183TIP3   OH255039   6.588   5.284  10.846  0.4300 -0.1456  0.1048
11183TIP3    H155040   6.585   5.308  10.939  0.0291  2.0192 -0.4534
11183TIP3    H255041   6.647   5.209  10.843  1.4865  0.5845  1.9371
11184TIP3   OH255042   4.721   4.186  11.281  0.3802 -0.4866  0.1666
11184TIP3    H155043   4.714   4.205  11.188  0.0483  1.4090  0.5600
11184TIP3    H255044   4.741   4.092  11.285  2.2053 -0.2279 -1.8625
11185TIP3   OH255045   3.115   4.084   1.264 -0.0493 -0.4164 -0.0967
11185TIP3    H155046   3.105   4.094   1.170  0.9652  0.3168 -0.1338
11185TIP3    H255047   3.033   4.119   1.301  0.0910  0.5056 -0.6435
11186TIP3   OH255048   6.388   2.569   3.566 -0.0317 -0.3943 -0.7331
11186TIP3    H155049   6.439   2.552   3.488  0.6941  1.5673 -0.7113
11186TIP3    H255050   6.300   2.537   3.545  0.4216 -0.8442 -1.9510
11187TIP3   OH255051   2.804   2.035  17.172  0.0367  0.0708  0.0029
11187TIP3    H155052   2.841   1.993  17.249 -1.5675 -1.0257  0.1875
11187TIP3    H255053   2.841   2.123  17.173 -1.0476  0.5546  2.8320
11188TIP3   OH255054   5.628   3.942   5.389 -0.0833  0.1429  0.9453
11188TIP3    H155055   5.620   4.020   5.443 -1.2304  0.3708  0.4511
11188TIP3    H255056   5.622   3.869   5.452  1.0518  0.4391  1.4096
11189TIP3   OH255057   0.883   6.656  15.288  0.2607 -0.4879  0.5147
11189TIP3    H155058   0.932   6.708  15.224 -1.1746  3.4473  2.3979
11189TIP3    H255059   0.949   6.619  15.346  1.3776 -1.3931 -1.3318
11190TIP3   OH255060   3.896   0.762  13.642  0.0563  0.1434  0.2255
11190TIP3    H155061   3.944   0.845  13.642  1.4772 -0.6721 -0.6995
11190TIP3    H255062   3.950   0.703  13.694 -1.0657 -0.1579  1.0749
11191TIP3   OH255063   4.491   2.894   5.566 -0.2739  0.7815 -0.0557
11191TIP3    H155064   4.436   2.957   5.613 -0.3152 -1.7155  3.4359
11191TIP3    H255065   4.516   2.830   5.632  2.9089 -0.8153 -2.6401
11192TIP3   OH255066   0.069   0.942   1.389  0.3590  1.2259  0.2251
11192TIP3    H155067  -0.008   0.889   1.408  0.6267  0.0458 -1.8510
11192TIP3    H255068   0.041   1.032   1.402 -0.7159  0.6899  1.6859
11193TIP3   OH255069   0.774   6.678   4.628  0.0444  0.6074  1.2464
11193TIP3    H155070   0.705   6.658   4.692  1.5104 -2.6152  1.8924
11193TIP3    H255071   0.855   6.656   4.673  1.5180  3.6399  0.2135
11194TIP3   OH255072   3.159   2.159   4.604 -0.0840  0.0617  0.3055
11194TIP3    H155073   3.140   2.075   4.647 -0.7639 -0.2277 -0.5305
11194TIP3    H255074   3.143   2.225   4.671  1.0824 -0.5171  1.1664
11195TIP3   OH255075   3.295   6.016  15.937  0.8717 -0.2244 -0.1669
11195TIP3    H155076   3.232   5.971  15.994 -1.6343  1.7672 -1.2627
11195TIP3    H255077   3.306   6.102  15.976  2.4412 -0.3384 -0.3431
11196TIP3   OH255078   2.930   0.306  16.521 -0.2984  0.2184 -0.4000
11196TIP3    H155079   2.864   0.351  16.574  0.3244 -1.7584  2.1344
11196TIP3    H255080   2.993   0.272  16.584  1.2728 -0.9529 -2.5280
11197TIP3   OH255081   0.086   2.157  15.472 -0.3495 -0.2916  0.6495
11197TIP3    H155082   0.059   2.149  15.381  0.7860 -0.0298  0.2859
11197TIP3    H255083   0.119   2.070  15.495  1.9552  0.3570 -0.0479
11198TIP3   OH255084   2.681   1.835   2.309 -0.3028 -0.1799 -0.1517
11198TIP3    H155085   2.730   1.789   2.376 -0.2067  2.0011  1.3423
11198TIP3    H255086   2.590   1.811   2.325 -0.1170 -1.0364 -0.3582
11199TIP3   OH255087   5.317   1.407   0.399 -0.0244  0.1289 -0.2028
11199TIP3    H155088   5.378   1.421   0.327 -0.2045  1.2154 -0.1524
11199TIP3    H255089   5.340   1.473   0.464  0.3571 -1.0719  0.8927
11200TIP3   OH255090   6.750   3.113   5.218  0.5775  0.2408 -0.3135
11200TIP3    H155091   6.748   3.134   5.124 -1.8916  0.7299 -0.1856
11200TIP3    H255092   6.687   3.042   5.227  0.9065  0.1135  0.9533
11201TIP3   OH255093   5.051   0.244   3.507  0.2766 -0.3760 -0.1887
11201TIP3    H155094   5.045   0.156   3.544  0.7274 -0.4945 -0.3950
11201TIP3    H255095   4.961   0.277   3.508  0.4414  0.0467  2.0594
11202TIP3   OH255096   0.930   1.902   3.777 -0.4080 -0.2034  0.2925
11202TIP3    H155097   0.971   1.989   3.772  1.4389 -1.0635  0.0165
11202TIP3    H255098   0.883   1.903   3.860 -1.7509  1.6249 -0.4520
11203TIP3   OH255099   0.764   1.220   2.134  0.1683  0.3774 -0.8793
11203TIP3    H155100   0.687   1.275   2.151 -0.7237 -0.1867 -2.8945
11203TIP3    H255101   0.740   1.134   2.168  0.0484  0.2945 -1.1711
11204TIP3   OH255102   6.463   3.249  16.578 -0.6990  0.2365 -0.1304
11204TIP3    H155103   6.555   3.253  16.606 -0.7289  1.0319 -0.1308
11204TIP3    H255104   6.413   3.269  16.658 -0.9830 -3.0623  0.5633
11205TIP3   OH255105   6.773   4.438  10.691  0.0073  0.0039 -0.0615
11205TIP3    H155106   6.689   4.393  10.684 -0.6132  1.3634 -1.8007
11205TIP3    H255107   6.837   4.373  10.660 -0.7457 -0.0835 -1.4739
11206TIP3   OH255108   2.090   5.564   4.887 -0.6121 -0.6920  0.4663
11206TIP3    H155109   2.089   5.604   4.801 -0.7523 -0.4729  0.5715
11206TIP3    H255110   2.060   5.474   4.872  0.2716 -0.9442  0.1420
11207TIP3   OH255111   5.851   3.105  13.721 -0.5612 -0.2938  0.0177
11207TIP3    H155112   5.910   3.030  13.731 -1.0196 -0.5392  0.9706
11207TIP3    H255113   5.765   3.066  13.708 -0.9067  0.0558  1.1818
11208TIP3   OH255114   4.745   5.329   2.628  0.2524  0.5170  0.1433
11208TIP3    H155115   4.665   5.382   2.634 -2.1660 -2.7747 -0.9351
11208TIP3    H255116   4.742   5.272   2.704  1.5682  0.3428  0.0745
11209TIP3   OH255117   2.781   0.984  10.352  0.0172  0.0430 -0.2507
11209TIP3    H155118   2.807   0.955  10.439 -0.7978 -2.2420 -0.7227
11209TIP3    H255119   2.858   1.030  10.318  1.0284 -0.7220  0.9578
11210TIP3   OH255120   1.238   4.872  12.576 -0.0838  0.7007 -0.0440
11210TIP3    H155121   1.199   4.831  12.498 -0.3682  0.9782 -0.0486
11210TIP3    H255122   1.201   4.960  12.578 -0.3062  0.5972  0.5676
11211TIP3   OH255123   2.156   2.403   2.863  0.8997  0.0418  0.0612
11211TIP3    H155124   2.150   2.320   2.910 -2.8960 -0.0325 -0.4233
11211TIP3    H255125   2.239   2.397   2.815  2.1785 -2.1281  2.4308
11212TIP3   OH255126   5.952   3.681  12.590 -0.5188  0.2233 -0.1218
11212TIP3    H155127   5.964   3.639  12.675 -0.5095  0.4849  0.0076
11212TIP3    H255128   5.868   3.726  12.597 -0.5004  0.2757 -0.2361
11213TIP3   OH255129   4.622   3.902   1.088  0.0510 -0.0844 -0.3291
11213TIP3    H155130   4.685   3.863   1.027  0.1900 -1.5691  0.7426
11213TIP3    H255131   4.547   3.843   1.085 -0.3583  0.4151  0.1510
11214TIP3   OH255132   1.952   5.503  14.511  0.3200  0.2164 -0.0528
11214TIP3    H155133   2.047   5.513  14.520  0.0777  1.3397  1.3450
11214TIP3    H255134   1.922   5.586  14.475 -0.1202 -0.2349 -0.7533
11215TIP3   OH255135   3.708   6.410  17.016 -0.1957  0.0341 -0.7200
11215TIP3    H155136   3.686   6.347  16.947  0.3851  0.8743 -1.6966
11215TIP3    H255137   3.693   6.495  16.976 -0.0662  0.5339  0.2807
11216TIP3   OH255138   6.282   4.004  16.700  0.1810  0.0894 -0.2359
11216TIP3    H155139   6.374   3.978  16.705  0.2934  0.6560  0.7555
11216TIP3    H255140   6.275   4.080  16.758 -0.8360  0.2715 -0.5779
11217TIP3   OH255141   2.603   1.001   3.116  0.3946  0.5559 -0.4787
11217TIP3    H155142   2.515   0.980   3.147  0.0984  1.9185 -0.3674
11217TIP3    H255143   2.645   1.043   3.191  0.8149  0.7700 -0.8323
11218TIP3   OH255144   6.066   2.263   5.367 -0.2767  0.4717  0.3078
11218TIP3    H155145   6.155   2.239   5.393 -0.5614 -0.0661  0.8012
11218TIP3    H255146   6.050   2.212   5.288 -0.7074 -0.6238  1.0891
11219TIP3   OH255147   5.526   2.789   3.481 -0.5520  0.1874  0.0004
11219TIP3    H155148   5.556   2.784   3.390  1.1341 -2.2712  0.6412
11219TIP3    H255149   5.584   2.854   3.521 -0.1482  0.0117 -0.2831
11220TIP3   OH255150   1.526   1.258  10.701  1.0923  0.4639  0.2492
11220TIP3    H155151   1.503   1.325  10.636 -0.2207  0.1308  0.3621
11220TIP3    H255152   1.475   1.281  10.779 -0.1638 -1.2378 -0.0403
11221TIP3   OH255153   2.624   4.733   5.627 -0.3041  0.4927  0.1815
11221TIP3    H155154   2.635   4.679   5.705  1.1732 -0.0234 -0.3704
11221TIP3    H255155   2.701   4.714   5.574 -1.2501  0.9157 -1.3613
11222TIP3   OH255156   1.837   0.804   1.225 -0.2198 -0.4388 -0.1661
11222TIP3    H155157   1.929   0.783   1.239 -0.3365 -0.4199  0.6672
11222TIP3    H255158   1.829   0.815   1.130  0.7476  0.0956 -0.1943
11223TIP3   OH255159   4.765   0.949  16.909  0.4515 -0.8654 -0.4362
11223TIP3    H155160   4.855   0.980  16.900  0.1354 -0.0457 -0.8065
11223TIP3    H255161   4.729   0.952  16.821 -0.3238  0.0097 -0.1011
11224TIP3   OH255162   3.948   2.541  17.116 -0.3118  0.0893  0.0061
11224TIP3    H155163   4.016   2.608  17.125  2.3437 -2.5499  0.3447
11224TIP3    H255164   3.910   2.556  17.030  1.0666  1.2683 -0.4156
11225TIP3   OH255165   5.427   4.675   1.629  0.1397  0.3435 -1.0184
11225TIP3    H155166   5.392   4.622   1.557 -0.0435 -0.9238 -0.0129
11225TIP3    H255167   5.517   4.643   1.640 -0.2103 -0.2872  0.0777
11226TIP3   OH255168   4.542   3.190   2.989 -0.2044  0.6812  0.4458
11226TIP3    H155169   4.527   3.109   3.037 -1.1280 -0.2536 -1.3608
11226TIP3    H255170   4.621   3.227   3.027  0.4745 -1.2981  0.9816
11227TIP3   OH255171   4.606   2.135   3.525 -0.0137  0.0553  0.1878
11227TIP3    H155172   4.693   2.113   3.491  0.8384  0.1231  2.2326
11227TIP3    H255173   4.558   2.170   3.449  2.1282  1.1227 -0.7182
11228TIP3   OH255174   2.317   0.071  12.223  0.7572 -0.0417  0.1110
11228TIP3    H155175   2.377   0.059  12.296  0.7782  0.5949  0.2004
11228TIP3    H255176   2.302   0.166  12.220 -0.8359 -0.2623  0.5815
11229TIP3   OH255177   4.409   0.879   2.531  0.2417 -0.4052  0.7464
11229TIP3    H155178   4.446   0.821   2.464 -1.5045 -0.9775  0.2654
11229TIP3    H255179   4.321   0.845   2.547 -0.3470  1.3583  1.3734
11230TIP3   OH255180   4.411   1.553   1.095  0.5640 -0.5337 -0.5200
11230TIP3    H155181   4.345   1.484   1.091  0.2680 -0.2616 -0.3690
11230TIP3    H255182   4.475   1.522   1.160  0.2388 -0.4994 -0.1811
11231TIP3   OH255183   4.527   0.166  14.710 -0.0234 -0.1722  0.5570
11231TIP3    H155184   4.451   0.173  14.651 -1.1483  0.0242  2.0109
11231TIP3    H255185   4.601   0.150  14.651 -1.4464 -2.1483 -0.7900
11232TIP3   OH255186   3.208   6.174   2.088  0.2325  0.1954  0.2429
11232TIP3    H155187   3.219   6.139   2.177 -0.5816 -1.5094 -0.2942
11232TIP3    H255188   3.133   6.233   2.095  1.8151  2.1316  1.2341
11233TIP3   OH255189   5.996   1.053   5.335  0.0177  0.2385  0.4482
11233TIP3    H155190   6.075   1.000   5.344  0.0975  0.1107 -0.8901
11233TIP3    H255191   6.013   1.109   5.259 -1.9319 -1.1332 -1.0379
11234TIP3   OH255192   1.600   6.663   4.419 -0.0325 -0.1080 -0.1105
11234TIP3    H155193   1.616   6.734   4.356 -1.9797 -0.1747 -0.7029
11234TIP3    H255194   1.620   6.702   4.504 -1.0371  1.1720 -0.4339
11235TIP3   OH255195   4.273   3.584  13.407 -0.1024  0.1487  0.5910
11235TIP3    H155196   4.268   3.488  13.412  2.5837 -0.0595 -0.0046
11235TIP3    H255197   4.191   3.610  13.366 -1.8860 -1.7029  2.7915
11236TIP3   OH255198   4.591   1.681  14.298  0.1964 -0.0374  0.2172
11236TIP3    H155199   4.547   1.760  14.329 -0.8618 -0.2366 -0.7164
11236TIP3    H255200   4.592   1.623  14.373  0.9694  0.8489  0.9057
11237TIP3   OH255201   6.688   0.937  16.182  0.0826 -0.1796  0.3877
11237TIP3    H155202   6.617   0.950  16.120  0.6066 -0.6651 -0.3179
11237TIP3    H255203   6.679   0.845  16.209 -0.4211  0.1534  1.3853
11238TIP3   OH255204   4.203   2.230  16.227  0.2142  0.1101 -0.0104
11238TIP3    H155205   4.173   2.313  16.191  0.0476  0.2160  0.3733
11238TIP3    H255206   4.198   2.241  16.322 -0.4787 -0.5773  0.0438
11239TIP3   OH255207   4.443   4.918   2.168  0.0613 -0.0570  0.1348
11239TIP3    H155208   4.437   4.870   2.086  0.5364  1.8337 -1.0480
11239TIP3    H255209   4.392   4.998   2.153  1.0721  0.8291  1.2623
11240TIP3   OH255210   5.744   0.279  14.295 -0.4842  0.2774  0.1790
11240TIP3    H155211   5.783   0.278  14.383  0.7731  0.3951 -0.3622
11240TIP3    H255212   5.685   0.354  14.296  0.1910  0.8134  0.6567
11241TIP3   OH255213   3.419   6.332   0.678 -0.1479 -0.3226  0.9456
11241TIP3    H155214   3.428   6.302   0.768  0.2917  1.2396  1.4426
11241TIP3    H255215   3.407   6.427   0.685  0.0013 -0.1657 -0.6425
11242TIP3   OH255216   6.406   5.954  14.791  0.5904  0.2779 -0.3750
11242TIP3    H155217   6.333   5.948  14.730 -0.2134  0.7448  0.5340
11242TIP3    H255218   6.468   6.013  14.747 -0.3764  1.3329 -0.3501
11243TIP3   OH255219   6.142   5.586   3.581  0.1999 -0.1192 -0.0483
11243TIP3    H155220   6.204   5.621   3.644  0.4715 -2.7804  1.2033
11243TIP3    H255221   6.193   5.525   3.528 -0.9314 -0.9453 -0.1973
11244TIP3   OH255222   2.674   3.584  15.555 -0.5937 -0.4329 -0.2080
11244TIP3    H155223   2.594   3.599  15.605 -0.3507 -0.1411  0.0885
11244TIP3    H255224   2.744   3.613  15.612 -0.2327 -1.2193 -0.2424
11245TIP3   OH255225   6.787   4.385   0.980 -0.2933  0.0611  0.5005
11245TIP3    H155226   6.794   4.294   0.951 -0.1012  0.6980 -1.4864
11245TIP3    H255227   6.727   4.382   1.055 -1.1013 -1.5416 -0.1959
11246TIP3   OH255228   1.147   1.095   5.408  0.4163 -0.0549 -0.0154
11246TIP3    H155229   1.205   1.141   5.469  1.1419 -2.0440  0.8277
11246TIP3    H255230   1.174   1.125   5.321  1.2131  0.6969  0.4823
11247TIP3   OH255231   1.068   5.846  16.383 -0.3490 -0.4993 -0.3840
11247TIP3    H155232   1.057   5.768  16.329 -0.1694  0.1671 -1.3894
11247TIP3    H255233   0.979   5.872  16.406 -0.5861  0.9042 -2.7925
11248TIP3   OH255234   4.424   4.180   2.377 -0.5503  0.0622  0.3474
11248TIP3    H155235   4.347   4.230   2.350 -0.8544  1.2436  3.2396
11248TIP3    H255236   4.419   4.178   2.473  2.5657 -0.6002  0.5472
11249TIP3   OH255237   1.417   5.517  12.914 -0.5115 -0.0048  0.0756
11249TIP3    H155238   1.417   5.435  12.963 -1.8597 -1.2588 -1.9157
11249TIP3    H255239   1.498   5.514  12.863 -0.9865 -0.5297 -0.6573
11250TIP3   OH255240   4.908   1.620  15.853  0.3995  0.3112 -0.1186
11250TIP3    H155241   5.002   1.638  15.851  0.3493  0.6213  0.2968
11250TIP3    H255242   4.897   1.542  15.800  0.9993 -0.2249  0.5491
11251TIP3   OH255243   0.220   1.272  16.337  0.0403  0.4194  0.0063
11251TIP3    H155244   0.183   1.186  16.318 -1.6571  0.5803  2.2944
11251TIP3    H255245   0.228   1.314  16.251  0.0832 -1.6936 -1.0513
11252TIP3   OH255246   3.614   0.260   0.773  0.6463  0.2205  0.0145
11252TIP3    H155247   3.572   0.345   0.785 -0.7759 -0.4557 -0.0252
11252TIP3    H255248   3.582   0.206   0.845  1.7681 -0.1987  0.2117
11253TIP3   OH255249   0.199   0.715  12.521 -0.3957 -0.1999 -0.3198
11253TIP3    H155250   0.143   0.648  12.480 -1.6623  1.2081 -0.9413
11253TIP3    H255251   0.237   0.670  12.596 -2.0785 -1.3382 -0.0953
11254TIP3   OH255252   2.390   3.157  17.215 -0.6176 -0.0727 -0.4611
11254TIP3    H155253   2.326   3.149  17.286  1.0873 -2.1392  0.9205
11254TIP3    H255254   2.356   3.100  17.146 -0.4889 -0.8646  0.1177
11255TIP3   OH255255   3.966   5.377   4.764 -0.0806  0.0881  0.4781
11255TIP3    H155256   4.006   5.430   4.833  1.5042  0.1471 -0.4476
11255TIP3    H255257   3.924   5.441   4.707  2.1903  0.4420 -0.8679
11256TIP3   OH255258   2.501   6.626   0.062 -0.1748 -0.3990  0.4727
11256TIP3    H155259   2.473   6.647   0.151  0.3995  2.2834  0.0622
11256TIP3    H255260   2.444   6.678   0.006  1.0111 -0.2659 -0.6362
11257TIP3   OH255261   5.664   1.029  16.950 -0.1371 -0.4277  0.6501
11257TIP3    H155262   5.677   1.038  17.045  0.4267 -2.6809  0.8026
11257TIP3    H255263   5.736   0.973  16.921 -0.3742  0.1587 -1.1146
11258TIP3   OH255264   1.817   4.575   3.789  0.0398  0.2709  0.6776
11258TIP3    H155265   1.906   4.555   3.816 -0.1480 -1.9374 -0.1717
11258TIP3    H255266   1.762   4.527   3.852 -0.4260 -2.7600 -1.8944
11259TIP3   OH255267   4.669   5.397   4.244 -0.0370  0.4606  0.5964
11259TIP3    H155268   4.631   5.485   4.249  2.1567  1.4130  1.4627
11259TIP3    H255269   4.699   5.379   4.333  1.9043 -0.0460 -0.1384
11260TIP3   OH255270   4.805   1.239   0.075  0.7677 -0.4540 -0.1162
11260TIP3    H155271   4.824   1.205   0.162 -1.4114  0.6469  0.8242
11260TIP3    H255272   4.816   1.164   0.017 -0.1469 -1.8047  1.4142
11261TIP3   OH255273   3.794   5.237  13.897 -0.0851  0.2742 -0.1852
11261TIP3    H155274   3.850   5.160  13.908 -1.0013 -0.3487  0.1588
11261TIP3    H255275   3.825   5.278  13.816 -0.2517 -1.0067 -0.9113
11262TIP3   OH255276   4.802   0.054   1.669  0.5985  0.1612 -0.5995
11262TIP3    H155277   4.758  -0.028   1.646  0.9465 -0.4239  0.7656
11262TIP3    H255278   4.875   0.028   1.724  1.2023  1.3338 -0.8272
11263TIP3   OH255279   0.442   0.436   0.596  0.0338 -0.4292  0.2104
11263TIP3    H155280   0.350   0.464   0.594  0.9670  2.7793 -1.3932
11263TIP3    H255281   0.473   0.459   0.683 -0.9363 -2.6309  1.1911
11264TIP3   OH255282   6.690   0.112  11.045  0.0075  0.1003  0.2828
11264TIP3    H155283   6.650   0.169  10.980 -0.3740  0.2480  0.6467
11264TIP3    H255284   6.696   0.027  11.001 -2.0344 -0.2860  0.7172
11265TIP3   OH255285   5.777   6.574  16.184 -0.3683  0.7072 -0.0877
11265TIP3    H155286   5.695   6.607  16.219 -0.2637  0.0083  0.8309
11265TIP3    H255287   5.845   6.622  16.232 -0.2194 -0.6109  1.0562
11266TIP3   OH255288   2.009   2.645  13.379 -0.7900  0.6338  0.1957
11266TIP3    H155289   2.025   2.736  13.406  0.6637  0.5406 -0.2866
11266TIP3    H255290   1.994   2.650  13.285 -0.4711  0.3436  0.1298
11267TIP3   OH255291   0.667   0.268  16.005  0.6309 -0.0054 -0.1798
11267TIP3    H155292   0.601   0.273  16.074  1.5972  1.8795  0.6638
11267TIP3    H255293   0.627   0.314  15.931  0.9790  1.1873  0.3490
11268TIP3   OH255294   4.594   3.905   3.710 -0.1761 -0.3917  0.0848
11268TIP3    H155295   4.646   3.907   3.790 -1.4104  1.3351  0.8894
11268TIP3    H255296   4.570   3.997   3.695 -1.4608 -0.9199 -1.2541
11269TIP3   OH255297   6.782   3.412  13.681  0.1207 -0.6159 -0.2180
11269TIP3    H155298   6.691   3.440  13.692  0.4524  0.2012  0.5564
11269TIP3    H255299   6.782   3.320  13.708 -0.6594 -0.9085 -1.1722
11270TIP3   OH255300   3.321   2.496   3.349 -0.7440  0.8866 -0.0101
11270TIP3    H155301   3.359   2.511   3.263 -0.7667 -0.3593 -0.2402
11270TIP3    H255302   3.230   2.526   3.341 -1.0693 -0.2873 -0.7513
11271TIP3   OH255303   3.954   5.686   1.874  0.0695 -0.2532  0.7031
11271TIP3    H155304   3.957   5.599   1.836  3.5146  0.4534 -0.8924
11271TIP3    H255305   4.005   5.679   1.955  1.3615  0.4585 -0.0117
11272TIP3   OH255306   1.383   5.547   0.178 -0.0678  0.3445  0.2001
11272TIP3    H155307   1.369   5.576   0.087  1.6408 -1.0805 -0.5503
11272TIP3    H255308   1.299   5.510   0.204 -0.4840  0.4685 -0.9098
11273TIP3   OH255309   5.656   5.761   2.213 -0.7567 -0.2723 -0.0565
11273TIP3    H155310   5.641   5.714   2.295 -0.1532 -0.2707  0.0607
11273TIP3    H255311   5.689   5.695   2.152 -0.4012 -0.1097 -0.0450
11274TIP3   OH255312   4.541   4.239   1.359 -0.1943  0.0304 -0.1784
11274TIP3    H155313   4.565   4.295   1.286  2.1167  1.9853  1.9963
11274TIP3    H255314   4.445   4.235   1.355 -0.4546  4.2250 -0.3959
11275TIP3   OH255315   2.315   1.057   6.202 -0.5656  0.4946  0.1177
11275TIP3    H155316   2.396   1.108   6.193 -0.6674  0.7759  0.8228
11275TIP3    H255317   2.272   1.093   6.279 -1.1525  0.0442  0.0016
11276TIP3   OH255318   4.747   1.346  17.045  0.6719  0.1993  0.1578
11276TIP3    H155319   4.827   1.393  17.023  1.1116 -1.3640 -1.7259
11276TIP3    H255320   4.776   1.266  17.087  0.0108  0.5602  1.3269
11277TIP3   OH255321   4.426   5.829  15.751  0.0168 -0.3008  0.0119
11277TIP3    H155322   4.415   5.777  15.830  1.2724 -1.1815 -0.3674
11277TIP3    H255323   4.489   5.780  15.699  0.9870  1.4282 -0.4999
11278TIP3   OH255324   2.913   2.186   2.339 -0.4264 -0.0110 -0.0787
11278TIP3    H155325   2.892   2.128   2.412  0.0454  0.2137  0.2417
11278TIP3    H255326   2.883   2.139   2.261  1.4370 -1.4492  0.0175
11279TIP3   OH255327   2.393   2.723   2.840 -0.2853 -0.6023  0.3842
11279TIP3    H155328   2.391   2.818   2.824  0.4593 -0.7753 -0.8489
11279TIP3    H255329   2.394   2.715   2.935  0.9317  0.6829  0.5102
11280TIP3   OH255330   1.351   2.750  13.199  0.2521  0.2000 -0.1925
11280TIP3    H155331   1.334   2.755  13.293 -0.3497  0.8323 -0.3316
11280TIP3    H255332   1.416   2.819  13.183 -0.2710  0.6552 -0.3759
11281TIP3   OH255333   1.605   0.077   3.138  0.2230  0.1796  0.3532
11281TIP3    H155334   1.696   0.065   3.111 -0.2833 -2.4022 -0.3539
11281TIP3    H255335   1.571   0.146   3.082  1.5369  0.6170  0.0961
11282TIP3   OH255336   0.423   2.037   3.204 -0.2808 -0.0731 -0.1226
11282TIP3    H155337   0.475   1.965   3.169  1.0832  0.4682  0.7531
11282TIP3    H255338   0.464   2.058   3.288 -3.2140 -1.0284  1.6056
11283TIP3   OH255339   6.016   5.226  15.722 -0.3369 -0.0994 -0.3892
11283TIP3    H155340   5.945   5.250  15.781  0.0950 -1.7030  0.8108
11283TIP3    H255341   6.095   5.230  15.776  0.2078 -0.5159 -1.1339
11284TIP3   OH255342   5.133   2.975   0.732  0.5770  0.4729 -0.2459
11284TIP3    H155343   5.073   3.044   0.703  1.9055  2.4924  1.6431
11284TIP3    H255344   5.163   3.004   0.818 -0.2429 -3.3778  1.4471
11285TIP3   OH255345   5.360   0.020  12.883  0.0267 -0.3346  0.3676
11285TIP3    H155346   5.384  -0.046  12.817 -1.4669  1.1249 -1.7184
11285TIP3    H255347   5.300  -0.026  12.942 -0.9380 -0.8944 -1.0206
11286TIP3   OH255348   2.283   2.234  11.766 -0.4560  0.0990  0.3255
11286TIP3    H155349   2.192   2.246  11.793 -0.5617 -0.6890  0.3500
11286TIP3    H255350   2.333   2.291  11.824 -1.0310  1.4289 -0.4636
11287TIP3   OH255351   6.559   3.700   0.819  0.3656 -0.2884 -0.0967
11287TIP3    H155352   6.484   3.719   0.874  1.4710 -0.2868  1.4367
11287TIP3    H255353   6.630   3.680   0.880  1.2377 -1.7593 -1.5206
11288TIP3   OH255354   6.167   6.480   3.324 -0.3909  0.4301  0.5846
11288TIP3    H155355   6.097   6.473   3.260  0.0568  0.7313  0.0543
11288TIP3    H255356   6.243   6.439   3.281 -0.3641 -0.3043  1.3292
11289TIP3   OH255357   3.979   0.330  13.403  0.4287 -0.2865 -0.1724
11289TIP3    H155358   4.063   0.315  13.360 -0.0916  0.5315 -1.5110
11289TIP3    H255359   3.986   0.284  13.487  2.2597 -0.1030 -0.2060
11290TIP3   OH255360   2.843   5.949   2.163  0.3955  0.0181 -0.2944
11290TIP3    H155361   2.898   5.937   2.240 -1.4612  0.4197  1.1324
11290TIP3    H255362   2.793   5.868   2.156  0.3697  0.0845 -0.9010
11291TIP3   OH255363   6.152   4.733  16.224  0.1464  0.4703  0.2236
11291TIP3    H155364   6.193   4.657  16.266  0.1374 -1.4176 -2.9885
11291TIP3    H255365   6.225   4.779  16.183 -0.0586  1.2825  0.7711
11292TIP3   OH255366   5.391   5.008  13.064  0.0578 -0.8454 -0.1463
11292TIP3    H155367   5.424   5.094  13.090  0.8056 -0.6025 -1.8515
11292TIP3    H255368   5.342   4.977  13.140 -2.0599  2.0194 -0.2843
11293TIP3   OH255369   3.834   1.818   0.635  0.3477  0.2850  0.3581
11293TIP3    H155370   3.867   1.790   0.720  1.1712 -0.4592 -0.1950
11293TIP3    H255371   3.910   1.814   0.577  0.0654  1.9709 -0.1423
11294TIP3   OH255372   1.866   1.132   3.654 -0.2169 -0.3340 -0.2935
11294TIP3    H155373   1.938   1.093   3.705 -0.5633 -0.1805  0.3094
11294TIP3    H255374   1.791   1.129   3.712 -0.6064 -0.1147 -0.7841
11295TIP3   OH255375   1.969   3.896  15.886  0.2361 -0.2770 -0.3382
11295TIP3    H155376   1.899   3.955  15.913 -0.4921 -0.2449 -2.2179
11295TIP3    H255377   2.021   3.883  15.966 -1.4453  0.3144  0.9032
11296TIP3   OH255378   4.469   1.310  15.462  0.0794  0.3746  0.6599
11296TIP3    H155379   4.451   1.229  15.510 -0.7334  0.3323  0.2942
11296TIP3    H255380   4.409   1.307  15.387  1.1274  0.5659 -0.2053
11297TIP3   OH255381   0.639   4.543  15.681  0.7070 -0.3798 -0.3285
11297TIP3    H155382   0.611   4.528  15.591  0.9493  0.3548 -0.5274
11297TIP3    H255383   0.682   4.628  15.679  0.8672 -0.4385  0.4504
11298TIP3   OH255384   1.791   3.493  15.828 -0.1766 -0.1937 -0.1314
11298TIP3    H155385   1.846   3.429  15.873  1.5680  1.6987  0.4978
11298TIP3    H255386   1.733   3.527  15.896 -1.1606 -1.1346 -0.4826
11299TIP3   OH255387   1.045   2.277   3.031 -0.6897  0.3644  0.2828
11299TIP3    H155388   1.136   2.303   3.041 -0.7057  0.4352  0.2497
11299TIP3    H255389   0.998   2.332   3.093 -0.4786 -1.0783  1.7410
11300TIP3   OH255390   3.643   6.661   6.288 -0.7318 -0.4012 -0.6170
11300TIP3    H155391   3.556   6.626   6.310 -0.7997  0.6205  0.7737
11300TIP3    H255392   3.704   6.594   6.319 -0.8588  0.6754  2.1396
11301TIP3   OH255393   1.368   0.624  17.209  0.4072  0.0127 -0.1130
11301TIP3    H155394   1.360   0.685  17.282  2.2481  1.3164 -0.9452
11301TIP3    H255395   1.295   0.646  17.151 -1.0146 -0.9773  1.2469
11302TIP3   OH255396   0.943   0.316  15.938  0.3602 -0.1918 -0.2755
11302TIP3    H155397   0.917   0.307  15.847  0.3638  2.3044 -0.5678
11302TIP3    H255398   0.864   0.297  15.988 -0.2585  0.7226 -0.8988
11303TIP3   OH255399   3.155   0.024  15.708  0.0883  0.5316  0.1936
11303TIP3    H155400   3.216  -0.031  15.659 -2.8312 -0.7066 -2.1801
11303TIP3    H255401   3.141  -0.022  15.790 -1.5671 -1.8733 -1.3715
11304TIP3   OH255402   3.313   6.005   3.241  0.0078  0.2327  0.5710
11304TIP3    H155403   3.359   5.990   3.158 -0.2947 -0.6147  0.5416
11304TIP3    H255404   3.314   6.100   3.253  1.4383  0.2533  0.3993
11305TIP3   OH255405   5.453   1.281   0.665 -0.1409  0.2882 -0.0428
11305TIP3    H155406   5.447   1.245   0.754 -0.5992  1.1098  0.2673
11305TIP3    H255407   5.533   1.334   0.666 -0.2786  0.4981 -0.0423
11306TIP3   OH255408   3.571   1.818  16.575  0.0162 -0.5189  0.1211
11306TIP3    H155409   3.613   1.741  16.537  1.6965  1.0987 -1.3795
11306TIP3    H255410   3.614   1.829  16.660 -0.0355 -1.0601  0.2234
11307TIP3   OH255411   3.104   3.304  16.915  0.5487  0.0707  0.0988
11307TIP3    H155412   3.017   3.264  16.913  0.2741  0.6450  0.5874
11307TIP3    H255413   3.092   3.391  16.876  1.1968 -0.3978 -1.1820
11308TIP3   OH255414   5.495   6.019  11.560  0.3688  0.3360  0.2274
11308TIP3    H155415   5.489   5.970  11.478 -1.4732 -0.5365  0.8534
11308TIP3    H255416   5.589   6.037  11.570  0.7498 -0.5383 -1.4732
11309TIP3   OH255417   3.288   2.622  16.036 -1.0454 -0.3373 -0.2502
11309TIP3    H155418   3.221   2.576  15.986  0.4628  0.5713 -3.1778
11309TIP3    H255419   3.301   2.704  15.990  1.4824 -0.1254  0.7601
11310TIP3   OH255420   0.791   3.291   2.373  0.3408  0.4379  0.4916
11310TIP3    H155421   0.832   3.366   2.417  0.5156  1.5040 -1.4375
11310TIP3    H255422   0.826   3.293   2.284  0.1729 -1.8222  0.3349
11311TIP3   OH255423   2.948   3.463  17.221  0.0221  0.4002  0.1074
11311TIP3    H155424   2.902   3.512  17.153 -0.6583  0.1181  0.3625
11311TIP3    H255425   2.888   3.463  17.295  0.0080 -0.8415  0.0985
11312TIP3   OH255426   5.283   1.311  16.836 -0.1421  0.4767  0.1868
11312TIP3    H155427   5.276   1.227  16.882 -0.7806  0.6711  0.4624
11312TIP3    H255428   5.375   1.320  16.815 -0.0843 -0.3338  0.0939
11313TIP3   OH255429   5.099   0.457   2.406 -0.2001  0.2618  0.2794
11313TIP3    H155430   5.170   0.428   2.348 -1.2117 -0.0805 -0.7941
11313TIP3    H255431   5.144   0.488   2.485  1.0675 -1.3343  0.2043
11314TIP3   OH255432   5.395   5.722   3.396 -0.2226 -0.2923  0.2470
11314TIP3    H155433   5.319   5.677   3.433 -1.4582  0.8129 -0.8923
11314TIP3    H255434   5.384   5.713   3.301  1.7313 -1.1640  0.0749
11315TIP3   OH255435   1.723   3.703   4.421  0.4613 -0.2284 -0.7841
11315TIP3    H155436   1.711   3.624   4.474  1.9339  0.2699  0.3366
11315TIP3    H255437   1.659   3.695   4.351 -0.2828 -1.7954  0.0493
11316TIP3   OH255438   2.737   6.651  13.154 -0.1880 -0.1335 -0.2564
11316TIP3    H155439   2.755   6.734  13.110  1.5132  0.3284  1.2297
11316TIP3    H255440   2.700   6.675  13.238  0.5081 -0.8489  0.2715
11317TIP3   OH255441   3.686   1.282  13.136 -0.6341 -0.0874 -0.0409
11317TIP3    H155442   3.686   1.216  13.066  2.0865  0.5750 -0.7275
11317TIP3    H255443   3.750   1.251  13.199 -0.8158  0.8897  0.6483
11318TIP3   OH255444   0.181   4.802   5.695  0.5672 -0.1341  0.1117
11318TIP3    H155445   0.217   4.843   5.774  1.4859  0.4843 -0.6164
11318TIP3    H255446   0.188   4.870   5.627  1.6104 -1.3094 -0.9860
11319TIP3   OH255447   0.194   2.554  17.279 -0.6028  0.3061 -0.2167
11319TIP3    H155448   0.186   2.486  17.213  3.0560  0.0452 -0.4985
11319TIP3    H255449   0.164   2.513  17.361  1.1146 -1.4957 -0.4696
11320TIP3   OH255450   1.353   6.500  13.244  0.0593  0.1811  0.0706
11320TIP3    H155451   1.389   6.563  13.306  2.0142  0.2165 -1.0300
11320TIP3    H255452   1.278   6.545  13.204 -0.6820  0.4733  1.7616
11321TIP3   OH255453   4.404   5.802  14.648  0.8386  0.5430 -0.1471
11321TIP3    H155454   4.407   5.898  14.654 -1.3011  0.6425 -0.0446
11321TIP3    H255455   4.365   5.785  14.563 -0.9175 -0.1613  0.7682
11322TIP3   OH255456   0.568   3.750  12.154  0.2082  0.2974 -0.2708
11322TIP3    H155457   0.553   3.710  12.240  0.2666  2.6396  0.8798
11322TIP3    H255458   0.515   3.699  12.093 -1.6533  0.0143  1.5453
11323TIP3   OH255459   1.023   6.502   4.690 -0.3998 -0.3093  0.0891
11323TIP3    H155460   0.991   6.412   4.685 -0.6603 -0.2371  0.4165
11323TIP3    H255461   1.084   6.502   4.764  0.0125 -0.3432 -0.2511
11324TIP3   OH255462   4.944   1.155  14.644 -0.3405  0.2623  0.5959
11324TIP3    H155463   4.945   1.066  14.609  2.0029 -0.0503  1.3520
11324TIP3    H255464   4.889   1.204  14.584 -2.0105 -1.7928  0.4205
11325TIP3   OH255465   2.015   1.544  15.194 -0.8142  0.3326  0.1634
11325TIP3    H155466   2.004   1.460  15.149 -0.3872  0.4193 -0.1085
11325TIP3    H255467   2.064   1.522  15.273 -0.2197  0.4088 -0.1845
11326TIP3   OH255468   5.335   1.622   1.647  0.1315 -0.9386 -0.3936
11326TIP3    H155469   5.336   1.527   1.654 -1.5344 -0.9881 -0.7092
11326TIP3    H255470   5.258   1.649   1.696 -0.6063  0.1046 -2.0867
11327TIP3   OH255471   4.105   4.692   1.900  0.0054 -0.0698  0.1003
11327TIP3    H155472   4.034   4.751   1.874  0.2579  0.8110  1.3853
11327TIP3    H255473   4.067   4.637   1.968  0.5754  0.4982  0.8937
11328TIP3   OH255474   6.764   6.017  16.916 -0.3952 -0.3549  0.4648
11328TIP3    H155475   6.672   5.990  16.913  0.0508 -1.7482 -3.4727
11328TIP3    H255476   6.787   6.034  16.825  2.9265  1.2687  1.5245
11329TIP3   OH255477   5.016   4.836  10.898  0.1130 -1.0919  0.0183
11329TIP3    H155478   5.045   4.804  10.984 -0.4166 -2.6787 -0.3645
11329TIP3    H255479   4.925   4.807  10.892 -0.1061 -0.2426 -0.7237
11330TIP3   OH255480   3.942   1.554  13.859  0.1469 -0.3595 -0.1092
11330TIP3    H155481   4.004   1.605  13.912 -2.9158  1.4244  1.8880
11330TIP3    H255482   3.877   1.522  13.922 -1.9999 -0.6199 -2.3925
11331TIP3   OH255483   2.124   5.510   3.766 -0.5210 -0.0973 -0.0018
11331TIP3    H155484   2.206   5.464   3.785  0.1041  1.1761  0.4499
11331TIP3    H255485   2.081   5.457   3.699  1.2335 -0.1513 -1.0991
11332TIP3   OH255486   2.726   1.537   3.440 -0.4412  0.2970 -0.4614
11332TIP3    H155487   2.819   1.520   3.424 -0.4907  1.2918 -1.8752
11332TIP3    H255488   2.725   1.578   3.527  0.3720 -0.2137 -0.1959
11333TIP3   OH255489   0.041   1.443  16.463  0.3841 -0.1150 -0.8227
11333TIP3    H155490  -0.013   1.372  16.500  0.3966  0.1817 -0.2367
11333TIP3    H255491   0.091   1.400  16.394 -0.5321 -0.4175 -1.3142
11334TIP3   OH255492   6.371   1.664   0.307 -0.3952 -0.0927  0.5294
11334TIP3    H155493   6.277   1.664   0.325 -0.2759  1.5501  1.2264
11334TIP3    H255494   6.378   1.628   0.219 -1.5808 -1.3177  0.9199
11335TIP3   OH255495   4.648   5.671   1.526 -0.3454 -0.2960 -0.3642
11335TIP3    H155496   4.589   5.733   1.568 -1.8048 -1.4475 -0.6489
11335TIP3    H255497   4.614   5.662   1.437 -0.8371 -2.3074  0.0020
11336TIP3   OH255498   1.484   0.869  13.892 -0.6852 -0.1129 -0.4146
11336TIP3    H155499   1.514   0.836  13.976 -0.4968  0.5442 -0.2241
11336TIP3    H255500   1.476   0.791  13.837  0.4395 -0.3905 -0.1844
11337TIP3   OH255501   2.398   3.887  16.151  0.1174  0.3669  0.1508
11337TIP3    H155502   2.373   3.840  16.230  1.2132  1.2222  1.0216
11337TIP3    H255503   2.453   3.825  16.103 -0.5293 -0.1450  0.0653
11338TIP3   OH255504   0.204   6.352   2.517  0.5359  0.2907  0.3570
11338TIP3    H155505   0.218   6.436   2.561 -0.1782  1.0963 -0.9332
11338TIP3    H255506   0.251   6.360   2.434  0.0081 -0.3796 -0.0151
11339TIP3   OH255507   3.660   3.094   3.278  0.1248 -0.4201 -0.0518
11339TIP3    H155508   3.727   3.071   3.213  0.1341 -1.3327  0.2767
11339TIP3    H255509   3.708   3.143   3.345  0.2385 -0.0385 -0.4100
11340TIP3   OH255510   3.199   0.415  13.563 -0.4666 -0.1098 -0.0469
11340TIP3    H155511   3.226   0.379  13.648 -0.8615 -0.1095  0.0804
11340TIP3    H255512   3.276   0.461  13.531  0.0018 -0.9339 -0.1386
11341TIP3   OH255513   6.016   3.061  12.767  0.1707  0.0946 -0.4514
11341TIP3    H155514   6.070   3.034  12.841 -1.3063 -0.9836  0.2471
11341TIP3    H255515   6.016   3.156  12.771 -0.3922  0.0417  1.3054
11342TIP3   OH255516   4.260   6.318   4.063 -0.1029 -0.1209  0.3973
11342TIP3    H155517   4.345   6.328   4.105 -0.2509 -0.0079  0.6664
11342TIP3    H255518   4.273   6.354   3.975 -0.0136  0.3675  0.6078
11343TIP3   OH255519   3.209   6.341  11.252 -0.1414  0.0425  0.5166
11343TIP3    H155520   3.295   6.344  11.209  0.6097  0.7143  2.0090
11343TIP3    H255521   3.160   6.276  11.203  1.1874 -0.2686 -0.4363
11344TIP3   OH255522   2.280   5.735  13.576  0.3876 -0.4568 -0.4056
11344TIP3    H155523   2.246   5.730  13.665 -1.4912 -0.8858 -1.1282
11344TIP3    H255524   2.345   5.805  13.579 -1.3889  1.1823  0.7267
11345TIP3   OH255525   1.085   1.190   3.891 -0.6044 -0.6049  0.4240
11345TIP3    H155526   1.047   1.133   3.824  1.4671 -1.2607 -0.2284
11345TIP3    H255527   1.062   1.279   3.864 -1.7440 -0.9882  0.1103
11346TIP3   OH255528   1.707   0.532  12.605  0.3860 -0.2836 -0.1453
11346TIP3    H155529   1.801   0.548  12.593  0.4872 -0.2547  0.6633
11346TIP3    H255530   1.688   0.564  12.693 -0.4234 -0.1277 -0.3746
11347TIP3   OH255531   5.162   4.128   4.457  0.7474 -0.1591 -0.3551
11347TIP3    H155532   5.156   4.033   4.459  0.5689 -0.1700 -1.4369
11347TIP3    H255533   5.193   4.149   4.369 -1.0829  0.8792 -0.7686
11348TIP3   OH255534   0.090   6.017   0.568  0.3492  0.1995 -0.1449
11348TIP3    H155535   0.161   6.043   0.510  0.9670  0.8820  0.9064
11348TIP3    H255536   0.131   5.955   0.629  0.2834  1.3547  1.0842
11349TIP3   OH255537   4.459   4.654   5.074  0.3022  0.3450 -0.0654
11349TIP3    H155538   4.506   4.573   5.056  0.8544  0.9158 -1.3013
11349TIP3    H255539   4.370   4.638   5.045  0.9743  0.9493 -2.5794
11350TIP3   OH255540   5.157   2.500  16.153  0.9129 -0.1160  0.7093
11350TIP3    H155541   5.084   2.438  16.161  0.7521 -0.1096 -0.6494
11350TIP3    H255542   5.148   2.537  16.065  2.0813  0.4952  0.8354
11351TIP3   OH255543   4.817   1.993   1.701  0.1318 -0.1660  0.1822
11351TIP3    H155544   4.835   2.056   1.631  2.3024  0.9939  1.7350
11351TIP3    H255545   4.750   2.036   1.755  0.6461  0.2412  0.4979
11352TIP3   OH255546   5.375   4.065   6.524  0.4455  0.4832  0.0300
11352TIP3    H155547   5.421   4.149   6.522 -1.0341  1.2889 -0.5136
11352TIP3    H255548   5.409   4.018   6.447 -0.1721  1.3753 -0.8041
11353TIP3   OH255549   0.079   3.350   1.486 -0.0914 -0.2799  0.3982
11353TIP3    H155550  -0.010   3.316   1.473  0.4716 -1.3499 -0.7280
11353TIP3    H255551   0.070   3.444   1.474 -1.2023 -0.3033  0.9767
11354TIP3   OH255552   5.263   4.171   3.960 -0.4377  0.2916  0.1907
11354TIP3    H155553   5.195   4.105   3.947 -0.0276 -0.0000 -0.4777
11354TIP3    H255554   5.218   4.255   3.949 -1.2105  0.1749  2.1665
11355TIP3   OH255555   6.144   5.170   4.201  0.2122 -1.1420  0.5102
11355TIP3    H155556   6.098   5.107   4.257 -0.1412 -1.1752  0.1874
11355TIP3    H255557   6.183   5.232   4.262 -0.7532 -0.7826  0.7705
11356TIP3   OH255558   4.888   6.673   1.293  0.4177 -0.1482  0.0124
11356TIP3    H155559   4.874   6.612   1.221 -1.2621  0.4130 -0.1501
11356TIP3    H255560   4.971   6.716   1.271  1.7140 -2.4332  0.2114
11357TIP3   OH255561   1.117   5.272   2.130 -0.2422 -0.3011 -0.6783
11357TIP3    H155562   1.092   5.182   2.147  3.4661 -1.4141 -0.6315
11357TIP3    H255563   1.100   5.284   2.036  0.4017 -1.4816 -0.9615
11358TIP3   OH255564   3.854   1.269   2.810 -0.0760 -0.2695 -0.2204
11358TIP3    H155565   3.852   1.247   2.717 -0.4635  0.3410 -0.3617
11358TIP3    H255566   3.764   1.256   2.840  0.3892 -2.0759  0.4631
11359TIP3   OH255567   1.396   4.256   4.054 -0.7829 -0.5598 -0.3119
11359TIP3    H155568   1.349   4.255   3.970  1.5119 -2.8796 -1.6466
11359TIP3    H255569   1.358   4.183   4.103  0.9638 -2.0581 -1.1542
11360TIP3   OH255570   4.601   5.783  16.912  0.0211 -0.2153  0.2321
11360TIP3    H155571   4.621   5.749  16.825  0.8856 -0.7140  0.6216
11360TIP3    H255572   4.615   5.878  16.905  1.9502 -0.4762  0.3270
11361TIP3   OH255573   2.571   3.245   1.937 -0.2478 -0.3375  0.1357
11361TIP3    H155574   2.477   3.227   1.939 -0.5855  1.1701 -1.1357
11361TIP3    H255575   2.593   3.270   2.026 -1.3221  0.5665  0.1578
11362TIP3   OH255576   4.665   0.884  11.575  0.6509 -0.7735  0.1227
11362TIP3    H155577   4.615   0.870  11.495  0.3404  0.4483  0.1048
11362TIP3    H255578   4.601   0.878  11.646  0.6320 -0.1071  0.1609
11363TIP3   OH255579   6.022   0.540  11.526 -0.0876  0.9766 -0.0740
11363TIP3    H155580   5.932   0.547  11.496 -0.3426  2.5268  0.9766
11363TIP3    H255581   6.064   0.620  11.493  0.7033  0.6105  0.0495
11364TIP3   OH255582   6.266   2.599  16.647  0.3147 -0.4452  0.6925
11364TIP3    H155583   6.315   2.518  16.665 -0.3881 -0.2993  3.4766
11364TIP3    H255584   6.202   2.604  16.718  0.1901  2.4380  0.4160
11365TIP3   OH255585   0.919   4.671   0.418  0.6551  0.1382 -0.5790
11365TIP3    H155586   0.981   4.661   0.490 -0.7284  0.1473  0.6445
11365TIP3    H255587   0.836   4.690   0.461 -0.2615 -0.1772 -2.1755
11366TIP3   OH255588   0.584   6.753   3.256 -0.2247  0.8128 -0.2039
11366TIP3    H155589   0.640   6.814   3.304 -1.2847  1.4913  0.1866
11366TIP3    H255590   0.641   6.715   3.189  1.5419 -0.8323  2.1347
11367TIP3   OH255591   5.862   3.783   0.792 -0.1303  0.4794  0.1311
11367TIP3    H155592   5.848   3.773   0.886 -0.2938  0.1014  0.0654
11367TIP3    H255593   5.788   3.738   0.751  0.5086 -0.2936 -0.1869
11368TIP3   OH255594   0.925   3.318  14.723  0.0336 -0.1590  0.0206
11368TIP3    H155595   0.992   3.343  14.660 -0.8083  0.0123 -0.8078
11368TIP3    H255596   0.937   3.223  14.735 -1.6124 -0.7375 -2.5570
11369TIP3   OH255597   5.374   6.494   2.310 -0.2934 -0.2180 -0.0602
11369TIP3    H155598   5.415   6.423   2.360 -1.1077 -1.2602 -0.8712
11369TIP3    H255599   5.388   6.571   2.365  2.5350 -0.5684 -0.1843
11370TIP3   OH255600   6.334   4.921   0.941  0.5260  0.5880  0.0738
11370TIP3    H155601   6.366   4.833   0.960  0.2601  0.5163  0.1908
11370TIP3    H255602   6.403   4.980   0.973  1.4470  0.3790 -1.4624
11371TIP3   OH255603   4.298   2.334  13.045 -0.3445 -0.6663 -0.5159
11371TIP3    H155604   4.362   2.370  13.107 -1.0351  0.8530 -0.6455
11371TIP3    H255605   4.214   2.342  13.091 -0.9030  0.7815 -1.7708
11372TIP3   OH255606   6.580   0.189  11.280  0.3494 -0.3591 -0.0431
11372TIP3    H155607   6.600   0.153  11.194 -0.1038 -1.1634  0.1860
11372TIP3    H255608   6.529   0.121  11.324 -0.2454  0.4282  0.5039
11373TIP3   OH255609   3.182   2.087   3.343  0.3333  0.0571 -0.2747
11373TIP3    H155610   3.265   2.040   3.358  2.0507  3.1853  0.4234
11373TIP3    H255611   3.152   2.112   3.430  0.0781  1.2728 -0.7008
11374TIP3   OH255612   5.871   1.293   2.967  0.2393 -0.5989  0.1043
11374TIP3    H155613   5.891   1.269   3.058 -1.0024 -0.8810  0.3144
11374TIP3    H255614   5.858   1.388   2.970  1.3565 -0.4339 -0.0079
11375TIP3   OH255615   5.955   5.279  13.335 -0.2201  0.4117 -0.2450
11375TIP3    H155616   5.906   5.356  13.307 -2.7524  0.0112  2.6900
11375TIP3    H255617   5.983   5.237  13.254  0.5472  3.9650 -1.9150
11376TIP3   OH255618   1.202   6.529   2.193  0.1174  0.3448  0.2953
11376TIP3    H155619   1.177   6.461   2.131  0.5972  1.5060 -1.2285
11376TIP3    H255620   1.144   6.517   2.268 -1.7909  0.0833 -1.1826
11377TIP3   OH255621   1.800   5.774  15.044 -0.6336  0.0844 -0.0334
11377TIP3    H155622   1.758   5.860  15.051  0.5953  0.6622  0.3834
11377TIP3    H255623   1.757   5.733  14.969  0.1171  1.8460 -1.4837
11378TIP3   OH255624   3.926   3.754   0.404 -0.2141  0.1431 -0.3432
11378TIP3    H155625   3.903   3.846   0.420  1.6874  0.5946 -0.1081
11378TIP3    H255626   3.875   3.705   0.468 -1.0590  1.0458 -0.3110
11379TIP3   OH255627   1.353   0.179   4.001 -0.0672 -0.3107 -0.4277
11379TIP3    H155628   1.399   0.096   4.011  0.0656 -0.2617 -0.6256
11379TIP3    H255629   1.421   0.245   4.013 -0.1154 -0.2350 -0.5802
11380TIP3   OH255630   4.315   6.586  14.519 -0.3020  0.0698 -0.2672
11380TIP3    H155631   4.396   6.572  14.569 -1.0037 -0.8090  0.6717
11380TIP3    H255632   4.324   6.529  14.443  0.4533  0.8447 -0.7643
11381TIP3   OH255633   1.766   4.585  13.605 -0.6694  0.0431  0.3366
11381TIP3    H155634   1.778   4.675  13.572 -1.8461 -0.8367 -2.7097
11381TIP3    H255635   1.757   4.595  13.700 -1.0070  3.1712  0.0295
11382TIP3   OH255636   2.883   1.680  15.344  0.2907 -0.3556  0.3361
11382TIP3    H155637   2.886   1.698  15.250 -0.2099  1.0306  0.5735
11382TIP3    H255638   2.837   1.596  15.351 -3.5352  1.5866 -0.4172
11383TIP3   OH255639   1.576   1.696  12.992  0.1348  0.2383  0.5510
11383TIP3    H155640   1.653   1.639  12.984 -0.5222 -0.6460  0.3603
11383TIP3    H255641   1.580   1.753  12.916 -1.3212 -2.2321 -1.4913
11384TIP3   OH255642   0.692   5.578   1.609  0.1295  0.1859  0.6995
11384TIP3    H155643   0.771   5.596   1.659  0.5904  0.4684 -0.1130
11384TIP3    H255644   0.719   5.588   1.517 -0.8941  0.4899  0.4210
11385TIP3   OH255645   4.404   0.950   3.833 -0.2516  0.7226  0.0768
11385TIP3    H155646   4.356   0.927   3.912  1.2579  1.5942  1.2741
11385TIP3    H255647   4.346   1.010   3.786 -0.8577  0.7620  0.8719
11386TIP3   OH255648   5.618   5.915   1.301 -0.1961 -0.1211 -0.3231
11386TIP3    H155649   5.549   5.968   1.341 -0.1512  0.1826 -0.6431
11386TIP3    H255650   5.686   5.909   1.368  0.2789  1.1541 -0.6780
11387TIP3   OH255651   4.473   6.688   1.523 -0.0018 -0.3925 -0.6487
11387TIP3    H155652   4.539   6.723   1.463  0.7704  0.3746  0.6268
11387TIP3    H255653   4.481   6.593   1.516  1.1064 -0.3008 -0.6613
11388TIP3   OH255654   4.664   0.258  12.428 -0.0633 -0.2790 -0.5375
11388TIP3    H155655   4.734   0.323  12.417 -0.8804  0.3713 -2.1855
11388TIP3    H255656   4.709   0.174  12.426  0.6842  0.1286 -1.6613
11389TIP3   OH255657   4.670   0.681   0.742 -0.5122  0.4480 -0.0823
11389TIP3    H155658   4.665   0.776   0.746  1.4344  0.5196  1.6996
11389TIP3    H255659   4.601   0.655   0.682 -0.9303  3.0001 -0.7344
11390TIP3   OH255660   6.471   4.822  14.110  0.0966  0.3721 -0.0979
11390TIP3    H155661   6.430   4.827  14.024 -0.5774  0.4836  0.2350
11390TIP3    H255662   6.502   4.911  14.128 -0.1988  0.4538 -0.0031
11391TIP3   OH255663   5.223   5.173  14.563  0.3195  0.0130 -0.1062
11391TIP3    H155664   5.201   5.104  14.625 -0.3711 -0.3186 -0.7165
11391TIP3    H255665   5.283   5.131  14.500  0.5492  0.1903 -0.0086
11392TIP3   OH255666   4.612   6.424   4.932 -0.0495 -0.2758  0.2771
11392TIP3    H155667   4.580   6.445   4.844 -0.4722 -2.2610 -0.0537
11392TIP3    H255668   4.557   6.477   4.990 -0.6428  0.0449 -0.5664
11393TIP3   OH255669   5.155   0.275  14.090  0.0953  0.0006 -0.6780
11393TIP3    H155670   5.145   0.363  14.055 -2.5762  0.4187  1.0164
11393TIP3    H255671   5.066   0.239  14.092  0.8598 -1.9112  0.7103
11394TIP3   OH255672   2.934   0.350  17.142  0.3546  0.0807  0.0172
11394TIP3    H155673   2.969   0.329  17.056 -0.6173  0.7162 -0.5410
11394TIP3    H255674   2.841   0.365  17.127  0.1313 -0.0658  1.2217
11395TIP3   OH255675   5.715   1.715   4.737 -0.3403  0.6374  0.1925
11395TIP3    H155676   5.669   1.798   4.748 -0.7892  0.3100  0.8242
11395TIP3    H255677   5.698   1.668   4.819  1.9687  0.9349  0.8872
11396TIP3   OH255678   3.922   3.460  11.751 -0.1646  0.1197 -0.1400
11396TIP3    H155679   4.016   3.457  11.731  0.2990 -0.6811  2.0001
11396TIP3    H255680   3.899   3.368  11.769 -1.2699  0.3701 -0.2474
11397TIP3   OH255681   0.846   1.061  13.639 -0.6929 -0.1363 -0.4815
11397TIP3    H155682   0.850   0.966  13.630  1.1576 -0.0261 -1.1168
11397TIP3    H255683   0.827   1.092  13.550  0.8601  0.1685 -0.7257
11398TIP3   OH255684   3.065   2.206  13.586  0.0673 -0.7120 -0.0526
11398TIP3    H155685   2.999   2.189  13.653 -0.3157 -1.2291 -0.5487
11398TIP3    H255686   3.146   2.173  13.623 -0.2232 -1.3959 -0.0133
11399TIP3   OH255687   4.961   3.544  16.746 -0.5683  0.2824  0.6430
11399TIP3    H155688   4.957   3.450  16.759 -0.7238  0.0320 -1.0936
11399TIP3    H255689   4.872   3.569  16.721 -0.0732  0.5550 -0.9204
11400TIP3   OH255690   4.203   3.336  12.864  0.1099 -0.1104 -0.2734
11400TIP3    H155691   4.261   3.288  12.804  1.1981 -1.1401  1.5764
11400TIP3    H255692   4.115   3.323  12.828  1.0396  2.7716 -4.0444
11401TIP3   OH255693   3.576   4.168   4.954  0.5713  0.0473 -0.4712
11401TIP3    H155694   3.640   4.129   5.014 -1.2943 -0.5249  1.2064
11401TIP3    H255695   3.496   4.176   5.006 -1.3456 -1.1788 -3.0802
11402TIP3   OH255696   6.063   0.708   1.696  0.1836 -1.0364 -0.1330
11402TIP3    H155697   6.115   0.699   1.616 -2.1388 -2.7288 -1.5169
11402TIP3    H255698   5.977   0.672   1.673 -0.9975 -0.1664  2.6877
11403TIP3   OH255699   4.486   0.098  16.730  0.3543 -0.8137  0.0538
11403TIP3    H155700   4.455   0.042  16.801  0.0670 -0.7209  0.0031
11403TIP3    H255701   4.524   0.175  16.774 -1.4862  0.1066  0.0772
11404TIP3   OH255702   1.755   0.596   2.021  0.2881  0.0566  0.9682
11404TIP3    H155703   1.684   0.604   1.958  1.6850 -1.8628 -0.9312
11404TIP3    H255704   1.835   0.596   1.967  1.5124 -1.4970  2.7251
11405TIP3   OH255705   6.674   1.311   1.033 -0.4102  0.2630 -0.3708
11405TIP3    H155706   6.768   1.318   1.047 -0.2974  0.6737 -1.3345
11405TIP3    H255707   6.651   1.224   1.066  0.4012 -0.0728 -0.6887
11406TIP3   OH255708   4.361   5.538  16.629 -0.0875 -0.4402 -0.0432
11406TIP3    H155709   4.344   5.497  16.544 -0.3688  0.9166 -0.6488
11406TIP3    H255710   4.308   5.617  16.629  0.2436 -0.2021  1.2334
11407TIP3   OH255711   1.829   6.263   2.419 -0.6951  0.0040  0.1870
11407TIP3    H155712   1.853   6.248   2.327  0.8576  0.3284  0.5304
11407TIP3    H255713   1.795   6.178   2.448 -0.1471 -0.4166 -0.3719
11408TIP3   OH255714   3.970   6.307   3.118 -0.0144 -0.0400  0.2250
11408TIP3    H155715   3.962   6.373   3.050  1.0232 -1.4810 -1.3263
11408TIP3    H255716   3.885   6.262   3.118  1.1308 -2.4014 -2.6714
11409TIP3   OH255717   0.446   2.714   1.792  0.2547  0.1565  1.4088
11409TIP3    H155718   0.448   2.619   1.785  2.3314  0.2527  0.4662
11409TIP3    H255719   0.530   2.743   1.757 -0.3226  2.3394  1.7431
11410TIP3   OH255720   5.485   3.363   0.945 -0.1755 -0.0511  0.6595
11410TIP3    H155721   5.427   3.432   0.915 -0.7210 -0.8645 -0.1559
11410TIP3    H255722   5.525   3.328   0.865 -1.6338 -2.2205  0.8530
11411TIP3   OH255723   5.684   1.969  13.274 -0.0348  0.2090  0.4174
11411TIP3    H155724   5.714   2.054  13.242  1.5332 -0.5315 -0.1422
11411TIP3    H255725   5.602   1.954  13.228  1.1987  0.0617 -1.7737
11412TIP3   OH255726   1.361   1.885   2.668  0.1508  0.5499  0.4315
11412TIP3    H155727   1.300   1.943   2.622 -1.2145 -0.0936  1.3586
11412TIP3    H255728   1.312   1.803   2.679  1.3764 -0.1531  0.7677
11413TIP3   OH255729   2.281   0.927   4.130 -0.0277 -0.6675  0.1932
11413TIP3    H155730   2.321   0.854   4.081 -0.0122 -0.8550  0.4824
11413TIP3    H255731   2.195   0.939   4.090  0.2226 -0.4167 -0.2809
11414TIP3   OH255732   3.175   0.004   1.586  0.2603  0.4184 -0.1630
11414TIP3    H155733   3.142   0.032   1.501 -3.5952 -3.7193 -0.2031
11414TIP3    H255734   3.133   0.062   1.649 -1.5071 -0.2243 -0.7244
11415TIP3   OH255735   2.941   0.256  12.031  0.4064 -0.0012  0.7827
11415TIP3    H155736   2.850   0.272  12.007  0.4475  0.6565  1.0414
11415TIP3    H255737   2.957   0.165  12.006 -0.1793  0.0251  0.3028
11416TIP3   OH255738   6.054   4.165   2.831 -0.2312  0.1946 -1.0308
11416TIP3    H155739   6.121   4.175   2.899 -1.2364 -1.8267  0.2831
11416TIP3    H255740   5.984   4.224   2.858  0.6510  1.7520 -2.0167
11417TIP3   OH255741   1.959   3.197  12.133 -0.5057  0.5640  0.1370
11417TIP3    H155742   1.934   3.236  12.048 -1.1602 -0.8693 -0.3520
11417TIP3    H255743   1.876   3.185  12.179 -0.0556  2.4086  1.4810
11418TIP3   OH255744   3.106   0.946  14.840 -0.2404 -0.0348  0.2251
11418TIP3    H155745   3.103   0.891  14.762  0.6982 -1.3299  1.0703
11418TIP3    H255746   3.178   0.908  14.892 -0.2032  1.4221  1.2445
11419TIP3   OH255747   5.503   2.635   5.757  0.6284 -0.1138 -0.0086
11419TIP3    H155748   5.565   2.562   5.758 -0.2542 -0.8799  2.2311
11419TIP3    H255749   5.542   2.701   5.813  0.6857  0.4964 -0.7671
11420TIP3   OH255750   1.534   1.396  16.928  0.1183 -0.2211 -0.2592
11420TIP3    H155751   1.500   1.439  16.850  0.5550  0.8697  0.1426
11420TIP3    H255752   1.525   1.302  16.910 -0.3888  0.0329 -1.3399
11421TIP3   OH255753   2.834   2.058   5.844  0.0046 -0.0085 -0.2203
11421TIP3    H155754   2.755   2.029   5.888 -0.2505  1.8414  0.5663
11421TIP3    H255755   2.818   2.039   5.751 -1.2969  0.2330 -0.0488
11422TIP3   OH255756   6.216   5.307   0.659  0.3311  0.1508  0.0601
11422TIP3    H155757   6.175   5.245   0.719  1.7279 -1.6266 -0.7755
11422TIP3    H255758   6.206   5.392   0.702 -0.1312 -0.8643  2.0211
11423TIP3   OH255759   6.591   2.606   4.745  0.8178 -0.0985  0.7579
11423TIP3    H155760   6.591   2.690   4.699  0.9777 -0.1537  0.6564
11423TIP3    H255761   6.645   2.622   4.823 -0.6270  0.3985  1.6780
11424TIP3   OH255762   6.496   5.264   3.895 -0.1525  0.3020 -0.4526
11424TIP3    H155763   6.531   5.180   3.864 -0.2978  0.3904 -0.8541
11424TIP3    H255764   6.573   5.320   3.903 -0.1041  0.2532 -0.5733
11425TIP3   OH255765   0.281   3.168  14.681  0.0278  1.2227  0.2354
11425TIP3    H155766   0.201   3.215  14.656 -1.0078  0.2018  1.5866
11425TIP3    H255767   0.342   3.237  14.708 -0.3056  2.0202 -0.9763
11426TIP3   OH255768   0.292   1.491   2.061  0.0564  0.1458 -0.4129
11426TIP3    H155769   0.374   1.532   2.088  0.0351  0.0810 -0.2448
11426TIP3    H255770   0.305   1.398   2.080  0.2875  0.0046 -1.2555
11427TIP3   OH255771   3.811   5.551  15.310 -0.2141  0.5413 -0.4881
11427TIP3    H155772   3.793   5.643  15.330 -0.6635 -0.2836  3.2912
11427TIP3    H255773   3.726   5.508  15.319  0.6263 -0.7793  1.3331
11428TIP3   OH255774   2.287   6.234   5.089 -0.1140 -0.0832 -0.6869
11428TIP3    H155775   2.293   6.141   5.069  1.0830  0.4480 -3.1062
11428TIP3    H255776   2.194   6.255   5.080 -0.4009 -1.0582 -0.0292
11429TIP3   OH255777   3.300   5.250  15.850  0.1105  0.4598  0.7412
11429TIP3    H155778   3.242   5.216  15.918 -0.6821 -0.6637 -0.4466
11429TIP3    H255779   3.382   5.203  15.863  0.1143  0.5984  1.2183
11430TIP3   OH255780   5.100   1.605  13.880 -0.2853  0.1098 -0.1835
11430TIP3    H155781   5.172   1.626  13.940 -0.5193  1.5556 -0.3903
11430TIP3    H255782   5.041   1.679  13.887 -1.5945 -0.9121 -0.2858
11431TIP3   OH255783   6.163   2.075   4.803  0.6196  0.4555  0.4597
11431TIP3    H155784   6.217   2.061   4.725  0.9629  0.5733  0.6722
11431TIP3    H255785   6.206   2.148   4.849  0.7807 -0.0173  1.0718
11432TIP3   OH255786   6.367   2.203   3.307 -0.2755  0.5487  0.4219
11432TIP3    H155787   6.306   2.217   3.380 -0.1214  0.7266  0.5187
11432TIP3    H255788   6.451   2.184   3.349  0.2024  2.3314  0.3065
11433TIP3   OH255789   3.239   0.596  14.129 -0.5257  0.2212  0.7268
11433TIP3    H155790   3.221   0.507  14.101 -2.6059  0.2077  1.9690
11433TIP3    H255791   3.156   0.627  14.165 -0.2685  3.1739 -1.0507
11434TIP3   OH255792   1.712   3.500   5.979 -0.6925  0.2758 -0.0446
11434TIP3    H155793   1.728   3.592   5.960  2.2998 -0.4849 -1.4570
11434TIP3    H255794   1.797   3.466   6.006 -1.5862 -2.2638 -0.3137
11435TIP3   OH255795   1.518   4.296   0.525 -0.4313  0.0913  0.3072
11435TIP3    H155796   1.570   4.318   0.603  0.8806 -1.7364 -0.0175
11435TIP3    H255797   1.500   4.381   0.484  2.5231  0.8058  0.3278
11436TIP3   OH255798   4.022   5.687   0.875 -0.2654  0.0061 -0.2042
11436TIP3    H155799   4.096   5.630   0.894 -0.0398  0.5615  0.5906
11436TIP3    H255800   4.058   5.758   0.822 -0.1995  0.3443  0.2890
11437TIP3   OH255801   2.555   6.186  15.734  0.0051  0.1014  0.1161
11437TIP3    H155802   2.644   6.178  15.770 -0.1278 -2.2322  0.0427
11437TIP3    H255803   2.546   6.109  15.678 -2.0146  0.4211 -0.0300
11438TIP3   OH255804   5.027   5.494  11.816  0.5472 -0.6493 -0.3535
11438TIP3    H155805   4.982   5.556  11.759 -0.9821 -1.6861 -0.3246
11438TIP3    H255806   5.078   5.439  11.757 -0.6012 -1.3703 -0.6987
11439TIP3   OH255807   3.733   6.094  12.416  0.4337 -0.6469 -0.7630
11439TIP3    H155808   3.813   6.085  12.364  0.8683  0.5394 -0.3158
11439TIP3    H255809   3.746   6.175  12.465 -0.9384 -0.5902 -0.4892
11440TIP3   OH255810   3.114   5.448  17.047 -0.4252 -0.0072  0.6141
11440TIP3    H155811   3.165   5.494  17.114 -0.6852  1.2903 -0.0673
11440TIP3    H255812   3.023   5.473  17.064 -0.2098  3.0308 -2.2260
11441TIP3   OH255813   1.500   1.206   5.755  0.1297  0.0135 -0.1439
11441TIP3    H155814   1.581   1.244   5.786  1.3879 -1.9024 -0.9428
11441TIP3    H255815   1.459   1.167   5.832 -0.3816  1.5560  0.3774
11442TIP3   OH255816   0.716   5.499   1.066  0.0676 -0.3349 -0.3809
11442TIP3    H155817   0.679   5.564   1.127 -0.0316  1.0588 -1.8911
11442TIP3    H255818   0.767   5.551   1.004  0.1381 -1.7410 -1.5252
11443TIP3   OH255819   1.797   4.103  11.341 -0.1557  0.7865  0.2651
11443TIP3    H155820   1.812   4.175  11.403  2.0856 -1.5378  2.5355
11443TIP3    H255821   1.789   4.025  11.396 -1.1175 -0.9204 -2.2229
11444TIP3   OH255822   5.281   2.444   3.633  0.3406 -0.2163  0.0772
11444TIP3    H155823   5.350   2.378   3.638  2.6868  2.0552 -1.1148
11444TIP3    H255824   5.254   2.443   3.541 -1.8775 -1.6649  0.6945
11445TIP3   OH255825   1.570   4.093   1.509  0.1623 -0.2411  0.4637
11445TIP3    H155826   1.635   4.134   1.567  2.0914 -1.1507 -1.0035
11445TIP3    H255827   1.544   4.162   1.449  1.4806 -0.4518 -0.3701
11446TIP3   OH255828   1.824   4.067  13.503  0.1176 -0.6222  0.6823
11446TIP3    H155829   1.862   4.071  13.416  0.8585 -2.2847  0.9001
11446TIP3    H255830   1.732   4.048  13.489 -0.4112  2.1066  0.1889
11447TIP3   OH255831   3.070   1.979  16.692  0.7252  0.1909  0.7008
11447TIP3    H155832   3.057   1.951  16.601  0.5117  1.6406  0.2812
11447TIP3    H255833   3.141   2.043  16.687 -1.1441  2.3668  1.1428
11448TIP3   OH255834   4.354   0.172  16.088 -0.2939  0.1875  0.1086
11448TIP3    H155835   4.417   0.219  16.142 -0.9697 -1.6672  2.5903
11448TIP3    H255836   4.304   0.241  16.044 -0.7365  1.8107  3.0324
11449TIP3   OH255837   6.391   5.368   5.361 -1.0091  0.0936 -0.3807
11449TIP3    H155838   6.399   5.461   5.382 -0.3201  0.0819 -0.5854
11449TIP3    H255839   6.438   5.324   5.431 -0.6398 -0.0542 -0.7160
11450TIP3   OH255840   5.658   0.227   2.778 -0.2216 -0.1648 -0.4526
11450TIP3    H155841   5.568   0.239   2.750 -0.3420  0.2482  0.1194
11450TIP3    H255842   5.656   0.232   2.873 -0.0811 -3.3264 -0.2191
11451TIP3   OH255843   1.394   3.468  10.781  0.8681  0.3308 -0.2692
11451TIP3    H155844   1.321   3.506  10.732 -0.3879 -1.5414  0.1063
11451TIP3    H255845   1.436   3.407  10.720  2.1998  1.4705 -0.5150
11452TIP3   OH255846   5.673   6.369   0.436 -0.2134 -0.1658  0.4316
11452TIP3    H155847   5.722   6.292   0.467  0.3082 -0.5144 -1.2329
11452TIP3    H255848   5.726   6.444   0.464  1.1359 -0.5327 -1.0653
11453TIP3   OH255849   5.249   2.477  12.710 -0.0180 -0.6303 -0.1102
11453TIP3    H155850   5.164   2.506  12.678  1.5321  3.6589 -0.7342
11453TIP3    H255851   5.289   2.433  12.635 -1.0607 -1.2862 -0.2910
11454TIP3   OH255852   0.498   1.500   0.627 -0.0333  0.2970 -0.2606
11454TIP3    H155853   0.564   1.445   0.586  1.1038  0.8409  0.8224
11454TIP3    H255854   0.510   1.487   0.721 -0.2925  1.7558 -0.0067
11455TIP3   OH255855   2.466   4.657  13.878  0.2329  0.4421  0.1454
11455TIP3    H155856   2.536   4.611  13.925 -0.4369  0.3238  1.0218
11455TIP3    H255857   2.500   4.746  13.868  1.9038 -0.4054 -2.3219
11456TIP3   OH255858   5.124   4.414  16.625 -0.7721 -0.1152  0.1930
11456TIP3    H155859   5.196   4.461  16.666 -0.5240  0.9433 -1.3832
11456TIP3    H255860   5.164   4.334  16.591  0.3985  1.8322 -3.3031
11457TIP3   OH255861   2.687   0.274  14.596  0.2325 -0.2725  0.6488
11457TIP3    H155862   2.703   0.276  14.502 -0.4135 -1.5380  0.4926
11457TIP3    H255863   2.706   0.183  14.621 -0.4661 -0.1724  1.5720
11458TIP3   OH255864   1.622   5.634   1.322 -0.2649  0.3385  0.5427
11458TIP3    H155865   1.697   5.662   1.268 -0.8510  2.0328  0.5890
11458TIP3    H255866   1.661   5.577   1.388  0.8115  0.1768 -0.2042
11459TIP3   OH255867   6.447   0.152  15.277  0.2204 -0.1162  0.3116
11459TIP3    H155868   6.456   0.244  15.251 -1.6326 -0.5796 -2.1870
11459TIP3    H255869   6.454   0.103  15.195  0.0440 -2.1335  1.4513
11460TIP3   OH255870   2.332   5.874   1.737 -0.0310  0.2815  0.0999
11460TIP3    H155871   2.408   5.919   1.699  0.4022 -0.7394 -0.2768
11460TIP3    H255872   2.362   5.783   1.747 -1.4680 -0.3043 -0.7832
11461TIP3   OH255873   4.894   5.659  11.570  0.2198 -0.3196 -0.1644
11461TIP3    H155874   4.924   5.665  11.479  1.2488  0.5532  0.2251
11461TIP3    H255875   4.872   5.749  11.595 -0.9125 -0.6751  0.1803
11462TIP3   OH255876   4.434   4.949  16.534 -0.3013 -0.3568 -0.2868
11462TIP3    H155877   4.370   5.017  16.510 -3.0573 -2.6079  0.4946
11462TIP3    H255878   4.465   4.976  16.620 -0.6607  0.4094 -0.3850
11463TIP3   OH255879   0.508   6.752   5.748  0.3713 -0.0228  0.0916
11463TIP3    H155880   0.525   6.680   5.810 -0.6781 -0.3439  0.0104
11463TIP3    H255881   0.568   6.821   5.775  0.3382 -0.3793  1.1086
11464TIP3   OH255882   2.354   0.848   6.035  0.0063 -0.0456 -0.6074
11464TIP3    H155883   2.343   0.930   6.083  1.3727  0.2842 -0.8200
11464TIP3    H255884   2.388   0.787   6.099 -0.4560 -0.2796 -0.5867
11465TIP3   OH255885   2.849   5.711  13.925 -0.2308 -0.3096 -0.2419
11465TIP3    H155886   2.829   5.749  13.839 -2.3818 -0.8493  0.0102
11465TIP3    H255887   2.874   5.786  13.979  1.2684  0.0252 -1.3526
11466TIP3   OH255888   6.651   1.173   2.003 -0.1562 -0.1882  0.0057
11466TIP3    H155889   6.673   1.265   1.990 -0.1436 -0.3157 -0.9046
11466TIP3    H255890   6.604   1.148   1.923 -1.4880 -0.5677  0.8861
11467TIP3   OH255891   0.046   0.886   1.749  0.0847  0.2798 -0.1440
11467TIP3    H155892   0.098   0.967   1.753  0.3775  0.0239  1.6371
11467TIP3    H255893   0.111   0.816   1.758 -0.2726 -0.1380 -0.7854
11468TIP3   OH255894   5.320   4.633   2.110 -0.0433 -0.1247  0.5143
11468TIP3    H155895   5.409   4.667   2.105 -0.6754  1.3639 -0.8051
11468TIP3    H255896   5.331   4.538   2.115  1.6561  0.1319  1.9738
11469TIP3   OH255897   4.394   3.375  17.126  0.7599  0.2890 -0.0949
11469TIP3    H155898   4.374   3.428  17.203  1.2342 -1.5830  1.3654
11469TIP3    H255899   4.309   3.354  17.088  0.4674  0.4218  0.4870
11470TIP3   OH255900   5.098   3.418   5.349 -0.4154 -0.4383  0.5928
11470TIP3    H155901   5.009   3.447   5.365 -0.3857 -0.0744  0.1143
11470TIP3    H255902   5.146   3.498   5.329 -0.4664 -0.8824 -1.3919
11471TIP3   OH255903   6.240   3.271  10.674  0.0500  0.1820  0.1092
11471TIP3    H155904   6.162   3.277  10.729  0.3012 -1.2376  0.6403
11471TIP3    H255905   6.255   3.361  10.644  0.0230  1.0249  2.5037
11472TIP3   OH255906   3.978   5.451  13.001  0.6715  0.3437 -0.5428
11472TIP3    H155907   3.975   5.476  12.909 -0.7850  1.6965 -0.1426
11472TIP3    H255908   3.886   5.445  13.027  1.0771  1.9336  1.3478
11473TIP3   OH255909   0.565   5.698   6.142  0.5965 -0.3461  0.1898
11473TIP3    H155910   0.655   5.731   6.138  0.5558 -0.4217 -1.6483
11473TIP3    H255911   0.519   5.747   6.074 -0.2717 -1.7865 -0.2665
11474TIP3   OH255912   4.212   0.672   2.560 -0.1223 -0.2739  0.2221
11474TIP3    H155913   4.278   0.645   2.624  0.0704 -1.5594 -0.5240
11474TIP3    H255914   4.192   0.593   2.510 -0.3505  0.6982 -1.2508
11475TIP3   OH255915   5.061   5.532   1.312  0.0440 -0.7653  0.1265
11475TIP3    H155916   5.046   5.556   1.220 -0.1562  2.1967  0.8845
11475TIP3    H255917   4.996   5.463   1.329 -1.3407  0.1208 -1.3823
11476TIP3   OH255918   6.201   6.077   0.103 -0.2831 -0.4669 -0.3306
11476TIP3    H155919   6.247   6.109   0.026 -0.0469 -1.0925 -0.4556
11476TIP3    H255920   6.254   6.105   0.178 -1.1059  1.1267 -0.3266
11477TIP3   OH255921   4.723   0.589  12.657 -0.0938  0.1094 -0.0875
11477TIP3    H155922   4.641   0.577  12.611 -0.3861 -0.0783  0.4740
11477TIP3    H255923   4.706   0.557  12.746  0.2819  1.0217  0.3177
11478TIP3   OH255924   4.484   4.814   2.441 -0.2886  0.2945  0.2116
11478TIP3    H155925   4.437   4.811   2.357 -0.8572  1.1334  0.4915
11478TIP3    H255926   4.528   4.730   2.446  0.2234  0.4580 -1.2044
11479TIP3   OH255927   5.787   3.421  13.208  0.9337  0.4514  0.1924
11479TIP3    H155928   5.810   3.485  13.275  0.5521  0.6920  0.0922
11479TIP3    H255929   5.823   3.338  13.240  0.6173  0.5394  0.7669
11480TIP3   OH255930   5.000   6.635  10.432 -0.2796 -0.0302  0.1183
11480TIP3    H155931   4.913   6.640  10.391 -0.4613 -1.8331  0.2473
11480TIP3    H255932   5.060   6.670  10.366 -0.8365 -0.9222 -0.8748
11481TIP3   OH255933   4.517   3.908  11.859  0.0378 -0.1786 -0.0366
11481TIP3    H155934   4.499   3.835  11.918  0.9722 -0.1842  0.2474
11481TIP3    H255935   4.504   3.986  11.913 -0.0141 -0.1585 -0.0780
11482TIP3   OH255936   5.952   2.071  11.178 -0.3862  0.2710  0.4998
11482TIP3    H155937   5.963   2.087  11.085  1.8277  0.8932  0.8466
11482TIP3    H255938   6.017   2.005  11.200 -1.4998 -0.5431  1.4371
11483TIP3   OH255939   2.846   3.185   2.228 -0.4073  0.3663  0.4908
11483TIP3    H155940   2.821   3.129   2.154 -0.4879 -2.1661  2.3825
11483TIP3    H255941   2.904   3.250   2.189 -1.5600 -0.0598 -2.0569
11484TIP3   OH255942   2.853   1.080  15.482  0.4928  0.3133  0.1377
11484TIP3    H155943   2.833   1.007  15.423  0.6422 -0.1684  0.6807
11484TIP3    H255944   2.935   1.054  15.525  0.3279  0.6188  0.6348
11485TIP3   OH255945   1.769   2.506   3.829 -0.0163 -1.0682 -0.1444
11485TIP3    H155946   1.826   2.431   3.849 -3.1122 -3.3948  0.3847
11485TIP3    H255947   1.764   2.553   3.912  1.3918 -0.6321 -0.2882
11486TIP3   OH255948   4.330   0.596  13.648 -0.3099 -0.2612  0.2397
11486TIP3    H155949   4.276   0.609  13.726 -0.5492  1.8333 -0.2316
11486TIP3    H255950   4.287   0.649  13.580  1.0326 -0.4390 -0.7695
11487TIP3   OH255951   1.431   6.762   3.393  0.0014  0.5506  0.1975
11487TIP3    H155952   1.433   6.727   3.304 -0.5142 -0.3188  0.5235
11487TIP3    H255953   1.520   6.795   3.407 -0.0180  1.0568 -0.7736
11488TIP3   OH255954   5.431   3.454   2.957 -0.7511 -0.2582  0.1496
11488TIP3    H155955   5.446   3.535   3.007  1.4901 -0.0612 -0.7850
11488TIP3    H255956   5.469   3.471   2.871  1.9523 -3.1315  0.6997
11489TIP3   OH255957   0.223   2.869  14.194 -0.9900  0.1375  0.5542
11489TIP3    H155958   0.195   2.876  14.285 -1.5930  0.9221  0.3143
11489TIP3    H255959   0.192   2.950  14.153 -1.4499 -0.5868 -0.5465
11490TIP3   OH255960   2.393   4.884   0.615 -0.2349  0.1676  0.0600
11490TIP3    H155961   2.450   4.910   0.543  1.3268 -0.6157  0.9835
11490TIP3    H255962   2.327   4.828   0.574  1.3230 -1.2157 -0.6013
11491TIP3   OH255963   5.286   0.692  11.108  0.2969 -0.3974  0.2018
11491TIP3    H155964   5.203   0.693  11.061 -0.3980  0.1006  1.4291
11491TIP3    H255965   5.269   0.636  11.184  1.3936 -1.1412 -0.0862
11492TIP3   OH255966   2.729   6.796  16.661 -0.7097  0.7389  0.3545
11492TIP3    H155967   2.656   6.781  16.721 -0.2591 -1.6363  0.3568
11492TIP3    H255968   2.796   6.839  16.715 -1.2666  0.9005  0.9140
11493TIP3   OH255969   4.451   2.861   0.730  0.6179 -0.0553  0.0113
11493TIP3    H155970   4.530   2.882   0.780  0.6053  0.8062 -0.3200
11493TIP3    H255971   4.385   2.921   0.763  0.1595 -0.6080  0.1099
11494TIP3   OH255972   4.865   1.055  11.687 -0.1046 -0.4206  0.7554
11494TIP3    H155973   4.802   0.987  11.665  0.7710 -1.1984  0.6188
11494TIP3    H255974   4.922   1.016  11.753  1.6352 -0.5467 -0.7588
11495TIP3   OH255975   5.839   2.164   4.101 -0.0166 -0.0904 -0.3535
11495TIP3    H155976   5.766   2.213   4.064 -0.2637  0.5873  0.9882
11495TIP3    H255977   5.798   2.087   4.141  0.1432 -0.3454 -0.6795
11496TIP3   OH255978   6.036   5.037   0.053  0.1377 -0.4274 -0.0432
11496TIP3    H155979   5.941   5.045   0.057  0.2137 -0.0634  1.0202
11496TIP3    H255980   6.051   4.947   0.022 -0.5252 -0.9583  1.1624
11497TIP3   OH255981   0.541   5.425  11.929 -0.1302  0.3559  0.4278
11497TIP3    H155982   0.554   5.332  11.946 -1.2621  0.3909  1.6192
11497TIP3    H255983   0.480   5.427  11.856  2.0671  0.1894 -1.4513
11498TIP3   OH255984   4.253   2.390   3.470  0.0027  0.3176 -0.1565
11498TIP3    H155985   4.305   2.379   3.391 -0.0444  3.6899 -0.7257
11498TIP3    H255986   4.167   2.353   3.449  0.5596 -0.4760 -1.0231
11499TIP3   OH255987   3.522   0.708   2.018 -0.0377  0.5857 -0.2084
11499TIP3    H155988   3.520   0.647   1.945 -0.0234  0.1803  0.1283
11499TIP3    H255989   3.525   0.653   2.096 -1.1488  1.0007  0.1444
11500TIP3   OH255990   0.453   2.701   3.511 -0.2542 -0.4023 -0.6007
11500TIP3    H155991   0.433   2.629   3.451  1.5672 -2.6837  1.4271
11500TIP3    H255992   0.544   2.724   3.492 -0.1063 -0.2064  0.3160
11501TIP3   OH255993   6.320   5.870  14.095  0.0225 -0.2683  0.4685
11501TIP3    H155994   6.411   5.845  14.075  0.0012 -2.0778  2.4952
11501TIP3    H255995   6.267   5.816  14.036  0.1896 -0.5727  0.5981
11502TIP3   OH255996   0.983   6.747   3.945  0.0507  0.0573  0.4494
11502TIP3    H155997   0.958   6.672   3.891 -0.0076  1.3765 -1.4020
11502TIP3    H255998   0.920   6.747   4.017  0.5594 -2.1461  0.9376
11503TIP3   OH255999   5.852   6.317   1.108  0.7697  0.3908  0.1607
11503TIP3    H156000   5.822   6.229   1.132  0.5805  0.5797  0.6172
11503TIP3    H256001   5.882   6.356   1.190  1.4678  0.5200 -0.1475
11504TIP3   OH256002   3.216   4.663   2.211  0.1123 -0.2705 -0.0724
11504TIP3    H156003   3.277   4.591   2.198  1.1657  0.5210  0.3947
11504TIP3    H256004   3.195   4.660   2.304  1.1106  0.7452  0.2056
11505TIP3   OH256005   4.577   0.428  14.456 -0.3176  0.3087  0.5131
11505TIP3    H156006   4.633   0.467  14.389 -2.5262  4.8789  1.1600
11505TIP3    H256007   4.605   0.468  14.538 -3.3481  1.4129  1.0733
11506TIP3   OH256008   1.671   1.917  15.876 -0.1962 -0.2710 -0.0879
11506TIP3    H156009   1.593   1.888  15.924  1.5001 -1.7017  1.8987
11506TIP3    H256010   1.744   1.900  15.936  1.8109 -0.3796 -2.4720
11507TIP3   OH256011   2.353   0.401   4.133 -0.0626  0.4278  0.0838
11507TIP3    H156012   2.285   0.337   4.152 -1.0227  1.0788 -1.0730
11507TIP3    H256013   2.307   0.474   4.092  0.9687  1.9837  1.6177
11508TIP3   OH256014   1.697   5.450   2.475 -0.2162 -0.1173  0.4901
11508TIP3    H156015   1.733   5.361   2.472  0.5223  0.0065  3.8529
11508TIP3    H256016   1.605   5.438   2.496 -0.1954 -0.0791  0.6001
11509TIP3   OH256017   1.075   3.363  17.194 -0.0598 -0.0595  0.2340
11509TIP3    H156018   1.145   3.383  17.132  0.9331  0.2328  1.4574
11509TIP3    H256019   1.008   3.429  17.175  0.9110  1.0229  0.5428
11510TIP3   OH256020   4.924   2.197  11.374  0.4124 -0.3445  1.1129
11510TIP3    H156021   4.899   2.107  11.356  0.5601 -0.1018 -0.3846
11510TIP3    H256022   5.010   2.207  11.332 -1.6582  1.8262 -2.8929
11511TIP3   OH256023   0.654   3.905   2.014 -0.0037 -0.2795  0.2055
11511TIP3    H156024   0.723   3.953   2.058 -0.1176  0.1531 -0.0891
11511TIP3    H256025   0.698   3.857   1.943 -0.0401  0.1834 -0.1313
11512TIP3   OH256026   1.940   4.148   3.134  0.0642  0.0863  0.1086
11512TIP3    H156027   2.031   4.139   3.163  1.0557  3.3139 -1.7466
11512TIP3    H256028   1.934   4.094   3.056  0.0953 -0.9394  0.8103
11513TIP3   OH256029   1.511   6.574   1.502 -0.3772  0.5768  0.1639
11513TIP3    H156030   1.576   6.571   1.573  0.3737  0.3067 -0.5237
11513TIP3    H256031   1.479   6.664   1.504  0.2529  0.8085  0.3113
11514TIP3   OH256032   3.369   5.284  14.997  0.0818 -0.5027  0.6622
11514TIP3    H156033   3.404   5.299  14.909 -1.2233 -2.7369 -0.2800
11514TIP3    H256034   3.308   5.357  15.011  0.0972 -0.2767 -0.4010
11515TIP3   OH256035   6.084   2.841   4.331 -0.1722  0.4357  0.8352
11515TIP3    H156036   6.052   2.769   4.386  0.9272  0.9626  2.1707
11515TIP3    H256037   6.006   2.871   4.284 -0.5655 -1.9385 -0.1221
11516TIP3   OH256038   6.446   0.760   2.812 -0.2841 -0.4511  0.0622
11516TIP3    H156039   6.537   0.745   2.835  0.1381  1.6452 -0.1710
11516TIP3    H256040   6.447   0.769   2.717 -0.7083 -0.1433  0.0895
11517TIP3   OH256041   2.828   6.798   1.700 -0.2752 -0.0337  0.5410
11517TIP3    H156042   2.739   6.762   1.703 -0.3164 -0.0126 -0.2747
11517TIP3    H256043   2.880   6.729   1.659  0.3547 -0.5679  2.1885
11518TIP3   OH256044   5.251   1.740   2.555  0.5250 -0.3191  0.7633
11518TIP3    H156045   5.181   1.678   2.575 -0.4750  0.3580 -0.5930
11518TIP3    H256046   5.238   1.812   2.617  1.2310 -1.0898  1.8306
11519TIP3   OH256047   1.401   0.903   4.437 -0.7780 -0.0540  0.1133
11519TIP3    H156048   1.437   0.985   4.403 -0.8505 -0.2420 -0.4293
11519TIP3    H256049   1.411   0.841   4.364 -0.6343 -0.5482  0.5547
11520TIP3   OH256050   3.150   1.711  11.662  0.3169  0.1548 -0.2632
11520TIP3    H156051   3.095   1.710  11.740 -0.4426  0.7100 -0.7852
11520TIP3    H256052   3.107   1.773  11.603  1.0257 -0.0641 -1.0165
11521TIP3   OH256053   2.855   5.218  17.035  0.2015 -0.4292  0.2343
11521TIP3    H156054   2.824   5.300  16.998 -0.8634 -0.8381  0.2011
11521TIP3    H256055   2.909   5.179  16.966  0.4520  0.0900  0.1327
11522TIP3   OH256056   0.596   3.812  16.831 -0.4048 -0.6051 -0.1331
11522TIP3    H156057   0.547   3.810  16.748 -1.6485  2.2956  0.4592
11522TIP3    H256058   0.687   3.827  16.805 -0.8383  0.6485 -0.9983
11523TIP3   OH256059   2.311   6.418   6.324  0.2020 -0.3092 -0.3401
11523TIP3    H156060   2.348   6.495   6.368 -1.9661 -0.3580  1.6436
11523TIP3    H256061   2.380   6.352   6.330  1.2519  0.7776 -0.1282
11524TIP3   OH256062   0.055   1.109  13.694 -0.6658  0.3971 -1.1214
11524TIP3    H156063  -0.032   1.115  13.653 -1.1142  0.7141 -0.1354
11524TIP3    H256064   0.055   1.178  13.760 -0.4594 -0.9834  0.3499
11525TIP3   OH256065   2.265   3.041   5.064 -0.1255  0.3262  0.6181
11525TIP3    H156066   2.285   2.948   5.074 -1.4186  0.0384  0.6234
11525TIP3    H256067   2.349   3.082   5.040  0.2021 -1.0268 -0.6190
11526TIP3   OH256068   5.678   1.768  16.491  0.0249 -0.2132  0.5361
11526TIP3    H156069   5.688   1.677  16.519  1.3296 -0.9116 -1.9998
11526TIP3    H256070   5.738   1.777  16.417 -2.4487  1.8021 -1.3362
11527TIP3   OH256071   4.343   1.294   3.959  0.1049 -0.2039 -0.3643
11527TIP3    H156072   4.409   1.247   3.908 -1.4020 -0.8684 -1.7693
11527TIP3    H256073   4.375   1.292   4.049  2.2448 -0.0517 -1.0842
11528TIP3   OH256074   6.166   0.849  16.361  0.5732  0.4072  0.1927
11528TIP3    H156075   6.172   0.845  16.266 -0.4552 -0.9120  0.1668
11528TIP3    H256076   6.256   0.834  16.391  0.7704  0.0433 -0.5584
11529TIP3   OH256077   2.759   1.047  11.950 -0.4746 -0.4334 -0.2311
11529TIP3    H156078   2.844   1.004  11.956 -0.1773 -0.2733 -2.8535
11529TIP3    H256079   2.709   1.012  12.024  1.2111 -1.9726  0.2142
11530TIP3   OH256080   3.398   5.555   5.924 -0.2297  0.2872 -0.0231
11530TIP3    H156081   3.389   5.624   5.989 -0.2293  1.2959 -1.0756
11530TIP3    H256082   3.317   5.560   5.873  0.7557  1.0195 -1.5390
11531TIP3   OH256083   1.922   6.330  11.495  0.3031  0.4302 -0.1149
11531TIP3    H156084   1.864   6.399  11.529  1.5431  0.6025  1.7412
11531TIP3    H256085   2.007   6.373  11.486  0.5233 -0.2431 -1.2833
11532TIP3   OH256086   4.022   2.422  13.151  0.0111 -0.5774 -0.1038
11532TIP3    H156087   3.927   2.431  13.156  0.1839 -0.0550  2.6401
11532TIP3    H256088   4.054   2.512  13.141  0.2883 -0.6254  0.3484
11533TIP3   OH256089   4.463   4.989  14.466 -0.5977  0.0890 -0.1719
11533TIP3    H156090   4.414   5.071  14.474 -0.5125  0.0719  0.5457
11533TIP3    H256091   4.457   4.950  14.553 -0.8002 -0.7572 -0.5612
11534TIP3   OH256092   5.422   1.296  11.123  0.6980  0.3787 -0.0317
11534TIP3    H156093   5.437   1.306  11.029 -1.3816 -3.1848 -0.8247
11534TIP3    H256094   5.327   1.300  11.132  0.7121 -2.2091  1.5222
11535TIP3   OH256095   3.973   0.663   0.145 -0.3948  0.4914  0.2004
11535TIP3    H156096   4.062   0.642   0.117 -0.9019 -0.4588 -0.7197
11535TIP3    H256097   3.971   0.640   0.238  0.1820  0.1046  0.1177
11536TIP3   OH256098   0.182   6.260  15.698  0.3315 -0.6795 -0.3856
11536TIP3    H156099   0.168   6.339  15.645  1.1375 -0.0207  0.3639
11536TIP3    H256100   0.111   6.202  15.673  0.4342 -0.2043 -1.8754
11537TIP3   OH256101   2.899   3.134   3.014 -0.2479 -0.1922 -0.0320
11537TIP3    H156102   2.845   3.121   2.936  1.2489 -2.2905 -0.7495
11537TIP3    H256103   2.884   3.057   3.068 -0.1094  0.5371  1.0665
11538TIP3   OH256104   4.216   6.565  12.224 -0.0211  0.2129 -0.1943
11538TIP3    H156105   4.236   6.612  12.143  0.5457  1.3244  0.5790
11538TIP3    H256106   4.301   6.552  12.266 -0.2248 -1.1069 -0.1743
11539TIP3   OH256107   3.881   0.774  14.433  0.0033 -0.1602  0.1774
11539TIP3    H156108   3.806   0.813  14.389 -2.5409  0.1752  4.4882
11539TIP3    H256109   3.860   0.680  14.437 -0.8882  0.1107  2.5346
11540TIP3   OH256110   1.446   1.313  13.076 -0.5074  0.0563 -0.5929
11540TIP3    H156111   1.533   1.292  13.042 -1.5645 -2.5903 -1.8298
11540TIP3    H256112   1.403   1.359  13.004 -0.6254  0.0842 -0.5038
11541TIP3   OH256113   6.046   0.388  10.632 -0.4829  0.4260  0.2656
11541TIP3    H156114   5.953   0.367  10.624 -0.4852  0.6011 -0.1848
11541TIP3    H256115   6.072   0.418  10.545  0.6005 -2.0218 -0.3186
11542TIP3   OH256116   0.171   5.842  14.252 -0.4973  0.5084  0.3245
11542TIP3    H156117   0.108   5.826  14.322 -0.8797 -2.2413 -0.5889
11542TIP3    H256118   0.123   5.896  14.189 -1.5085 -0.4459  0.2667
11543TIP3   OH256119   6.177   0.454  15.941  0.2565  0.2376  0.0829
11543TIP3    H156120   6.265   0.433  15.907  0.0353 -0.5076 -0.0351
11543TIP3    H256121   6.119   0.391  15.897 -0.2537  0.3245  0.6312
11544TIP3   OH256122   6.225   0.968   2.459 -0.2545  0.1849 -0.2566
11544TIP3    H156123   6.150   0.954   2.401 -1.5875  0.8708  1.2338
11544TIP3    H256124   6.229   1.063   2.470  0.7547  0.1399 -0.2231
11545TIP3   OH256125   1.782   3.142  13.934  0.2086  0.1266 -0.5845
11545TIP3    H156126   1.877   3.131  13.924  0.5207  1.1690  1.1716
11545TIP3    H256127   1.761   3.218  13.880  0.5555  0.5982 -0.0557
11546TIP3   OH256128   1.951   4.484   5.378 -0.2700 -0.4419 -0.0925
11546TIP3    H156129   1.869   4.531   5.397 -1.3113 -1.7375 -1.2846
11546TIP3    H256130   1.955   4.415   5.443 -0.8217 -1.2050 -0.8536
11547TIP3   OH256131   3.858   2.778   6.035  0.3012 -0.2334 -0.1616
11547TIP3    H156132   3.839   2.793   5.942  0.0473 -0.0677 -0.0834
11547TIP3    H256133   3.797   2.836   6.081  1.2292  0.5600  0.0821
11548TIP3   OH256134   4.621   4.061   3.100  0.8733  0.4959 -0.1069
11548TIP3    H156135   4.613   4.149   3.138  0.4022  0.2292  0.4184
11548TIP3    H256136   4.697   4.023   3.145  1.5237  0.9006 -0.8639
11549TIP3   OH256137   6.747   2.725   5.338  0.4245  0.4074 -0.2070
11549TIP3    H156138   6.796   2.710   5.258 -0.7152 -1.2741 -0.6282
11549TIP3    H256139   6.679   2.788   5.313 -0.4266 -0.7289 -0.7742
11550TIP3   OH256140   3.355   1.342  14.088  0.1372  0.3369  0.3275
11550TIP3    H156141   3.297   1.325  14.162  0.8716 -0.7324  0.6701
11550TIP3    H256142   3.439   1.364  14.129  0.9356 -1.6800 -0.1974
11551TIP3   OH256143   4.228   3.760   5.411 -0.1692 -0.1118 -0.0152
11551TIP3    H156144   4.170   3.768   5.487 -1.0889 -1.2803 -0.5648
11551TIP3    H256145   4.211   3.838   5.360  0.6130  0.7886  1.0808
11552TIP3   OH256146   2.149   0.351   4.357  0.0277 -0.1347 -0.2944
11552TIP3    H156147   2.139   0.444   4.375  2.3953  0.3990 -1.6610
11552TIP3    H256148   2.153   0.310   4.444  0.5871  1.1985  0.3081
11553TIP3   OH256149   0.508   4.746  12.818 -0.5303  0.4359 -0.3359
11553TIP3    H156150   0.460   4.669  12.786  0.1503 -0.1639  0.0706
11553TIP3    H256151   0.468   4.765  12.903 -0.7958  0.6310 -0.4994
11554TIP3   OH256152   1.119   1.554   0.986  1.1588 -0.1639 -0.2370
11554TIP3    H156153   1.071   1.527   0.907 -0.7355  1.6895  0.2427
11554TIP3    H256154   1.194   1.604   0.953  0.9968 -0.3458 -0.8821
11555TIP3   OH256155   6.005   0.948  17.154  0.2334  0.2476  0.0115
11555TIP3    H156156   6.033   0.928  17.243 -0.0905 -0.6518 -0.0795
11555TIP3    H256157   6.078   0.997  17.116  0.8649 -0.3944  0.3927
11556TIP3   OH256158   6.596   5.243  16.035  0.1342 -0.2779  0.1795
11556TIP3    H156159   6.578   5.308  15.967 -1.5972  1.1335  1.9174
11556TIP3    H256160   6.691   5.233  16.034  0.8439  4.6381  1.8777
11557TIP3   OH256161   1.437   4.091   2.500  0.4540  0.3248 -0.1168
11557TIP3    H156162   1.379   4.163   2.521 -0.5128 -0.2632 -0.7520
11557TIP3    H256163   1.483   4.073   2.583 -1.9634 -0.7391  1.0392
11558TIP3   OH256164   3.802   5.273  10.810  0.2200  0.2448 -0.0513
11558TIP3    H156165   3.897   5.283  10.813  0.3631 -1.1811  0.4290
11558TIP3    H256166   3.784   5.247  10.719  0.5493 -1.9308  0.4932
11559TIP3   OH256167   4.008   4.642  16.942  0.4412  0.7758 -0.4548
11559TIP3    H156168   3.971   4.670  16.858  1.3753  0.6230 -0.9194
11559TIP3    H256169   3.945   4.577  16.975 -0.6382  1.8401 -0.3757
11560TIP3   OH256170   3.185   2.896   2.520  0.0251  0.1028 -0.1385
11560TIP3    H156171   3.259   2.956   2.521  0.0005  0.1556 -1.2665
11560TIP3    H256172   3.214   2.822   2.467 -0.6054 -0.0340 -0.3019
11561TIP3   OH256173   0.423   3.679  15.176 -0.0186 -0.4691  0.6371
11561TIP3    H156174   0.507   3.724  15.184 -0.6775  1.1285 -0.9941
11561TIP3    H256175   0.359   3.739  15.215 -0.8124 -0.2961 -0.8932
11562TIP3   OH256176   0.735   5.286   1.610 -0.1400  0.0207 -0.3902
11562TIP3    H156177   0.703   5.375   1.625  2.0049  0.6273  0.7403
11562TIP3    H256178   0.670   5.247   1.552 -2.0867  1.7176  0.5851
11563TIP3   OH256179   6.328   0.682   6.176 -0.1597 -0.4845 -0.1842
11563TIP3    H156180   6.385   0.623   6.126  1.8020  1.3746 -0.2141
11563TIP3    H256181   6.291   0.742   6.112  0.3695  0.3130  0.2431
11564TIP3   OH256182   3.477   6.141  12.768 -0.1037 -0.2284 -0.1727
11564TIP3    H156183   3.474   6.056  12.724  0.4523  0.7556 -2.1912
11564TIP3    H256184   3.492   6.204  12.697  1.9123  1.3348  1.5784
11565TIP3   OH256185   1.983   5.151  16.125  0.1766  0.2967  0.3091
11565TIP3    H156186   2.050   5.129  16.190  1.7766 -2.6311 -2.2059
11565TIP3    H256187   2.015   5.232  16.084  1.2575 -0.0616  0.4224
11566TIP3   OH256188   6.154   6.800   0.017 -0.1513  0.3481  0.0524
11566TIP3    H156189   6.222   6.738  -0.011 -0.7288 -0.9084  1.3520
11566TIP3    H256190   6.185   6.885  -0.014  1.2849 -0.4112 -0.6633
11567TIP3   OH256191   3.214   3.543  15.669 -0.1831  0.2314  0.0677
11567TIP3    H156192   3.269   3.466  15.683  0.9331  1.4808  2.9083
11567TIP3    H256193   3.271   3.607  15.627 -0.4732  0.2698 -0.2647
11568TIP3   OH256194   2.249   1.008   3.554  0.2638  0.9522 -0.4226
11568TIP3    H156195   2.282   0.921   3.573 -1.2770  0.3299 -0.5527
11568TIP3    H256196   2.242   1.051   3.639 -3.8193 -0.8198  0.2478
11569TIP3   OH256197   3.952   4.819  12.038 -0.1067 -0.3837  0.1051
11569TIP3    H156198   3.975   4.912  12.043 -0.5122 -0.2157 -1.0262
11569TIP3    H256199   4.031   4.773  12.064  0.4650  0.2525 -0.4993
11570TIP3   OH256200   2.388   0.568  14.345 -0.7819  0.2543 -0.1118
11570TIP3    H156201   2.361   0.611  14.427  2.0114  0.4511  0.7557
11570TIP3    H256202   2.432   0.488  14.374 -1.2928 -0.5279 -1.5018
11571TIP3   OH256203   5.409   5.916  11.028 -0.1841  0.7253  0.0464
11571TIP3    H156204   5.471   5.989  11.024 -0.3956  1.0594  2.1882
11571TIP3    H256205   5.345   5.942  11.094 -1.1147 -0.7660 -0.2321
11572TIP3   OH256206   2.766   5.499   1.367  0.6588  0.4856 -0.5134
11572TIP3    H156207   2.795   5.589   1.387 -0.4770  0.4563  1.3013
11572TIP3    H256208   2.714   5.508   1.288  0.2624  1.4818 -0.1449
11573TIP3   OH256209   4.382   5.339  12.187 -0.9801  0.0602 -0.0081
11573TIP3    H156210   4.373   5.328  12.282 -1.7337  0.2594 -0.0515
11573TIP3    H256211   4.458   5.286  12.164 -1.7804 -1.3057  0.4650
11574TIP3   OH256212   4.868   5.507   0.175  0.2948  0.7897 -0.0125
11574TIP3    H156213   4.780   5.517   0.139  0.8667  0.4210 -1.5122
11574TIP3    H256214   4.863   5.550   0.261 -1.6673 -0.2734  0.4338
11575TIP3   OH256215   5.503   0.507  13.060 -0.0932  0.2111 -0.3637
11575TIP3    H156216   5.563   0.433  13.049 -0.4709 -0.2978  0.8692
11575TIP3    H256217   5.420   0.475  13.024  0.4133  0.9874 -2.2571
11576TIP3   OH256218   4.911   6.654  14.180 -0.3977  0.0403 -0.5447
11576TIP3    H156219   4.954   6.572  14.154  3.4410  1.6110  0.4121
11576TIP3    H256220   4.918   6.711  14.104  1.3445  1.0640  0.3408
11577TIP3   OH256221   3.100   2.237  12.599 -0.0568  0.6641 -0.1444
11577TIP3    H156222   3.056   2.163  12.641  0.0457  0.0692 -1.0665
11577TIP3    H256223   3.048   2.313  12.624 -1.6601 -0.0400 -1.2437
11578TIP3   OH256224   6.444   3.688   6.148 -0.4709  0.2551 -0.0776
11578TIP3    H156225   6.403   3.720   6.229  0.2031  1.4525 -0.2055
11578TIP3    H256226   6.507   3.756   6.125  0.6411 -0.9552 -0.6123
11579TIP3   OH256227   3.860   6.012   0.177  0.0674 -0.0759 -0.0232
11579TIP3    H156228   3.874   6.103   0.153 -1.2594  0.8214  2.4244
11579TIP3    H256229   3.900   6.003   0.263 -0.6923 -1.5411  0.1939
11580TIP3   OH256230   6.504   4.347  13.204  0.1477 -0.0930 -0.3567
11580TIP3    H156231   6.471   4.367  13.291  0.1547  0.6935 -0.5338
11580TIP3    H256232   6.569   4.278  13.218  0.1446  0.0293  0.2593
11581TIP3   OH256233   4.998   2.928  13.070 -0.0802 -0.2054 -0.4645
11581TIP3    H156234   5.090   2.950  13.088  0.1183 -0.8502 -0.6688
11581TIP3    H256235   5.001   2.886  12.984 -0.2317 -2.5167  0.6344
11582TIP3   OH256236   5.266   1.471  10.484 -0.3738 -0.4867  0.7344
11582TIP3    H156237   5.250   1.565  10.490 -1.8710 -0.5649 -1.3272
11582TIP3    H256238   5.283   1.444  10.574  2.8386  2.1808  1.0192
11583TIP3   OH256239   1.079   2.989   5.151  0.0020  0.7518  0.5526
11583TIP3    H156240   1.056   2.902   5.185  1.5893  0.3547  0.6601
11583TIP3    H256241   1.054   2.987   5.059 -1.1597  0.6334  0.8695
11584TIP3   OH256242   2.906   5.079   5.782 -0.1844  0.1529  0.5964
11584TIP3    H156243   2.886   5.164   5.745  1.7045  0.6656  0.7342
11584TIP3    H256244   2.828   5.057   5.835 -1.8607  0.4798 -1.6776
11585TIP3   OH256245   3.824   5.057   2.369 -0.3204 -0.5653  0.0879
11585TIP3    H156246   3.767   5.030   2.297 -0.7140 -1.0666  0.5867
11585TIP3    H256247   3.765   5.087   2.437  0.0456 -0.3060  0.2962
11586TIP3   OH256248   2.775   0.359  13.126  0.0056 -0.3169  0.2747
11586TIP3    H156249   2.838   0.320  13.065 -1.1884 -0.9591 -0.5857
11586TIP3    H256250   2.699   0.379  13.071 -1.1283 -0.9798  1.5680
11587TIP3   OH256251   6.240   3.291  15.662 -0.1731 -0.0784 -0.0009
11587TIP3    H156252   6.245   3.242  15.744  2.9899 -0.5325 -0.4087
11587TIP3    H256253   6.330   3.295  15.631 -0.5103  4.7269 -0.7513
11588TIP3   OH256254   4.824   0.952  16.362 -0.0580  0.0834  0.7288
11588TIP3    H156255   4.876   0.872  16.369 -2.7625 -1.7536  0.3518
11588TIP3    H256256   4.829   0.976  16.269 -2.4722 -1.9307  0.0275
11589TIP3   OH256257   1.718   1.502   1.304 -0.7380  0.2662 -0.3094
11589TIP3    H156258   1.677   1.539   1.382  0.5442  1.6889 -0.3028
11589TIP3    H256259   1.745   1.414   1.331  0.1741  0.9428  1.0021
11590TIP3   OH256260   2.257   5.177   1.939 -0.2697 -0.1496  0.4738
11590TIP3    H156261   2.186   5.162   1.877 -0.6300  1.9101  0.3520
11590TIP3    H256262   2.330   5.210   1.886  0.7442 -2.0531  0.6291
11591TIP3   OH256263   1.791   4.153  17.050 -0.0308  0.7739 -0.1934
11591TIP3    H156264   1.840   4.172  17.129  0.1694  0.6766 -0.2958
11591TIP3    H256265   1.699   4.157  17.077  0.0720 -1.0301  0.4306
11592TIP3   OH256266   1.622   4.430  16.408  0.1327 -0.1056 -0.0159
11592TIP3    H156267   1.645   4.470  16.325  0.1837 -0.6169 -0.2501
11592TIP3    H256268   1.635   4.336  16.394 -1.4151 -0.3402  0.0651
11593TIP3   OH256269   0.854   1.414   5.669 -0.8259  0.5895  0.2516
11593TIP3    H156270   0.828   1.343   5.611 -1.6603  1.0135  0.1015
11593TIP3    H256271   0.945   1.394   5.692 -0.6387  0.1670 -0.8223
11594TIP3   OH256272   4.550   2.230  15.239  0.2838 -0.1265 -0.1241
11594TIP3    H156273   4.633   2.277  15.241  0.7878 -0.9645 -0.8875
11594TIP3    H256274   4.567   2.149  15.286 -0.1024 -0.2942 -0.2685
11595TIP3   OH256275   5.445   5.257   1.778  0.2233 -0.1273  0.2251
11595TIP3    H156276   5.359   5.256   1.821  1.7603 -1.9282  3.4248
11595TIP3    H256277   5.476   5.347   1.790 -0.1246 -0.1505  1.3632
11596TIP3   OH256278   3.244   4.988  15.725 -0.1073  0.0221 -0.0167
11596TIP3    H156279   3.205   4.996  15.812  0.1037 -2.3098  0.3448
11596TIP3    H256280   3.170   4.994  15.665 -0.9086 -2.7892  0.5856
11597TIP3   OH256281   5.470   6.145   1.737  0.1187 -0.4304  0.2485
11597TIP3    H156282   5.411   6.168   1.666 -0.0255  2.1815  1.1711
11597TIP3    H256283   5.413   6.107   1.804 -0.1765 -0.0094  0.2337
11598TIP3   OH256284   4.271   0.253   5.853  0.0712 -0.3326  0.6799
11598TIP3    H156285   4.360   0.220   5.839 -0.0711 -0.8008  0.9020
11598TIP3    H256286   4.217   0.175   5.865 -0.6539 -0.1215 -0.9980
11599TIP3   OH256287   6.787   1.778  11.312 -0.9364 -0.2042 -0.0165
11599TIP3    H156288   6.771   1.873  11.305 -0.4436 -0.2728 -2.4090
11599TIP3    H256289   6.726   1.739  11.249  1.1661 -1.2235 -1.4440
11600TIP3   OH256290   0.463   2.450  15.184  0.0496  0.1478  0.4956
11600TIP3    H156291   0.431   2.407  15.105 -1.4582  0.1558  1.0965
11600TIP3    H256292   0.452   2.544  15.167  0.1926  0.1709  0.5248
11601TIP3   OH256293   3.085   0.738   0.740 -0.4159 -0.0073 -0.0268
11601TIP3    H156294   3.041   0.663   0.780 -0.7511  0.6901  0.9163
11601TIP3    H256295   3.108   0.708   0.652 -1.5263 -0.8523 -0.0375
11602TIP3   OH256296   3.149   4.547  16.648 -0.4919 -0.3191  0.7653
11602TIP3    H156297   3.149   4.638  16.676  0.3239  0.2351 -0.9841
11602TIP3    H256298   3.224   4.540  16.589 -1.0776 -1.9111  0.1892
11603TIP3   OH256299   4.755   0.041   5.172  0.2579  0.1724  0.8651
11603TIP3    H156300   4.789   0.015   5.086  0.3949 -0.3307  1.0693
11603TIP3    H256301   4.667   0.003   5.175  0.7973 -1.0525  1.5280
11604TIP3   OH256302   6.487   5.706  13.913  0.0991 -0.4505 -0.3783
11604TIP3    H156303   6.475   5.771  13.844 -0.2619 -0.6273 -0.4840
11604TIP3    H256304   6.555   5.743  13.969 -2.0167  1.3099  1.1038
11605TIP3   OH256305   5.704   1.142  13.735  0.4590  0.0874  0.0618
11605TIP3    H156306   5.619   1.173  13.766  0.5561 -0.9001  1.3838
11605TIP3    H256307   5.761   1.219  13.742 -0.2556  0.6764 -0.5560
11606TIP3   OH256308   6.498   0.322   0.708  0.4449  0.0822 -0.0790
11606TIP3    H156309   6.532   0.341   0.796  1.5050 -0.2288 -0.4218
11606TIP3    H256310   6.556   0.370   0.649  0.2974 -0.4617 -0.6690
11607TIP3   OH256311   0.225   0.944   4.579  0.3649  0.2212 -0.8374
11607TIP3    H156312   0.296   0.969   4.638 -0.3471  1.1978 -0.3887
11607TIP3    H256313   0.260   0.959   4.491  1.8527 -2.3304 -0.7494
11608TIP3   OH256314   3.131   2.146   3.595 -0.2157 -0.0804  0.0472
11608TIP3    H156315   3.060   2.210   3.602 -1.6506 -1.6077 -0.3001
11608TIP3    H256316   3.115   2.084   3.666  1.3796  0.1397  0.6143
11609TIP3   OH256317   3.646   4.299   3.142  0.2968 -0.4519  0.2142
11609TIP3    H156318   3.620   4.374   3.196 -1.4920 -2.3198  2.0178
11609TIP3    H256319   3.739   4.288   3.160  0.7039  1.6515 -0.4908
11610TIP3   OH256320   6.530   3.327   3.928 -0.2021 -0.8022 -0.2419
11610TIP3    H156321   6.614   3.358   3.960 -1.4580  3.4558 -0.7582
11610TIP3    H256322   6.483   3.296   4.005  0.9049 -0.8534  0.4043
11611TIP3   OH256323   1.103   5.588   1.276 -0.0399  0.2092 -0.3000
11611TIP3    H156324   1.032   5.540   1.318  0.6059  0.3616  0.9655
11611TIP3    H256325   1.183   5.549   1.310  0.5006  0.3081 -1.4117
11612TIP3   OH256326   1.860   0.262  12.447 -0.4481  0.3326 -0.0010
11612TIP3    H156327   1.800   0.220  12.510 -0.5438 -0.2083 -0.4486
11612TIP3    H256328   1.838   0.222  12.363  0.2272  0.4765 -0.2482
11613TIP3   OH256329   0.895   0.104  10.887  0.5121 -0.0859 -0.1523
11613TIP3    H156330   0.941   0.112  10.970  1.5829 -3.0824 -0.4175
11613TIP3    H256331   0.964   0.091  10.822 -0.5399 -1.8053 -0.9423
11614TIP3   OH256332   3.126   5.011   2.411 -0.4679 -0.4651  1.0117
11614TIP3    H156333   3.113   5.021   2.317  0.7143  1.9891  1.0637
11614TIP3    H256334   3.038   5.017   2.449 -1.0929 -2.8186 -0.0237
11615TIP3   OH256335   0.742   6.226  12.146  0.5610  0.2687 -0.3404
11615TIP3    H156336   0.691   6.160  12.098  1.1530 -0.4652  0.0343
11615TIP3    H256337   0.676   6.276  12.195  0.2138 -0.8656  0.3756
11616TIP3   OH256338   5.989   6.314   4.163 -0.6006  0.5619 -0.5988
11616TIP3    H156339   6.048   6.257   4.114  0.6718  0.5492  0.9071
11616TIP3    H256340   5.917   6.257   4.190  0.9948 -0.5244  1.4701
11617TIP3   OH256341   3.574   0.146   5.163 -0.3137  0.3005  0.0257
11617TIP3    H156342   3.622   0.145   5.245  0.6394 -1.2058 -0.5216
11617TIP3    H256343   3.498   0.089   5.179 -0.4166  0.4401  0.0336
11618TIP3   OH256344   3.639   6.313   3.312 -0.4693  0.3478 -0.4560
11618TIP3    H156345   3.561   6.265   3.341 -0.2637 -0.3871 -1.1175
11618TIP3    H256346   3.625   6.329   3.219  0.7733 -0.9721 -0.8834
11619TIP3   OH256347   5.606   0.027   1.286 -0.0425 -0.2382  0.0772
11619TIP3    H156348   5.604  -0.026   1.207 -1.2287 -1.5843  0.9714
11619TIP3    H256349   5.632   0.114   1.257  1.1127 -1.1073 -1.5426
11620TIP3   OH256350   1.040   2.045  15.538 -0.4619 -0.1948  0.4163
11620TIP3    H156351   1.111   1.983  15.518 -0.9254 -0.4323 -0.5408
11620TIP3    H256352   0.962   1.990  15.545 -0.6295  0.1165  1.0628
11621TIP3   OH256353   4.808   5.004  14.659  0.5100  0.4671 -0.3901
11621TIP3    H156354   4.756   5.070  14.614 -0.0572 -0.9943 -1.9253
11621TIP3    H256355   4.850   4.954  14.589  1.0989 -0.6731  0.7390
11622TIP3   OH256356   0.349   0.969  13.906 -0.5281 -0.5598 -0.2507
11622TIP3    H156357   0.351   0.996  13.814 -0.4410 -0.8448 -0.3329
11622TIP3    H256358   0.272   1.014  13.942  1.7332  2.8557  0.5694
11623TIP3   OH256359   0.932   3.997  14.635  0.1401 -0.1456  0.0885
11623TIP3    H156360   0.915   4.080  14.589  2.0421 -1.7680 -3.7479
11623TIP3    H256361   1.023   4.005  14.664 -0.7542  0.4643  2.8129
11624TIP3   OH256362   1.873   6.124   1.667  0.7280  0.0844 -0.0648
11624TIP3    H156363   1.838   6.186   1.603  0.4443  0.6251  0.6059
11624TIP3    H256364   1.803   6.059   1.677 -0.3799  1.5034  1.7408
11625TIP3   OH256365   4.363   2.847  17.145 -0.2044 -0.5394 -0.4238
11625TIP3    H156366   4.395   2.920  17.198  0.1020 -0.9974  0.0180
11625TIP3    H256367   4.438   2.788  17.137 -0.3967 -0.7169 -0.9394
11626TIP3   OH256368   4.179   6.470  16.677  0.1055 -0.0124  0.0442
11626TIP3    H156369   4.183   6.556  16.720  1.2021  0.4166 -0.8894
11626TIP3    H256370   4.155   6.409  16.747  0.7326  0.8434  1.0195
11627TIP3   OH256371   6.512   2.362  11.952 -0.2606  0.4328 -0.6893
11627TIP3    H156372   6.439   2.412  11.916  0.6517  1.2698 -1.3855
11627TIP3    H256373   6.588   2.418  11.940  0.2427  0.3282  1.6360
11628TIP3   OH256374   2.490   6.003  15.553 -0.0386  0.5282  0.0334
11628TIP3    H156375   2.419   6.044  15.503 -0.1956  1.2895  0.8547
11628TIP3    H256376   2.480   5.909  15.538 -2.0752  0.5325  1.2630
11629TIP3   OH256377   3.156   3.579  12.157  0.1883 -0.3396  0.3092
11629TIP3    H156378   3.183   3.635  12.084 -0.6830  0.0554  0.2847
11629TIP3    H256379   3.236   3.569  12.209  0.4813  0.5111  0.0435
11630TIP3   OH256380   5.254   2.450   3.304  0.0719  0.6952 -0.1062
11630TIP3    H156381   5.218   2.410   3.225  1.6824  0.4027 -0.7064
11630TIP3    H256382   5.265   2.543   3.280  1.0400  0.5081 -0.4122
11631TIP3   OH256383   1.567   0.786  14.199  0.1592  0.1795  0.0586
11631TIP3    H156384   1.658   0.763  14.177  0.3334  0.9260 -0.0361
11631TIP3    H256385   1.574   0.870  14.244 -0.5318  0.5157 -0.4430
11632TIP3   OH256386   2.173   0.762  12.792 -0.3907  0.2593 -0.0315
11632TIP3    H156387   2.144   0.844  12.832 -0.1697  1.4216 -2.1766
11632TIP3    H256388   2.114   0.749  12.718  0.2413 -0.9676 -0.3346
11633TIP3   OH256389   3.459   6.262  16.688 -0.1590 -0.2804 -0.2196
11633TIP3    H156390   3.532   6.256  16.750  0.3371  0.7175 -0.6981
11633TIP3    H256391   3.472   6.188  16.628 -0.7274 -1.3423  0.9432
11634TIP3   OH256392   3.359   1.458   5.173 -0.1135 -0.0619  0.2259
11634TIP3    H156393   3.338   1.445   5.265  0.6300 -0.9489  0.2811
11634TIP3    H256394   3.288   1.513   5.139 -1.3718 -1.2636  0.8750
11635TIP3   OH256395   0.455   0.409  16.227 -0.1811 -0.2139  0.0288
11635TIP3    H156396   0.516   0.482  16.222 -0.5370  0.1730  1.1732
11635TIP3    H256397   0.509   0.334  16.250 -0.0357 -0.0174  0.3213
11636TIP3   OH256398   1.324   0.128  14.936 -0.2577  0.7994 -0.8135
11636TIP3    H156399   1.418   0.135  14.919 -0.0237  0.7857  0.4981
11636TIP3    H256400   1.309   0.034  14.952 -0.3874  0.8976 -0.3657
11637TIP3   OH256401   3.009   0.309  15.916  0.3025  0.2774  0.0652
11637TIP3    H156402   3.023   0.400  15.943  0.1182 -0.0833  1.3921
11637TIP3    H256403   3.082   0.291  15.856  0.5897  1.1557  0.1326
11638TIP3   OH256404   2.321   4.905   0.885 -0.0935  0.2080 -0.3167
11638TIP3    H156405   2.258   4.834   0.894  0.8593 -0.5148  0.8393
11638TIP3    H256406   2.340   4.909   0.791 -2.8883  1.3705 -0.8874
11639TIP3   OH256407   6.163   1.377   5.221  0.0982 -0.5476  0.1559
11639TIP3    H156408   6.098   1.423   5.168  0.2911  1.1052  1.3111
11639TIP3    H256409   6.194   1.443   5.283  1.5689 -1.8139  0.7939
11640TIP3   OH256410   4.352   1.922  16.363  0.6040  0.4467  0.5369
11640TIP3    H156411   4.430   1.884  16.404 -1.1931 -2.7912  1.1003
11640TIP3    H256412   4.332   1.999  16.417  1.5034 -0.5577  2.3684
11641TIP3   OH256413   3.664   1.456   1.089 -0.3544 -0.0020 -0.3765
11641TIP3    H156414   3.723   1.394   1.046  0.7978  1.1204 -0.4361
11641TIP3    H256415   3.639   1.412   1.171 -0.0788 -0.8206 -0.7297
11642TIP3   OH256416   6.651   4.122  13.225 -0.0917 -0.5299  0.1544
11642TIP3    H156417   6.673   4.041  13.179  0.6813 -0.1898 -0.0915
11642TIP3    H256418   6.568   4.103  13.269 -0.4130 -1.1327 -0.6922
11643TIP3   OH256419   5.683   2.365   1.739 -0.7461 -0.3449 -0.1292
11643TIP3    H156420   5.628   2.320   1.803 -0.0715  0.1554  0.8238
11643TIP3    H256421   5.642   2.347   1.654 -1.3900 -1.3936  0.3996
11644TIP3   OH256422   4.606   4.514   3.515 -0.0715  0.3725  0.3598
11644TIP3    H156423   4.657   4.438   3.486 -0.8345  0.1974 -0.5381
11644TIP3    H256424   4.528   4.477   3.556 -0.9878  0.6807 -1.0820
11645TIP3   OH256425   1.040   1.473   2.560  0.3741  0.2681  0.3309
11645TIP3    H156426   1.068   1.400   2.616  1.6228  1.3002  1.0806
11645TIP3    H256427   0.947   1.485   2.582 -0.7184 -3.1232 -2.1187
11646TIP3   OH256428   1.775   4.541   3.346 -0.0955  0.1206 -0.3054
11646TIP3    H156429   1.716   4.473   3.311 -0.2728  0.1323 -0.0260
11646TIP3    H256430   1.746   4.622   3.305 -0.3566  0.1465 -0.0694
11647TIP3   OH256431   3.276   0.648   1.054  0.0460  0.5421 -0.3804
11647TIP3    H156432   3.291   0.713   0.986 -2.0929  2.2457  0.7125
11647TIP3    H256433   3.298   0.693   1.135 -2.2454  0.2323  0.4535
11648TIP3   OH256434   2.565   1.500  16.192 -0.1191  0.2590 -0.5812
11648TIP3    H156435   2.591   1.478  16.281  1.2002  0.1975 -0.9788
11648TIP3    H256436   2.470   1.514  16.198 -0.1129 -0.1811  0.7349
11649TIP3   OH256437   4.179   0.028  12.723 -0.1584 -0.0341  0.0765
11649TIP3    H156438   4.250   0.011  12.786 -1.0859 -0.7491  0.9463
11649TIP3    H256439   4.222   0.026  12.638  0.6359 -1.8020  0.5007
11650TIP3   OH256440   6.103   6.221   0.933 -0.0579  0.2938 -0.0310
11650TIP3    H156441   6.094   6.277   0.856 -0.7862 -0.5574 -0.5664
11650TIP3    H256442   6.041   6.150   0.919  0.8224 -0.6277  0.6711
11651TIP3   OH256443   0.837   3.228   2.905  0.0477  0.1042  0.2901
11651TIP3    H156444   0.764   3.290   2.902  0.5684  0.7734  1.2169
11651TIP3    H256445   0.905   3.269   2.851  0.9649  1.1135  2.1576
11652TIP3   OH256446   4.963   5.869   2.866  0.0247 -0.0074 -0.4562
11652TIP3    H156447   4.907   5.835   2.796  0.1621 -0.5279 -0.3195
11652TIP3    H256448   4.940   5.815   2.942  0.4253  0.0425 -0.3005
11653TIP3   OH256449   0.268   1.492   3.274  0.1663  0.1285 -0.3047
11653TIP3    H156450   0.226   1.420   3.227 -0.2470  0.0632  0.1719
11653TIP3    H256451   0.203   1.563   3.273  1.4730  1.3826 -2.9503
11654TIP3   OH256452   5.894   5.269   4.026  0.3796  0.0512 -0.4405
11654TIP3    H156453   5.969   5.306   4.072 -2.9741  3.4066  2.7376
11654TIP3    H256454   5.871   5.334   3.960 -0.0718 -0.6911 -1.0256
11655TIP3   OH256455   6.725   3.426  12.852 -0.2276 -0.3354 -0.0141
11655TIP3    H156456   6.711   3.363  12.922 -2.0269  1.5384  1.3719
11655TIP3    H256457   6.638   3.458  12.830  0.4075 -0.1007 -2.4017
11656TIP3   OH256458   5.870   6.128   6.428  0.0551 -0.6442 -0.3468
11656TIP3    H156459   5.867   6.033   6.441  2.7921 -0.9276 -1.6121
11656TIP3    H256460   5.957   6.153   6.457 -0.2981  1.3505 -0.9953
11657TIP3   OH256461   4.266   4.462   1.823 -0.2163  0.0842  0.4767
11657TIP3    H156462   4.203   4.522   1.864  0.3933  0.7752  0.4124
11657TIP3    H256463   4.271   4.491   1.732 -2.4200 -2.1492 -0.4307
11658TIP3   OH256464   5.838   2.604  17.005 -0.1091 -0.6029 -0.2291
11658TIP3    H156465   5.815   2.697  16.995  1.0096 -0.4658 -1.7613
11658TIP3    H256466   5.763   2.566  17.051 -1.1515  0.7973 -0.7108
11659TIP3   OH256467   1.697   0.868  16.481  0.0080 -0.3483  0.1946
11659TIP3    H156468   1.743   0.923  16.418  1.7084 -1.3441  0.5230
11659TIP3    H256469   1.605   0.888  16.467  0.4483  0.6859 -1.4480
11660TIP3   OH256470   6.552   2.528   0.933  0.2304 -0.5770  0.2202
11660TIP3    H156471   6.467   2.537   0.974  0.3882 -1.5460  0.7686
11660TIP3    H256472   6.615   2.540   1.005  0.5797  0.9024 -0.3141
11661TIP3   OH256473   6.229   2.181  11.055 -0.5532 -0.5456  0.6219
11661TIP3    H156474   6.243   2.254  10.994 -1.5032  0.3501  1.4516
11661TIP3    H256475   6.311   2.132  11.053 -0.4497 -0.3402 -1.1172
11662TIP3   OH256476   4.815   3.108   2.139  0.2573 -0.0161  0.2879
11662TIP3    H156477   4.906   3.136   2.139  0.2246  0.1286  1.2818
11662TIP3    H256478   4.797   3.084   2.230 -0.7964  0.3028  0.1796
11663TIP3   OH256479   4.771   1.835  12.616  0.4646  0.8893 -0.4190
11663TIP3    H156480   4.772   1.931  12.610  1.7042  0.8128 -1.7977
11663TIP3    H256481   4.679   1.813  12.633  0.0915  2.2938 -0.5360
11664TIP3   OH256482   1.824   2.036   0.198  0.1904  0.2866  0.3961
11664TIP3    H156483   1.904   2.075   0.233  1.3249 -1.6202  0.0190
11664TIP3    H256484   1.761   2.108   0.194  1.4894  1.5322  1.9140
11665TIP3   OH256485   6.560   4.072  12.912 -0.2223  0.3457 -0.2996
11665TIP3    H156486   6.535   4.023  12.833 -0.1972 -0.0662 -0.0545
11665TIP3    H256487   6.534   4.162  12.893  2.5082  0.8408 -1.9930
11666TIP3   OH256488   6.060   3.892  15.785  0.2750  0.1508  0.1380
11666TIP3    H156489   6.047   3.977  15.827  0.3814  0.1555  0.1618
11666TIP3    H256490   5.978   3.876  15.737  0.3832  0.4199 -0.1360
11667TIP3   OH256491   1.420   3.015  11.260 -0.7008 -0.1347  0.1001
11667TIP3    H156492   1.444   3.040  11.349 -0.7650  3.7986 -0.8920
11667TIP3    H256493   1.325   3.012  11.260 -0.7573  1.3674 -0.1791
11668TIP3   OH256494   4.614   4.489   2.169 -0.1890 -0.1806 -0.1275
11668TIP3    H156495   4.626   4.571   2.216 -1.2625 -0.8978  1.4309
11668TIP3    H256496   4.566   4.514   2.090  1.4366  0.9969 -0.7826
11669TIP3   OH256497   4.393   4.389   4.751 -0.1231 -0.9067  0.2446
11669TIP3    H156498   4.433   4.455   4.807  0.8884 -1.4306  0.1582
11669TIP3    H256499   4.462   4.323   4.739 -0.1880 -0.6075 -1.9423
11670TIP3   OH256500   2.719   4.161  11.521  0.3996  0.2231 -0.0176
11670TIP3    H156501   2.637   4.125  11.488 -0.1447  1.3386  0.0953
11670TIP3    H256502   2.763   4.086  11.563 -0.1160 -0.5889 -0.9051
11671TIP3   OH256503   3.220   5.995  15.450 -0.5647 -0.1240 -0.0576
11671TIP3    H156504   3.243   5.985  15.358  0.8361  0.8703  0.1717
11671TIP3    H256505   3.211   5.905  15.482  1.1046 -0.5281 -0.6459
11672TIP3   OH256506   3.054   3.922  14.410 -0.2250 -0.2559 -0.0691
11672TIP3    H156507   3.106   3.846  14.384 -0.5903  0.0172 -1.6412
11672TIP3    H256508   2.965   3.888  14.419 -0.2579 -0.1652 -0.0560
11673TIP3   OH256509   1.213   1.207  13.701  0.2152  0.0660 -0.2026
11673TIP3    H156510   1.231   1.213  13.607  0.4644  0.1294 -0.1509
11673TIP3    H256511   1.276   1.144  13.734  0.1842  0.1076 -0.0629
11674TIP3   OH256512   6.225   3.440   0.467 -0.6714 -0.3830  0.0827
11674TIP3    H156513   6.273   3.456   0.548 -0.5913 -1.1568  0.1911
11674TIP3    H256514   6.190   3.526   0.442 -0.3031 -0.0583  0.6833
11675TIP3   OH256515   4.588   2.765  16.829  0.2194 -0.6141  0.4040
11675TIP3    H156516   4.611   2.742  16.739 -1.5878  0.1551 -0.2836
11675TIP3    H256517   4.500   2.727  16.841 -0.6320  1.4848  0.9765
11676TIP3   OH256518   2.271   5.437   0.238 -0.1740  0.7697 -0.4624
11676TIP3    H156519   2.232   5.471   0.158 -0.1913  0.2969 -0.6555
11676TIP3    H256520   2.209   5.371   0.270 -0.4140  1.3196  0.2117
11677TIP3   OH256521   0.871   3.507   4.410  0.0186  0.4196 -0.2979
11677TIP3    H156522   0.808   3.437   4.396 -1.3586  1.5014  0.2873
11677TIP3    H256523   0.879   3.550   4.325  1.6757 -1.0832 -0.9188
11678TIP3   OH256524   5.832   2.856  14.351  0.8788  0.5891 -0.1421
11678TIP3    H156525   5.857   2.810  14.271  1.0152 -2.5266  1.6341
11678TIP3    H256526   5.745   2.822  14.373  1.2992  0.5720  1.6161
11679TIP3   OH256527   1.738   0.059   5.761  0.4607  0.3819 -0.5942
11679TIP3    H156528   1.790   0.022   5.832  2.9492  2.3342 -1.3126
11679TIP3    H256529   1.683  -0.013   5.731  2.3930 -1.6187  0.5605
11680TIP3   OH256530   1.433   5.796   3.004  0.0984 -0.4128  0.3185
11680TIP3    H156531   1.359   5.802   2.943 -0.1117  0.2367  0.6324
11680TIP3    H256532   1.510   5.801   2.947 -0.0925 -1.5319 -0.0485
11681TIP3   OH256533   0.328   3.153   3.479  0.0670  0.0488 -0.2941
11681TIP3    H156534   0.254   3.193   3.433 -0.8410 -2.1829 -0.8258
11681TIP3    H256535   0.325   3.190   3.567 -1.0108  0.7918 -0.6309
11682TIP3   OH256536   5.183   1.286   5.667  1.0108  0.4164 -0.0465
11682TIP3    H156537   5.111   1.335   5.707 -0.7432 -0.5420 -1.9412
11682TIP3    H256538   5.197   1.212   5.726 -0.1390  0.1508 -0.0904
11683TIP3   OH256539   1.442   2.495  13.238 -0.0891  0.0949 -0.3803
11683TIP3    H156540   1.523   2.506  13.287 -1.3332 -1.1278  2.0552
11683TIP3    H256541   1.414   2.584  13.217  1.1784  0.5758 -0.0773
11684TIP3   OH256542   1.562   6.187  15.305 -0.4154  0.0541 -0.3096
11684TIP3    H156543   1.485   6.131  15.315  0.6500 -1.2113  1.0433
11684TIP3    H256544   1.539   6.269  15.350 -1.6332  0.3695 -1.4918
11685TIP3   OH256545   1.437   3.231  16.408 -0.2970 -0.5860 -0.0825
11685TIP3    H156546   1.466   3.265  16.323 -0.2696 -0.9293 -0.2085
11685TIP3    H256547   1.354   3.186  16.389  0.8311 -2.6230 -0.3244
11686TIP3   OH256548   6.109   3.234  13.915 -0.1594 -0.2076 -0.1016
11686TIP3    H156549   6.154   3.282  13.985  1.2914  1.8347 -2.3812
11686TIP3    H256550   6.019   3.265  13.920  0.1797  0.7716  0.1445
11687TIP3   OH256551   4.114   0.425  12.339  0.2190 -0.3089  0.0406
11687TIP3    H156552   4.196   0.425  12.389  1.1122  0.4743 -1.3691
11687TIP3    H256553   4.055   0.368  12.389  1.4661 -0.5008  1.3310
11688TIP3   OH256554   2.820   5.513   1.789  0.9129  0.0589 -0.5040
11688TIP3    H156555   2.883   5.512   1.861  1.5111  1.0168 -1.0129
11688TIP3    H256556   2.818   5.604   1.759  0.5768 -0.3038 -1.6157
11689TIP3   OH256557   3.503   3.637   1.438 -0.1076 -0.2661  0.4489
11689TIP3    H156558   3.413   3.606   1.425 -0.1890  0.0039  0.3734
11689TIP3    H256559   3.514   3.706   1.372  0.9842 -2.0423 -1.3087
11690TIP3   OH256560   0.791   3.126   5.067  0.1471 -0.3112  0.0275
11690TIP3    H156561   0.871   3.089   5.103  1.3809  1.9683 -0.3361
11690TIP3    H256562   0.722   3.065   5.096  1.6243 -0.8501  2.6040
11691TIP3   OH256563   3.018   3.082   0.431 -0.2302  0.4857  0.1234
11691TIP3    H156564   3.037   3.013   0.367  2.0520  0.3937  0.8540
11691TIP3    H256565   3.094   3.141   0.425 -1.4835  2.1821  0.5106
11692TIP3   OH256566   6.357   0.427  11.895  0.2768  0.3164  0.1460
11692TIP3    H156567   6.425   0.373  11.855 -1.3573 -0.9309 -1.0176
11692TIP3    H256568   6.333   0.489  11.827 -0.1792  0.3674  0.3538
11693TIP3   OH256569   2.142   6.544   2.815  0.1105  0.1390 -0.3495
11693TIP3    H156570   2.127   6.629   2.772 -2.3847 -0.1754 -0.1678
11693TIP3    H256571   2.191   6.493   2.751  1.6617  1.7151 -0.4554
11694TIP3   OH256572   4.598   5.666  15.628 -0.2254  0.3829  0.1667
11694TIP3    H156573   4.647   5.620  15.560  0.3530  0.4330  0.5411
11694TIP3    H256574   4.659   5.672  15.702 -0.9414  0.0884  0.7878
11695TIP3   OH256575   0.517   0.935  14.940 -0.8672 -0.0857 -0.3071
11695TIP3    H156576   0.450   0.893  14.886  0.2267 -1.3405 -0.7260
11695TIP3    H256577   0.534   1.019  14.897  0.7514 -1.5142 -2.5962
11696TIP3   OH256578   4.261   2.028   2.916  0.3171 -0.6451  0.3465
11696TIP3    H156579   4.225   1.968   2.981  0.2709  0.4158  1.3220
11696TIP3    H256580   4.239   1.989   2.831 -2.7908 -0.2506  0.9073
11697TIP3   OH256581   3.348   3.005   4.666 -0.2126 -0.2578 -0.0461
11697TIP3    H156582   3.353   2.935   4.601 -1.6684 -0.0186 -0.4260
11697TIP3    H256583   3.359   3.085   4.616 -0.4053 -0.1179  0.1363
11698TIP3   OH256584   5.403   5.231  14.043 -0.0607 -0.0031  0.3954
11698TIP3    H156585   5.347   5.156  14.025  0.6677 -0.4840  0.0984
11698TIP3    H256586   5.393   5.287  13.966  0.5055 -0.4940 -0.0508
11699TIP3   OH256587   1.455   5.102   5.363  0.6241  0.8127  0.1344
11699TIP3    H156588   1.363   5.128   5.356  0.8315  1.3417 -0.6939
11699TIP3    H256589   1.504   5.182   5.344  1.2690 -0.1525 -2.3958
11700TIP3   OH256590   3.866   0.847  12.910 -0.5658  0.0328 -0.2911
11700TIP3    H156591   3.939   0.827  12.851  0.8905 -0.1852  1.5498
11700TIP3    H256592   3.855   0.767  12.962 -0.3094  1.0259  1.3154
11701TIP3   OH256593   4.194   1.632   1.646  0.0614  0.3324  0.7547
11701TIP3    H156594   4.099   1.635   1.658  0.0167  0.9207  0.2545
11701TIP3    H256595   4.230   1.641   1.735 -0.3123  2.3592  0.7087
11702TIP3   OH256596   6.317   3.197   1.493 -0.4440  0.3035 -1.1340
11702TIP3    H156597   6.337   3.228   1.581  1.8159  0.5203 -1.6879
11702TIP3    H256598   6.338   3.104   1.495  0.6301  0.5222 -1.7096
11703TIP3   OH256599   6.581   2.858   4.636  0.7231 -0.4663 -0.3681
11703TIP3    H156600   6.646   2.928   4.629  1.4010 -1.0985 -0.5329
11703TIP3    H256601   6.500   2.902   4.661  1.4924  0.2045  0.9930
11704TIP3   OH256602   3.529   4.721   5.068 -0.1078  0.5924  0.0903
11704TIP3    H156603   3.584   4.643   5.073  0.4455  0.7420 -2.9444
11704TIP3    H256604   3.559   4.776   5.140  1.3108 -0.8384  0.6214
11705TIP3   OH256605   2.311   6.159   4.606 -0.5518 -0.1015 -0.1911
11705TIP3    H156606   2.244   6.091   4.598 -1.4022  0.5733  0.9167
11705TIP3    H256607   2.265   6.234   4.644  0.7754  0.4696  0.3492
11706TIP3   OH256608   0.592   4.564  15.394  0.1450  0.2427  0.6893
11706TIP3    H156609   0.608   4.650  15.355 -1.7435  0.5454  0.4898
11706TIP3    H256610   0.647   4.504  15.344 -0.5255  0.9726 -0.9844
11707TIP3   OH256611   0.015   5.404   0.134  0.7783 -0.1377 -0.1879
11707TIP3    H156612  -0.044   5.474   0.108  0.0078 -0.6707  0.1224
11707TIP3    H256613  -0.019   5.373   0.218  1.1350 -0.8561 -0.3008
11708TIP3   OH256614   5.229   3.114   0.054  0.0297  0.2316  0.0497
11708TIP3    H156615   5.211   3.208   0.047  0.2109  0.1127 -2.0922
11708TIP3    H256616   5.158   3.072   0.007 -0.5953 -0.7931  1.8467
11709TIP3   OH256617   3.805   0.681  12.509  0.5636 -0.1858  0.1553
11709TIP3    H156618   3.820   0.615  12.576 -1.8799 -1.9711 -0.9452
11709TIP3    H256619   3.870   0.661  12.441  0.3680 -0.9581  0.1896
11710TIP3   OH256620   5.320   4.157   1.695 -0.7011  0.3270 -0.9932
11710TIP3    H156621   5.407   4.168   1.735 -1.0805 -3.6060  1.1562
11710TIP3    H256622   5.334   4.092   1.626 -1.8006  0.2211 -1.1201
11711TIP3   OH256623   0.381   4.641  17.046 -0.2611 -0.1310  0.2990
11711TIP3    H156624   0.339   4.579  17.105  0.6019  0.3977  1.5089
11711TIP3    H256625   0.310   4.696  17.014 -0.6551  0.0297  1.4216
11712TIP3   OH256626   3.136   5.075  17.073 -0.1064  0.1742 -0.2104
11712TIP3    H156627   3.066   5.016  17.043 -0.2302  0.5069 -0.5746
11712TIP3    H256628   3.217   5.026  17.059  0.0282  1.1866 -3.2159
11713TIP3   OH256629   6.687   5.578   1.637 -0.2738  0.6166 -0.4340
11713TIP3    H156630   6.660   5.655   1.687  0.2773  0.6747 -0.2220
11713TIP3    H256631   6.731   5.522   1.701 -1.8679 -0.5049 -0.2832
11714TIP3   OH256632   5.827   3.166   0.462  0.1773 -0.0646 -0.5153
11714TIP3    H156633   5.809   3.228   0.391 -1.1283 -0.1875 -0.2995
11714TIP3    H256634   5.825   3.080   0.419 -1.5083 -0.2062 -0.1779
11715TIP3   OH256635   1.893   2.211   3.570  0.1741 -0.2233  0.3266
11715TIP3    H156636   1.858   2.163   3.495 -0.5445 -0.5567  0.8638
11715TIP3    H256637   1.818   2.219   3.630  0.4230  1.1232  0.4619
11716TIP3   OH256638   3.715   1.331   0.065  0.1201  0.9506 -0.4261
11716TIP3    H156639   3.803   1.293   0.060 -0.6091 -0.9147  0.3362
11716TIP3    H256640   3.697   1.362  -0.023  1.1344  0.3811 -0.8417
11717TIP3   OH256641   4.018   0.786  16.459  0.0053  0.1866  0.0285
11717TIP3    H156642   4.112   0.796  16.441  0.6498 -0.7614  2.6340
11717TIP3    H256643   4.009   0.695  16.485 -1.7008  0.2251 -0.4041
11718TIP3   OH256644   2.614   5.752  15.611 -0.2196  0.2067  0.3844
11718TIP3    H156645   2.651   5.716  15.530 -0.8471  2.6022 -1.0123
11718TIP3    H256646   2.664   5.832  15.627  0.6634 -0.8215  3.0338
11719TIP3   OH256647   2.979   5.136  11.819 -0.2693  0.0226  0.0294
11719TIP3    H156648   3.063   5.164  11.785 -0.8515 -0.0496 -1.4961
11719TIP3    H256649   2.991   5.043  11.838 -0.5198 -0.4249 -1.8937
11720TIP3   OH256650   0.021   4.376   4.046 -0.7351 -0.2157  0.5366
11720TIP3    H156651   0.086   4.445   4.056  0.2356 -0.9531 -0.5405
11720TIP3    H256652  -0.028   4.376   4.128 -0.4078  1.4030  0.7351
11721TIP3   OH256653   0.920   1.075  16.583 -0.6858 -0.4915  0.2943
11721TIP3    H156654   0.995   1.060  16.640 -0.4649 -1.8285 -0.3445
11721TIP3    H256655   0.942   1.030  16.501 -0.2359  2.7925 -1.5124
11722TIP3   OH256656   4.865   5.925   4.864 -0.3119  0.2885  0.1927
11722TIP3    H156657   4.864   5.950   4.956  0.2005  2.2491 -0.2983
11722TIP3    H256658   4.941   5.970   4.828  1.2524 -2.8778 -0.5771
11723TIP3   OH256659   3.358   3.150   2.540 -0.2546  0.2510  0.0752
11723TIP3    H156660   3.386   3.239   2.516 -0.0645  0.4116  0.8918
11723TIP3    H256661   3.384   3.140   2.631  0.1830 -0.8460 -0.1648
11724TIP3   OH256662   5.047   3.723  14.351 -0.4795  0.0603 -0.2109
11724TIP3    H156663   5.041   3.630  14.374 -1.3021 -0.0705 -0.9307
11724TIP3    H256664   4.957   3.754  14.354 -0.4729  0.3043 -2.1347
11725TIP3   OH256665   6.039   5.440  17.265 -0.3749 -0.0297 -0.2022
11725TIP3    H156666   6.103   5.369  17.263  1.3463  1.5102 -2.2589
11725TIP3    H256667   6.075   5.502  17.328 -1.3309 -0.4555  0.7822
11726TIP3   OH256668   1.162   4.657  14.652 -0.2178  0.4833 -0.0130
11726TIP3    H156669   1.187   4.673  14.561  0.0847  1.5801  0.2646
11726TIP3    H256670   1.157   4.744  14.692  0.4454 -0.0351  1.2276
11727TIP3   OH256671   1.929   5.103  11.909  0.1888  0.2350  0.3010
11727TIP3    H156672   2.022   5.111  11.929  0.8246 -2.4513 -1.3742
11727TIP3    H256673   1.886   5.164  11.969  2.9293  0.7108  1.8371
11728TIP3   OH256674   0.422   2.107  16.667 -0.2924 -0.0762  0.2772
11728TIP3    H156675   0.482   2.038  16.641  0.3058  1.1402 -1.6066
11728TIP3    H256676   0.337   2.063  16.673  0.4449 -1.4197  1.2386
11729TIP3   OH256677   1.052   6.523  12.438 -0.2187  0.3470  0.3477
11729TIP3    H156678   1.111   6.457  12.475  0.6948  1.0085  0.0989
11729TIP3    H256679   1.067   6.601  12.492 -1.2854  0.3543  0.6371
11730TIP3   OH256680   0.029   4.111  11.283 -0.0602 -0.1812 -0.0925
11730TIP3    H156681   0.050   4.144  11.195 -1.7184 -0.2296 -0.5121
11730TIP3    H256682   0.035   4.016  11.275 -0.7873 -0.2092 -0.3018
11731TIP3   OH256683   2.549   0.467  15.131 -0.7786  0.1622 -0.4025
11731TIP3    H156684   2.517   0.420  15.208 -0.3869  0.0110 -0.3322
11731TIP3    H256685   2.496   0.432  15.059  0.1329 -1.0682 -0.4999
11732TIP3   OH256686   6.089   6.077  14.422  0.5756 -0.4066 -0.3763
11732TIP3    H156687   6.127   6.150  14.471 -0.0525 -1.0489  1.1244
11732TIP3    H256688   6.125   6.085  14.334  2.1192  0.5123  0.3218
11733TIP3   OH256689   1.707   3.098  14.901 -0.1511 -0.0786 -0.2578
11733TIP3    H156690   1.715   3.161  14.973 -2.0572  0.7871 -0.7612
11733TIP3    H256691   1.755   3.137  14.828  1.2879 -0.6813  0.3559
11734TIP3   OH256692   3.503   4.839   4.460 -0.0963 -0.0754  0.5310
11734TIP3    H156693   3.508   4.908   4.525 -0.5681  1.1974 -0.7436
11734TIP3    H256694   3.578   4.855   4.402 -2.9392  2.4183 -2.6495
11735TIP3   OH256695   3.872   3.897   4.547  0.2395 -0.5505  0.3346
11735TIP3    H156696   3.912   3.896   4.634 -1.2552 -0.2562  1.0588
11735TIP3    H256697   3.779   3.914   4.564  0.0837  0.5224 -1.3894
11736TIP3   OH256698   5.645   2.477   1.047 -0.3729  0.1029  0.1009
11736TIP3    H156699   5.668   2.413   1.114  0.0385 -0.4128 -0.5279
11736TIP3    H256700   5.651   2.562   1.091 -0.6223 -0.2680  0.8541
11737TIP3   OH256701   3.723   5.758  14.186 -0.2183 -0.2454 -0.3928
11737TIP3    H156702   3.794   5.730  14.244 -1.8406 -1.9456  0.8314
11737TIP3    H256703   3.661   5.802  14.244 -0.9743 -0.3061 -1.1498
11738TIP3   OH256704   6.568   6.437  16.512 -0.4729  0.3986 -0.5278
11738TIP3    H156705   6.655   6.451  16.473 -0.1241  0.5156  0.2806
11738TIP3    H256706   6.580   6.458  16.605 -1.6036  1.3428 -0.5977
11739TIP3   OH256707   0.246   6.464  11.525  0.0920  0.3356 -0.2071
11739TIP3    H156708   0.159   6.435  11.498  0.9214 -3.0020  0.5216
11739TIP3    H256709   0.247   6.452  11.620  1.1393  0.9236 -0.1387
11740TIP3   OH256710   1.507   5.234   2.191  0.0210 -0.2003 -0.6401
11740TIP3    H156711   1.519   5.201   2.102 -0.6578  0.7476 -1.0943
11740TIP3    H256712   1.487   5.156   2.243  2.2760 -1.0004 -0.9408
11741TIP3   OH256713   0.301   0.153   4.165 -0.0634 -0.4714 -0.3995
11741TIP3    H156714   0.252   0.167   4.246  0.3686 -2.3754  0.2180
11741TIP3    H256715   0.258   0.211   4.101 -1.9181 -0.7070  0.5847
11742TIP3   OH256716   4.820   2.879   0.706  0.0419  0.4448  0.9755
11742TIP3    H156717   4.845   2.874   0.799  0.2281  0.5025  0.9294
11742TIP3    H256718   4.903   2.868   0.659  0.1426  1.7725  0.8273
11743TIP3   OH256719   3.436   6.598  15.969  0.6455 -0.1443 -0.1999
11743TIP3    H156720   3.449   6.575  16.061  1.0185  2.7410  0.5272
11743TIP3    H256721   3.512   6.561  15.924  1.0206 -0.6423  0.8319
11744TIP3   OH256722   4.325   2.850  14.964 -0.3363  0.4056  0.0084
11744TIP3    H156723   4.392   2.782  14.964 -1.6532 -0.9047  1.3984
11744TIP3    H256724   4.374   2.932  14.955  1.1453 -0.7973 -3.4732
11745TIP3   OH256725   3.267   0.371   4.073  0.4005  0.1247  0.5540
11745TIP3    H156726   3.292   0.427   3.999 -2.2990  0.0677 -0.4701
11745TIP3    H256727   3.225   0.295   4.032  0.6861 -0.8812  2.0887
11746TIP3   OH256728   2.813   4.589  13.246 -0.0895 -0.0768  0.0292
11746TIP3    H156729   2.869   4.520  13.211  1.1442  1.4432 -1.0596
11746TIP3    H256730   2.769   4.625  13.169  2.5605  3.2257 -0.0789
11747TIP3   OH256731   6.748   2.406  15.642  1.2039  0.4291 -0.2779
11747TIP3    H156732   6.773   2.467  15.711  0.7398 -0.6591  0.8776
11747TIP3    H256733   6.819   2.341  15.641  0.3147 -0.5644  0.4212
11748TIP3   OH256734   2.868   2.352   1.135 -0.1290 -0.0716  0.0847
11748TIP3    H156735   2.912   2.389   1.058  1.0142  2.2119  1.7567
11748TIP3    H256736   2.801   2.417   1.158  0.0311 -0.3619  1.4312
11749TIP3   OH256737   4.591   5.269  13.115  0.0169  0.2221 -0.4142
11749TIP3    H156738   4.529   5.257  13.043 -0.7691 -0.2203  0.3171
11749TIP3    H256739   4.660   5.325  13.079 -1.6104  2.0399 -0.7784
11750TIP3   OH256740   4.872   5.645  13.175 -0.0598 -0.1047  0.0995
11750TIP3    H156741   4.819   5.718  13.206  1.6513  0.7645  1.0821
11750TIP3    H256742   4.929   5.685  13.108 -0.1351 -0.8576 -0.4178
11751TIP3   OH256743   4.127   5.382   5.599 -0.1408  0.0260  0.5480
11751TIP3    H156744   4.095   5.376   5.509  0.0063  2.1314  0.3277
11751TIP3    H256745   4.188   5.309   5.607 -0.6782 -0.6034 -0.8413
11752TIP3   OH256746   3.797   0.126  13.295 -0.5465 -0.4355 -0.0643
11752TIP3    H156747   3.833   0.140  13.208 -1.6105  0.2100 -0.4073
11752TIP3    H256748   3.852   0.179  13.353  0.3718 -1.1313 -0.2872
11753TIP3   OH256749   0.156   0.023  14.799  0.2025  0.4159  0.1315
11753TIP3    H156750   0.109  -0.020  14.871  0.8598 -1.1190 -0.3325
11753TIP3    H256751   0.244  -0.014  14.803  0.8251  1.8166 -0.2346
11754TIP3   OH256752   3.359   3.918   3.125 -0.5040 -0.1697 -0.2884
11754TIP3    H156753   3.268   3.950   3.124 -0.4736 -0.0853 -0.3983
11754TIP3    H256754   3.406   3.980   3.069 -0.5395 -0.6944 -0.8941
11755TIP3   OH256755   0.279   2.072   0.343 -0.0341  0.1174 -0.1798
11755TIP3    H156756   0.334   2.144   0.314  1.2669 -1.1057 -0.8124
11755TIP3    H256757   0.222   2.053   0.268 -0.8906  0.9571  0.2472
11756TIP3   OH256758   2.525   1.932   4.195  0.1971 -0.0470 -0.1916
11756TIP3    H156759   2.459   1.882   4.146 -0.4470  1.1324 -0.5490
11756TIP3    H256760   2.606   1.920   4.146 -0.4919  1.3387 -1.7325
11757TIP3   OH256761   0.898   1.866  11.497 -0.2405  0.1428 -0.1503
11757TIP3    H156762   0.810   1.853  11.532 -0.8915  2.2863 -0.8953
11757TIP3    H256763   0.889   1.940  11.436  2.2533  1.0392  0.4932
11758TIP3   OH256764   1.398   1.788   6.680  0.1450 -1.2570 -0.5109
11758TIP3    H156765   1.431   1.767   6.593  1.4265 -2.1163  0.1695
11758TIP3    H256766   1.356   1.707   6.710 -2.1600 -0.3445 -1.1410
11759TIP3   OH256767   4.920   1.839   1.928 -0.3403  0.3044 -0.8540
11759TIP3    H156768   4.912   1.911   1.865  0.6543  2.2516  1.1514
11759TIP3    H256769   4.956   1.881   2.007  1.6765 -2.6571 -0.1199
11760TIP3   OH256770   4.024   3.216   0.200  0.0536  0.0186  0.4009
11760TIP3    H156771   4.058   3.259   0.121  0.0883 -1.4609 -0.4175
11760TIP3    H256772   4.102   3.195   0.251  0.1759 -0.7772 -0.1052
11761TIP3   OH256773   5.689   0.665  15.496 -0.1507 -0.1205  0.3736
11761TIP3    H156774   5.678   0.714  15.415  0.2903 -0.4614  0.1051
11761TIP3    H256775   5.632   0.588  15.485  1.2838 -1.0887 -0.3657
11762TIP3   OH256776   5.438   1.050  13.205  0.0980 -0.4589 -0.2013
11762TIP3    H156777   5.470   0.961  13.219 -0.4502 -0.9896 -2.1149
11762TIP3    H256778   5.510   1.094  13.161 -0.0821 -0.3230 -0.3608
11763TIP3   OH256779   5.458   6.157  14.216 -0.4470  0.2067  0.3396
11763TIP3    H156780   5.420   6.074  14.186 -2.1510  2.5093 -4.5288
11763TIP3    H256781   5.382   6.213  14.231  0.7337  1.5512  1.4004
11764TIP3   OH256782   0.067   6.354  13.401 -0.4332 -0.2199 -0.0471
11764TIP3    H156783   0.032   6.266  13.392 -1.8358  0.1431  1.5003
11764TIP3    H256784   0.048   6.378  13.492  2.0724  0.7669  0.2736
11765TIP3   OH256785   2.545   0.985   1.252 -0.2327 -0.4226 -0.0451
11765TIP3    H156786   2.627   0.992   1.300 -0.5313 -0.7796  0.5146
11765TIP3    H256787   2.507   0.902   1.280 -2.1924  1.0836  1.9246
11766TIP3   OH256788   1.521   2.192   2.117 -0.0598 -0.4954 -0.2625
11766TIP3    H156789   1.492   2.250   2.187 -1.4512 -0.9225 -0.4663
11766TIP3    H256790   1.611   2.219   2.098  0.9314 -1.4654  2.8193
11767TIP3   OH256791   4.550   1.322   3.156 -0.6468 -0.6720  0.9289
11767TIP3    H156792   4.528   1.349   3.245 -1.6219  0.8140  0.2765
11767TIP3    H256793   4.467   1.290   3.120 -0.4163 -0.6004  0.3287
11768TIP3   OH256794   6.297   0.172  16.062 -0.4462  0.6876 -0.5676
11768TIP3    H156795   6.230   0.224  16.018 -0.8637 -0.2325 -1.0369
11768TIP3    H256796   6.284   0.083  16.029  1.8552  0.7220 -1.6962
11769TIP3   OH256797   3.700   3.225  12.056 -0.0942 -0.3430  0.4183
11769TIP3    H156798   3.699   3.257  11.965  1.0525  0.5465  0.7005
11769TIP3    H256799   3.623   3.169  12.062  0.0399 -0.7580 -1.2315
11770TIP3   OH256800   6.181   1.480  11.606 -0.2452 -0.2860 -0.2793
11770TIP3    H156801   6.114   1.415  11.583 -1.0013 -0.5535  2.4323
11770TIP3    H256802   6.264   1.438  11.583 -0.7972 -1.7134  0.2316
11771TIP3   OH256803   0.067   0.104  16.466  0.1263  0.8475 -0.0967
11771TIP3    H156804   0.078   0.046  16.390 -0.9181 -0.3769  0.6662
11771TIP3    H256805   0.016   0.178  16.434  1.0380  1.1190 -0.9579
11772TIP3   OH256806   1.845   2.261  12.136  0.3475  0.0742 -0.1828
11772TIP3    H156807   1.868   2.218  12.219  1.2036  2.2354  0.7227
11772TIP3    H256808   1.922   2.312  12.113 -0.0105 -0.2597 -2.1709
11773TIP3   OH256809   6.717   4.525  10.356  0.1341 -0.1448 -0.4279
11773TIP3    H156810   6.714   4.528  10.452  1.3124  0.4749 -0.3968
11773TIP3    H256811   6.797   4.477  10.336  0.7059  1.0676 -1.0959
11774TIP3   OH256812   0.091   3.970   6.376  0.1014  1.0414  0.1512
11774TIP3    H156813   0.095   3.882   6.412 -1.0344  0.4362 -1.1371
11774TIP3    H256814  -0.002   3.993   6.378 -0.3334  0.1143 -4.2836
11775TIP3   OH256815   0.087   3.140  16.381  0.4514 -0.2128 -0.0522
11775TIP3    H156816   0.169   3.095  16.362 -0.3401 -1.8032  0.2668
11775TIP3    H256817   0.042   3.147  16.297 -0.1850 -1.5400  0.1727
11776TIP3   OH256818   2.642   6.112   2.321 -0.3048  0.3841  0.3258
11776TIP3    H156819   2.704   6.071   2.261  0.2703 -1.9074  2.4099
11776TIP3    H256820   2.559   6.066   2.307 -0.2234 -0.0142  1.0936
11777TIP3   OH256821   4.283   3.745   6.114 -0.2589  0.0958 -0.1800
11777TIP3    H156822   4.192   3.751   6.085 -0.6895  1.8895  1.4171
11777TIP3    H256823   4.317   3.834   6.105  1.9024 -0.8889 -2.4099
11778TIP3   OH256824   5.163   2.135  13.172  0.0276  0.0720 -0.0399
11778TIP3    H156825   5.246   2.132  13.220  0.1898 -0.0906 -0.3284
11778TIP3    H256826   5.130   2.046  13.174 -0.2216  0.1688  0.2121
11779TIP3   OH256827   5.523   3.693  16.012  0.1432  0.5254  0.8290
11779TIP3    H156828   5.577   3.762  16.050  1.2914 -0.0778  0.3294
11779TIP3    H256829   5.465   3.738  15.952  1.0195  1.0471  0.3661
11780TIP3   OH256830   6.047   4.085  14.625 -0.1784 -0.0017 -0.3937
11780TIP3    H156831   6.139   4.072  14.600  0.4877 -0.4073  2.1067
11780TIP3    H256832   6.015   3.996  14.642 -0.9260  0.1787 -0.8632
11781TIP3   OH256833   0.503   0.118   2.772 -0.2728  0.5358  0.2723
11781TIP3    H156834   0.577   0.156   2.725 -0.2913 -2.5990 -2.4608
11781TIP3    H256835   0.431   0.118   2.709 -1.4960 -0.0207  1.6286
11782TIP3   OH256836   4.642   3.578  12.662 -0.2737  0.0456  0.1510
11782TIP3    H156837   4.606   3.661  12.629  0.6613  0.9567  1.3657
11782TIP3    H256838   4.573   3.543  12.718 -1.1463 -0.5998 -1.3164
11783TIP3   OH256839   5.182   0.384  14.355 -0.0739 -0.3597 -0.0214
11783TIP3    H156840   5.182   0.316  14.288 -1.5988  0.1085 -0.5210
11783TIP3    H256841   5.137   0.458  14.314  0.0153  0.3382  1.1165
11784TIP3   OH256842   0.507   3.968   5.051  0.0136 -0.4970 -0.1870
11784TIP3    H156843   0.597   3.999   5.050 -0.0649 -0.2844 -0.5484
11784TIP3    H256844   0.499   3.921   5.135 -0.2199  1.5182  0.9610
11785TIP3   OH256845   1.769   2.788  16.160  0.0745 -0.4101 -0.3932
11785TIP3    H156846   1.727   2.874  16.157 -2.2747 -1.4314  1.4410
11785TIP3    H256847   1.705   2.731  16.203  1.9455 -2.8855 -0.7350
11786TIP3   OH256848   4.928   6.616  13.078 -0.1326 -0.2927 -0.4130
11786TIP3    H156849   4.833   6.620  13.085 -0.1993 -2.4098  0.2256
11786TIP3    H256850   4.945   6.602  12.985 -0.3238  2.4252 -0.8899
11787TIP3   OH256851   0.898   3.625  15.360  0.5123 -0.2410 -0.2343
11787TIP3    H156852   0.937   3.592  15.280  0.7593  0.1071 -0.2623
11787TIP3    H256853   0.971   3.633  15.422  1.0277  3.0222 -1.1393
11788TIP3   OH256854   3.611   5.996  14.791 -0.0220 -0.0110 -0.6662
11788TIP3    H156855   3.605   6.090  14.808  0.6678 -0.0867  0.0344
11788TIP3    H256856   3.570   5.955  14.868  1.5368 -0.3205  0.0135
11789TIP3   OH256857   4.883   2.804   3.819 -0.0055 -0.4491 -0.1256
11789TIP3    H156858   4.855   2.721   3.781 -0.1644 -0.8871  0.9200
11789TIP3    H256859   4.806   2.861   3.813  0.3916 -0.0639 -1.7019
11790TIP3   OH256860   0.346   2.420  10.558 -0.7290  0.4938 -0.0735
11790TIP3    H156861   0.278   2.446  10.619 -1.2002 -0.2675 -0.2710
11790TIP3    H256862   0.380   2.337  10.592 -0.2915  0.5826 -0.2815
11791TIP3   OH256863   1.234   4.339  12.048 -0.1511  0.3256 -0.2224
11791TIP3    H156864   1.184   4.260  12.069  0.8534  0.0859  1.3344
11791TIP3    H256865   1.227   4.347  11.953 -1.8727 -0.5463 -0.1764
11792TIP3   OH256866   2.967   2.202   0.273  0.1640 -0.1273  0.6364
11792TIP3    H156867   3.035   2.139   0.298  0.9334  0.6885  0.6227
11792TIP3    H256868   2.885   2.153   0.281  1.0184 -2.3134 -3.1319
11793TIP3   OH256869   5.765   2.239  15.919 -0.7448 -0.2367 -0.0594
11793TIP3    H156870   5.728   2.305  15.979 -0.5107  0.7749 -1.0200
11793TIP3    H256871   5.723   2.157  15.945 -1.3798  0.3693  0.8521
11794TIP3   OH256872   3.751   3.984   1.025 -0.0539 -0.3074 -0.2050
11794TIP3    H156873   3.738   3.982   0.930  0.9832 -0.3687 -0.3546
11794TIP3    H256874   3.714   3.901   1.056  0.6008 -0.7938 -0.6970
11795TIP3   OH256875   2.786   3.474  16.444  0.4001 -0.2250 -0.6336
11795TIP3    H156876   2.797   3.408  16.513 -1.0706 -0.6737 -0.8131
11795TIP3    H256877   2.817   3.432  16.364  0.9188 -0.1498 -0.4711
11796TIP3   OH256878   6.767   1.842  14.056  0.4304 -0.1365 -0.0800
11796TIP3    H156879   6.832   1.787  14.013 -0.2051 -0.0330 -1.2100
11796TIP3    H256880   6.702   1.860  13.987 -0.8887 -0.3965  1.0686
11797TIP3   OH256881   3.213   0.344  16.999 -0.4181  0.2015 -0.0293
11797TIP3    H156882   3.303   0.340  16.967 -0.3216 -1.9213  0.4222
11797TIP3    H256883   3.219   0.382  17.086  0.3949 -2.3995  1.0951
11798TIP3   OH256884   1.359   6.313   1.923 -0.3877  0.1784 -0.1549
11798TIP3    H156885   1.264   6.322   1.936 -0.3371  0.9362 -0.2414
11798TIP3    H256886   1.369   6.308   1.828 -0.4002 -0.6882 -0.1112
11799TIP3   OH256887   1.345   2.474   1.921 -0.2307  0.5015  0.5577
11799TIP3    H156888   1.344   2.529   1.843  1.1869  0.4591  0.4905
11799TIP3    H256889   1.393   2.396   1.894 -1.0832 -0.1946  1.0311
11800TIP3   OH256890   2.843   5.994  14.925 -0.1221 -0.4653 -0.0098
11800TIP3    H156891   2.767   5.950  14.963  0.2721 -0.6401  0.5816
11800TIP3    H256892   2.854   5.952  14.840 -0.9604 -0.1254 -0.2890
11801TIP3   OH256893   4.720   3.334   3.356  0.0353  0.2051  0.0896
11801TIP3    H156894   4.752   3.325   3.446 -0.3110  2.7113  0.5048
11801TIP3    H256895   4.636   3.287   3.356 -0.3520  0.8697  1.2964
11802TIP3   OH256896   0.333   5.213   3.716 -0.0436  0.9095  1.0649
11802TIP3    H156897   0.249   5.172   3.695  0.4327 -0.5436  1.9434
11802TIP3    H256898   0.360   5.173   3.799  3.3454 -1.5111 -1.0575
11803TIP3   OH256899   5.134   1.529   5.956 -0.3789  0.4314 -0.0226
11803TIP3    H156900   5.065   1.578   5.911 -0.2482 -0.2598 -1.0005
11803TIP3    H256901   5.125   1.553   6.048 -1.2537  1.1499 -0.2904
11804TIP3   OH256902   4.173   4.982   4.447  0.2021 -0.1065  0.0382
11804TIP3    H156903   4.267   4.970   4.438  0.0806 -2.4432  1.4839
11804TIP3    H256904   4.164   5.047   4.517  0.7203 -1.3211  1.2437
11805TIP3   OH256905   5.850   4.296  14.129 -0.3679  0.0756 -0.2708
11805TIP3    H156906   5.793   4.224  14.156 -3.5316  2.2587 -0.7977
11805TIP3    H256907   5.895   4.323  14.209  0.6079 -2.2154 -0.0089
11806TIP3   OH256908   1.181   2.075   2.601 -0.3645  0.1688 -0.6319
11806TIP3    H156909   1.127   2.071   2.680 -0.3226  1.9301 -0.4876
11806TIP3    H256910   1.200   2.168   2.590 -1.0147  0.0452 -3.1583
11807TIP3   OH256911   4.894   5.104  15.416 -0.6782  0.1614 -0.4569
11807TIP3    H156912   4.866   5.019  15.380  0.8535  0.3375 -2.1659
11807TIP3    H256913   4.989   5.094  15.428 -0.4302  1.7348 -1.0188
11808TIP3   OH256914   2.734   5.377  15.232 -0.3707 -0.0366 -0.5168
11808TIP3    H156915   2.691   5.295  15.207  2.0061 -0.4376 -3.6137
11808TIP3    H256916   2.782   5.356  15.312  0.2305 -1.6976 -1.2950
11809TIP3   OH256917   2.239   3.455   2.959  0.4142  0.1796 -0.2863
11809TIP3    H156918   2.168   3.414   3.008  1.0891 -1.3420 -0.5230
11809TIP3    H256919   2.210   3.451   2.868  0.2812  0.6664 -0.2672
11810TIP3   OH256920   1.671   0.631   1.532 -0.3224  0.1232 -0.1247
11810TIP3    H156921   1.607   0.662   1.597 -0.2484 -0.2458  0.1241
11810TIP3    H256922   1.637   0.664   1.448 -1.3620 -0.8742 -0.1149
11811TIP3   OH256923   1.983   3.587   2.444 -0.2768  0.5120  0.1744
11811TIP3    H156924   1.945   3.500   2.434  1.5694 -0.0173 -3.0346
11811TIP3    H256925   2.067   3.572   2.487  0.0855  0.6598 -0.4660
11812TIP3   OH256926   6.120   5.104   6.216 -0.2446  0.0779  0.1993
11812TIP3    H156927   6.201   5.108   6.165 -0.8678  3.6373 -0.6101
11812TIP3    H256928   6.149   5.076   6.303  1.4644 -1.4181 -0.8062
11813TIP3   OH256929   4.397   2.306   1.919 -0.4055  0.2655 -0.1169
11813TIP3    H156930   4.340   2.378   1.948 -0.5317  0.3731 -0.6402
11813TIP3    H256931   4.357   2.274   1.838  1.5281  1.8260 -1.7137
11814TIP3   OH256932   4.176   4.142   2.488  0.2085  0.4916  0.2839
11814TIP3    H156933   4.125   4.196   2.548 -1.5156  0.8611 -1.4726
11814TIP3    H256934   4.111   4.087   2.444  1.4914 -0.0403 -0.9878
11815TIP3   OH256935   1.837   4.849  11.526  0.3658 -0.3399 -0.1534
11815TIP3    H156936   1.801   4.920  11.579 -0.7133 -1.4031  0.5438
11815TIP3    H256937   1.882   4.894  11.454 -3.5675  1.0148 -1.8891
11816TIP3   OH256938   3.392   6.556  15.628  0.2985  0.2394  0.0924
11816TIP3    H156939   3.469   6.549  15.572  0.4379 -1.4611  0.4741
11816TIP3    H256940   3.319   6.532  15.571  0.2611  0.0088  0.2386
11817TIP3   OH256941   1.171   2.329  13.108 -0.6047 -0.4916  0.4892
11817TIP3    H156942   1.103   2.385  13.146  0.0333 -0.6647  1.8962
11817TIP3    H256943   1.242   2.390  13.087 -0.9478 -0.3992 -0.4218
11818TIP3   OH256944   5.085   6.346  11.906 -0.2586  0.5474  0.3747
11818TIP3    H156945   5.117   6.356  11.996 -0.5132  2.4603  0.2651
11818TIP3    H256946   5.021   6.275  11.911  1.0108 -0.5697  1.3558
11819TIP3   OH256947   5.753   2.718   6.158  0.2236  0.1876  0.2858
11819TIP3    H156948   5.727   2.787   6.097 -1.5131 -1.1667 -0.5478
11819TIP3    H256949   5.842   2.695   6.131  0.3734  1.2793 -0.1875
11820TIP3   OH256950   0.807   4.172   2.285 -0.0032  0.3495  0.0149
11820TIP3    H156951   0.783   4.225   2.361 -0.2362  0.3304 -0.0457
11820TIP3    H256952   0.875   4.113   2.318  0.5558  0.9638 -0.0221
11821TIP3   OH256953   2.378   6.604  16.053 -0.0584 -0.2856  0.0675
11821TIP3    H156954   2.396   6.546  15.978  0.8806  0.6360 -0.4332
11821TIP3    H256955   2.444   6.580  16.118 -0.0632 -0.2057  0.0999
11822TIP3   OH256956   3.794   5.363   3.942 -0.5998 -0.2058 -0.7586
11822TIP3    H156957   3.802   5.456   3.964 -1.4392 -0.4225  0.4832
11822TIP3    H256958   3.710   5.336   3.978 -0.1010 -1.6021 -0.5888
11823TIP3   OH256959   5.690   2.482  16.718 -0.3318 -0.3043 -0.1399
11823TIP3    H156960   5.647   2.522  16.793 -1.9497  1.2074 -1.8395
11823TIP3    H256961   5.687   2.548  16.650  0.6731 -1.8286 -1.7149
11824TIP3   OH256962   5.310   5.894  17.026 -0.3820  0.5839  0.0886
11824TIP3    H156963   5.384   5.833  17.031 -0.5667  0.2319 -1.1705
11824TIP3    H256964   5.334   5.953  16.954 -1.7183 -0.0642 -0.8943
11825TIP3   OH256965   4.993   6.663  14.957 -0.5075  0.5618 -0.0562
11825TIP3    H156966   4.925   6.731  14.957 -1.3168 -0.2234  0.3965
11825TIP3    H256967   5.071   6.707  14.990 -0.9447  1.3496 -0.0474
11826TIP3   OH256968   4.722   2.543   4.176  0.0484  0.8378  0.2868
11826TIP3    H156969   4.662   2.587   4.116 -1.9398  1.1708  2.4393
11826TIP3    H256970   4.771   2.615   4.217  0.1551  0.7185  0.3673
11827TIP3   OH256971   6.550   6.635  13.286 -0.6248  1.1189 -0.0831
11827TIP3    H156972   6.615   6.599  13.226 -2.1339  0.8721 -1.6174
11827TIP3    H256973   6.561   6.584  13.366  0.4541  0.4812 -0.6179
11828TIP3   OH256974   2.038   3.680  16.106  0.2633 -0.6185 -0.0134
11828TIP3    H156975   2.041   3.666  16.200  0.2766  0.2712  0.1180
11828TIP3    H256976   1.958   3.635  16.078  0.1274 -0.6700  0.4551
11829TIP3   OH256977   4.085   0.074   4.229 -0.5737  0.0763  0.0376
11829TIP3    H156978   4.168   0.042   4.193 -1.0088 -1.8624  0.7165
11829TIP3    H256979   4.111   0.136   4.297  0.2929  0.2399 -0.4311
11830TIP3   OH256980   4.402   3.368   0.143  0.2028 -0.0432 -0.2166
11830TIP3    H156981   4.371   3.458   0.146 -0.6053 -0.3164 -0.2446
11830TIP3    H256982   4.439   3.352   0.230 -3.8897 -1.1605  1.4390
11831TIP3   OH256983   4.930   5.628   4.735  0.5768 -0.6042 -0.0309
11831TIP3    H156984   4.880   5.680   4.798  1.0794  1.3112 -1.1787
11831TIP3    H256985   4.867   5.564   4.703 -0.3933  0.0362  0.5458
11832TIP3   OH256986   3.607   3.873   4.601  0.2072  0.4197 -0.7351
11832TIP3    H156987   3.547   3.900   4.531 -0.6713 -1.4483 -0.7504
11832TIP3    H256988   3.562   3.896   4.682 -0.5550 -0.9427 -0.7483
11833TIP3   OH256989   0.947   0.397   0.067  0.1309 -0.6009 -0.4025
11833TIP3    H156990   0.980   0.348   0.142  1.6848 -0.0816 -0.7101
11833TIP3    H256991   0.901   0.472   0.104 -0.8380 -1.4082  0.0438
11834TIP3   OH256992   1.345   2.175  14.861  0.0974  0.3148  0.1538
11834TIP3    H156993   1.293   2.207  14.935  0.3155 -2.5070  1.5959
11834TIP3    H256994   1.427   2.224  14.867 -0.7680  1.7573  0.3939
11835TIP3   OH256995   6.423   4.453   0.168 -0.6303 -0.3969 -0.0658
11835TIP3    H156996   6.401   4.477   0.258 -1.6720 -1.0614 -0.1325
11835TIP3    H256997   6.341   4.461   0.120 -0.1590 -0.3909 -0.8814
11836TIP3   OH256998   2.616   3.491  11.311 -0.0058 -0.6082 -0.5159
11836TIP3    H156999   2.667   3.469  11.233  0.5986  0.2729 -0.3784
11836TIP3    H257000   2.669   3.556  11.357  0.3571 -2.2111  1.4151
11837TIP3   OH257001   1.651   5.288  15.697 -0.0045  0.1977  0.1465
11837TIP3    H157002   1.621   5.263  15.784 -0.4003  0.4729  0.0916
11837TIP3    H257003   1.593   5.360  15.671  1.6479  1.7310  0.6514
11838TIP3   OH257004   2.283   0.421  11.297 -0.6103 -0.3255  0.0321
11838TIP3    H157005   2.259   0.367  11.222  1.5859 -1.5808  0.1801
11838TIP3    H257006   2.325   0.360  11.358 -0.2008  1.1073  1.2242
11839TIP3   OH257007   0.472   6.683  12.787 -0.4831 -0.2428  0.2166
11839TIP3    H157008   0.474   6.606  12.731 -0.0140 -0.2467  0.2431
11839TIP3    H257009   0.446   6.754  12.728 -1.6319 -0.5480  0.3443
11840TIP3   OH257010   3.922   6.263   4.305 -0.3698  0.1917  0.5524
11840TIP3    H157011   3.986   6.246   4.374 -1.4146  0.0652  1.5067
11840TIP3    H257012   3.873   6.181   4.296  0.9186 -0.3986 -1.6215
11841TIP3   OH257013   2.413   3.374  11.437  0.0721 -0.1351  0.2947
11841TIP3    H157014   2.466   3.439  11.391 -1.1769  0.2630 -0.6018
11841TIP3    H257015   2.457   3.291  11.421  0.1117  0.1133 -0.9316
11842TIP3   OH257016   3.487   1.584   2.401 -0.1939  0.1872  0.2483
11842TIP3    H157017   3.494   1.602   2.307  0.0415  0.8937  0.3983
11842TIP3    H257018   3.560   1.632   2.441 -0.9241  0.7729  0.9056
11843TIP3   OH257019   5.433   3.961  14.229  0.5018 -0.1909  0.1285
11843TIP3    H157020   5.500   3.921  14.286  1.3121  1.7439  0.5590
11843TIP3    H257021   5.483   4.007  14.162 -0.4451 -1.0693 -1.2021
11844TIP3   OH257022   5.138   0.117   2.231  0.0864 -0.4817 -0.3343
11844TIP3    H157023   5.093   0.091   2.312  1.8836 -0.1828  0.7882
11844TIP3    H257024   5.177   0.035   2.198 -0.5629 -0.5852 -0.8464
11845TIP3   OH257025   3.317   4.168   4.114 -0.1464 -0.0078  0.3274
11845TIP3    H157026   3.404   4.199   4.138 -0.6618  1.9442 -0.2483
11845TIP3    H257027   3.258   4.208   4.177 -0.5922 -1.8914  1.1615
11846TIP3   OH257028   0.719   1.518   3.544  0.1916  0.0295 -0.0469
11846TIP3    H157029   0.738   1.488   3.455  0.3242 -0.1715  0.0470
11846TIP3    H257030   0.727   1.613   3.540 -0.6890  0.0879 -0.4590
11847TIP3   OH257031   1.614   0.361   0.532  0.7094  0.0583  0.3496
11847TIP3    H157032   1.538   0.372   0.589  1.0073  1.1054  0.5532
11847TIP3    H257033   1.623   0.266   0.522 -0.6121 -0.0741  0.3292
11848TIP3   OH257034   3.586   1.046   4.528 -0.3335  0.5925  0.2324
11848TIP3    H157035   3.533   1.100   4.468  1.1089  1.0117 -0.7055
11848TIP3    H257036   3.524   1.013   4.592 -1.8780  0.3871 -1.3343
11849TIP3   OH257037   3.416   6.820   4.218  0.4729  0.3538  0.2081
11849TIP3    H157038   3.377   6.770   4.146 -0.6302 -0.6107  1.4578
11849TIP3    H257039   3.423   6.909   4.184  1.3763 -0.3750 -1.6262
11850TIP3   OH257040   4.101   6.564   4.532  0.6835  0.0357 -0.0026
11850TIP3    H157041   4.123   6.515   4.611 -1.4782 -0.7427  0.1666
11850TIP3    H257042   4.132   6.509   4.461  0.5670 -0.3726  0.2578
11851TIP3   OH257043   3.092   5.152  15.389  0.2523 -0.9304  0.4991
11851TIP3    H157044   3.144   5.159  15.469 -0.0815 -2.3300  0.8492
11851TIP3    H257045   3.003   5.174  15.416  0.5799  1.2889 -0.0641
11852TIP3   OH257046   1.438   3.345  15.850  0.4516 -0.1330  0.3470
11852TIP3    H157047   1.466   3.433  15.874  1.8463 -0.2477 -0.7509
11852TIP3    H257048   1.367   3.358  15.787  3.0600  0.3131 -2.6318
11853TIP3   OH257049   1.280   2.114   1.647 -0.2367 -0.5952 -0.8379
11853TIP3    H157050   1.301   2.062   1.569 -0.7819 -0.1201 -1.3088
11853TIP3    H257051   1.213   2.063   1.693 -1.5964  0.1957 -1.8828
11854TIP3   OH257052   0.956   5.487  16.418 -0.2297 -0.3047 -0.1194
11854TIP3    H157053   0.865   5.512  16.430  0.1330  0.4890  0.9903
11854TIP3    H257054   0.961   5.398  16.455 -0.3031  0.0838  0.8279
11855TIP3   OH257055   4.123   6.065  16.136  0.3753  0.3296 -0.2021
11855TIP3    H157056   4.084   6.018  16.209 -0.4589 -0.2801 -1.0250
11855TIP3    H257057   4.216   6.072  16.159  0.2574 -0.5069  0.5761
11856TIP3   OH257058   4.289   3.669  13.982  0.1264 -0.2029 -0.0385
11856TIP3    H157059   4.233   3.602  13.941  0.8555  0.2480 -1.8268
11856TIP3    H257060   4.378   3.639  13.965  0.4504 -0.1705  1.5542
11857TIP3   OH257061   0.403   1.637   3.714  0.3246  0.5551 -0.1930
11857TIP3    H157062   0.410   1.604   3.803  1.0624 -0.1585 -0.5042
11857TIP3    H257063   0.310   1.653   3.701  0.4005  2.2752  1.2650
11858TIP3   OH257064   3.550   3.016  16.941 -0.5863  0.4583 -0.5133
11858TIP3    H157065   3.639   3.048  16.926 -1.1248  2.1242 -0.2809
11858TIP3    H257066   3.533   3.035  17.033 -0.6026 -1.3762 -0.1158
11859TIP3   OH257067   2.918   6.035   5.375 -0.2031  0.0590 -0.3779
11859TIP3    H157068   2.911   6.070   5.286 -1.6747 -0.3294 -0.4262
11859TIP3    H257069   2.876   6.101   5.430 -1.6280 -0.8904 -0.2923
11860TIP3   OH257070   4.578   2.462  14.108 -0.2223 -0.4202  0.1305
11860TIP3    H157071   4.566   2.518  14.031 -0.7912 -2.1661 -1.0694
11860TIP3    H257072   4.648   2.504  14.157  1.1564 -0.0547 -2.0707
11861TIP3   OH257073   0.103   1.952  17.068  0.0808 -0.1979  0.6923
11861TIP3    H157074   0.055   1.870  17.055  2.1678 -1.3155 -0.4389
11861TIP3    H257075   0.064   2.013  17.005 -0.5859 -0.7510  0.5665
11862TIP3   OH257076   4.649   6.641  13.606  0.1363  0.1285  0.5405
11862TIP3    H157077   4.628   6.712  13.667  1.6550 -0.0786  1.3294
11862TIP3    H257078   4.744   6.646  13.596  0.2646 -1.8012  0.6189
11863TIP3   OH257079   1.699   1.592   5.279  0.0207 -0.3920 -0.4891
11863TIP3    H157080   1.666   1.552   5.199  0.5574 -1.7438 -0.0469
11863TIP3    H257081   1.638   1.563   5.347 -1.7155  2.5076 -0.7177
11864TIP3   OH257082   3.320   2.510  13.575 -0.1958 -0.5930  0.7213
11864TIP3    H157083   3.318   2.455  13.496 -2.7888  0.1612  0.2095
11864TIP3    H257084   3.363   2.591  13.547  0.9139 -1.1934  0.6793
11865TIP3   OH257085   2.086   0.724   0.401 -0.0712 -0.1338 -0.2296
11865TIP3    H157086   2.104   0.685   0.486 -1.5285  1.1974  0.7241
11865TIP3    H257087   1.991   0.724   0.394  0.0499 -0.7640 -2.1277
11866TIP3   OH257088   2.452   3.057  12.360  0.0018 -0.2985 -0.2010
11866TIP3    H157089   2.495   3.053  12.275 -1.5271 -2.7713 -0.8824
11866TIP3    H257090   2.378   2.997  12.353 -1.9429  1.7771  1.8768
11867TIP3   OH257091   6.130   4.795  17.245 -0.4081 -0.1682  0.2111
11867TIP3    H157092   6.061   4.728  17.244 -0.9297  0.3456  1.1507
11867TIP3    H257093   6.127   4.833  17.157 -2.8264  1.3386  0.8842
11868TIP3   OH257094   3.628   0.292   5.520  0.6959 -0.2046 -0.4807
11868TIP3    H157095   3.646   0.314   5.611  0.3319  0.2303 -0.5124
11868TIP3    H257096   3.621   0.196   5.519 -2.1111 -0.0547  0.4676
11869TIP3   OH257097   6.011   0.305  13.435  0.5050  0.2101  0.2825
11869TIP3    H157098   6.046   0.284  13.348 -1.7925  0.4511 -0.7314
11869TIP3    H257099   6.064   0.379  13.465  1.4910 -0.0514 -0.7873
11870TIP3   OH257100   3.307   3.541   5.135 -0.1929 -0.9913  0.2674
11870TIP3    H157101   3.272   3.619   5.177  0.8685 -0.8715  0.9404
11870TIP3    H257102   3.360   3.498   5.202  1.2056 -0.9962 -0.7964
11871TIP3   OH257103   6.263   1.054   3.256  0.1175 -0.2986  0.3321
11871TIP3    H157104   6.322   1.093   3.193 -0.3948 -0.7217 -0.4172
11871TIP3    H257105   6.204   1.125   3.281  1.3886  0.3107  1.6287
11872TIP3   OH257106   6.318   0.097   3.963  0.5361  0.0172 -0.1388
11872TIP3    H157107   6.258   0.156   4.010 -0.2797 -1.0740  0.2063
11872TIP3    H257108   6.278   0.011   3.971  1.7962 -0.6125 -0.5333
11873TIP3   OH257109   2.344   0.318   1.983 -0.2069 -0.2630 -0.0545
11873TIP3    H157110   2.333   0.393   1.925  0.2442 -0.0422  0.1451
11873TIP3    H257111   2.295   0.340   2.062 -1.7091 -1.0143 -0.7574
11874TIP3   OH257112   4.185   3.536   5.716 -0.2401 -0.7079  1.1475
11874TIP3    H157113   4.277   3.516   5.699 -0.7691 -1.0596 -1.4264
11874TIP3    H257114   4.177   3.629   5.696 -0.9775 -1.2321 -1.0365
11875TIP3   OH257115   6.661   6.481  15.685  1.3298  0.4167 -0.5393
11875TIP3    H157116   6.573   6.445  15.695  1.7240 -0.4060  0.0669
11875TIP3    H257117   6.713   6.409  15.649  1.8659  0.7354 -0.4129
11876TIP3   OH257118   1.599   3.406  14.447 -0.1553 -0.0244 -0.1205
11876TIP3    H157119   1.565   3.334  14.501 -1.7086 -0.3332 -1.4656
11876TIP3    H257120   1.650   3.460  14.508 -3.4152  0.6897  2.0842
11877TIP3   OH257121   6.778   2.396   5.045  0.4946  0.0334 -0.1221
11877TIP3    H157122   6.761   2.315   5.093  1.6053 -0.0147  0.2114
11877TIP3    H257123   6.873   2.405   5.047  0.3218  1.8896  0.7095
11878TIP3   OH257124   1.232   6.072   5.424  0.2944 -0.4977 -0.1788
11878TIP3    H157125   1.167   6.040   5.362  1.5693 -0.1805 -1.7297
11878TIP3    H257126   1.240   6.002   5.489 -2.3281 -0.0798  0.6434
11879TIP3   OH257127   3.015   4.421  14.460  0.7136 -0.2335 -0.2819
11879TIP3    H157128   3.034   4.474  14.537  1.5272 -0.4104 -0.3490
11879TIP3    H257129   2.920   4.414  14.458  0.6721  0.0352  0.5293
11880TIP3   OH257130   1.260   3.267   2.975 -0.1777  0.0787 -0.2143
11880TIP3    H157131   1.217   3.188   3.005 -1.5939  0.4051 -1.3207
11880TIP3    H257132   1.273   3.319   3.054  3.4942 -2.4822  1.0088
11881TIP3   OH257133   1.931   4.795   3.734  0.1019  0.3809 -0.4243
11881TIP3    H157134   2.008   4.797   3.791 -0.9737 -0.1264  1.0736
11881TIP3    H257135   1.897   4.706   3.741 -1.5050  1.0090  0.1690
11882TIP3   OH257136   3.797   4.586  12.051 -0.1828  0.5936 -0.3596
11882TIP3    H157137   3.826   4.534  11.976 -2.6864  2.7373 -2.8840
11882TIP3    H257138   3.844   4.668  12.043 -0.4872  0.8474  0.4043
11883TIP3   OH257139   5.779   4.262  17.006  0.4257 -0.4605  0.1326
11883TIP3    H157140   5.859   4.298  17.044 -0.2808  1.1608  0.1240
11883TIP3    H257141   5.712   4.277  17.073 -0.3323  0.2277 -0.7726
11884TIP3   OH257142   1.156   5.038  16.747  0.1642 -0.4991  0.2532
11884TIP3    H157143   1.075   5.070  16.785 -0.0463  2.7385 -2.6086
11884TIP3    H257144   1.224   5.091  16.788  0.2980  0.2704 -0.9190
11885TIP3   OH257145   5.478   4.310   3.482  0.0309 -0.1068 -0.3878
11885TIP3    H157146   5.395   4.321   3.528  0.1035 -1.6199  0.1223
11885TIP3    H257147   5.540   4.361   3.533 -0.1193 -0.8639  0.5573
11886TIP3   OH257148   6.040   3.031  16.065 -0.5346  0.0333  0.1150
11886TIP3    H157149   6.079   2.978  16.135  0.4918 -1.2303 -1.3838
11886TIP3    H257150   5.953   2.993  16.051 -0.3993 -0.2769  0.1115
11887TIP3   OH257151   4.539   1.251  17.214 -0.2936 -0.2342 -0.0385
11887TIP3    H157152   4.533   1.310  17.139  1.4077 -0.1580 -0.1184
11887TIP3    H257153   4.633   1.240  17.229 -0.6124 -1.1663  1.3596
11888TIP3   OH257154   0.652   3.896  11.413  0.5021  0.3769  0.0399
11888TIP3    H157155   0.647   3.916  11.319  0.3387 -1.0508 -0.2608
11888TIP3    H257156   0.626   3.978  11.456 -1.9571  0.3137 -1.2061
11889TIP3   OH257157   4.497   0.298  10.637  0.1403  0.0492 -0.5742
11889TIP3    H157158   4.419   0.271  10.684  0.9556  0.2669  0.9383
11889TIP3    H257159   4.557   0.224  10.646  0.7603  0.5912 -0.1718
11890TIP3   OH257160   1.004   0.943   5.971  0.4346 -0.0164  0.0356
11890TIP3    H157161   1.035   0.989   6.049  1.0991 -0.5881  0.1098
11890TIP3    H257162   1.032   0.853   5.984 -1.4654 -0.6049  0.2182
11891TIP3   OH257163   0.184   0.054   5.435 -0.7750 -0.4451 -0.1073
11891TIP3    H157164   0.166   0.064   5.342 -0.7314 -0.6229 -0.1333
11891TIP3    H257165   0.214  -0.036   5.445 -0.5753 -0.3631  0.0468
11892TIP3   OH257166   0.932   0.249   1.008 -0.1994 -0.3407  0.3521
11892TIP3    H157167   0.944   0.155   1.017  2.2659 -0.0362  0.6901
11892TIP3    H257168   0.898   0.261   0.920 -0.6673 -1.5651  0.3617
11893TIP3   OH257169   4.584   0.502   5.963 -0.1861 -0.1393 -0.4078
11893TIP3    H157170   4.669   0.479   6.002  0.1786  2.3443  0.3527
11893TIP3    H257171   4.585   0.458   5.878  2.5063  1.0113 -1.0274
11894TIP3   OH257172   0.212   1.813   0.272 -0.2853  0.5083  0.2904
11894TIP3    H157173   0.177   1.746   0.330  2.2289 -1.1086  0.0021
11894TIP3    H257174   0.251   1.878   0.331  0.2420  0.0252  0.4741
11895TIP3   OH257175   2.254   4.216   4.090  0.4723 -0.0313 -0.8297
11895TIP3    H157176   2.201   4.262   4.155 -1.5590 -0.4290 -2.1399
11895TIP3    H257177   2.341   4.209   4.130 -0.9554 -1.1710  2.2859
11896TIP3   OH257178   3.246   2.045  14.080 -0.3182  0.0399  0.2316
11896TIP3    H157179   3.177   2.099  14.040  0.2483 -0.9077 -2.1205
11896TIP3    H257180   3.264   2.088  14.164 -1.1110  2.5161 -0.8037
11897TIP3   OH257181   4.100   1.370   4.454 -0.6770  0.0153 -0.4259
11897TIP3    H157182   4.110   1.352   4.360 -1.4455 -0.7770 -0.3488
11897TIP3    H257183   4.010   1.400   4.463 -0.3659  0.8687 -0.0526
11898TIP3   OH257184   5.025   6.650   6.305 -0.3625 -0.6210 -0.3880
11898TIP3    H157185   4.939   6.672   6.340 -0.3901 -1.7278  0.2596
11898TIP3    H257186   5.070   6.734   6.296 -1.8326  0.0642 -1.6218
11899TIP3   OH257187   4.425   3.610   1.498  0.5282 -0.0796 -0.5683
11899TIP3    H157188   4.416   3.516   1.511  1.7968 -0.0883  0.3644
11899TIP3    H257189   4.507   3.620   1.450  1.3471  0.6445  0.9290
11900TIP3   OH257190   2.396   1.878  15.396  0.1052  0.2236 -0.3238
11900TIP3    H157191   2.371   1.929  15.318 -0.9205 -0.3680 -0.3951
11900TIP3    H257192   2.459   1.934  15.442  0.3563  0.7876 -1.3271
11901TIP3   OH257193   2.693   3.508  13.450  0.8803  0.6161  0.2390
11901TIP3    H157194   2.742   3.569  13.395  1.0067  1.5009  1.3187
11901TIP3    H257195   2.753   3.488  13.522  0.4848 -0.0347  0.3901
11902TIP3   OH257196   5.676   3.431  11.187  0.4454 -0.0383  0.3780
11902TIP3    H157197   5.735   3.369  11.143  0.3848 -1.4903  2.2813
11902TIP3    H257198   5.589   3.397  11.170  0.3091  0.4640  0.0500
11903TIP3   OH257199   5.103   1.471  10.830  0.8323  0.1227  0.0351
11903TIP3    H157200   5.067   1.512  10.752 -1.5670 -2.8284 -0.4717
11903TIP3    H257201   5.094   1.538  10.898 -0.4362  1.4011 -1.3512
11904TIP3   OH257202   2.587   4.759  13.516 -0.1533  0.0308 -0.0324
11904TIP3    H157203   2.554   4.719  13.596 -0.7342 -3.4982 -1.9301
11904TIP3    H257204   2.673   4.719  13.503  0.7772  2.0066 -0.2004
11905TIP3   OH257205   6.564   0.681  14.158  0.3248 -0.6542 -0.2641
11905TIP3    H157206   6.480   0.729  14.161  0.8103  0.2108 -0.3854
11905TIP3    H257207   6.566   0.632  14.240 -0.3576 -0.7653 -0.3116
11906TIP3   OH257208   0.072   5.964   1.167  0.7082 -0.1011  0.2777
11906TIP3    H157209   0.037   5.994   1.083 -0.2141  0.2066  0.7666
11906TIP3    H257210   0.115   5.881   1.147 -0.6226 -0.6618 -0.2631
11907TIP3   OH257211   4.597   3.699  14.584 -0.7231 -0.5582  0.0143
11907TIP3    H157212   4.593   3.686  14.679  0.0649 -3.2053 -0.2786
11907TIP3    H257213   4.534   3.769  14.567 -0.6317  0.1962  2.5185
11908TIP3   OH257214   3.367   2.110   2.073 -0.1991  0.0777 -0.0269
11908TIP3    H157215   3.390   2.156   1.992  1.6099 -1.8117 -0.6379
11908TIP3    H257216   3.362   2.179   2.139  0.5104  1.3829 -1.2971
11909TIP3   OH257217   5.991   0.265  11.922  0.3442  0.4130  0.4021
11909TIP3    H157218   5.973   0.217  11.841  0.3089  2.0605 -0.5918
11909TIP3    H257219   6.012   0.354  11.893  1.6456  0.6969  2.1122
11910TIP3   OH257220   5.265   5.538  15.079 -0.0723  0.3707  0.2653
11910TIP3    H157221   5.172   5.525  15.097 -0.6626  1.1524 -2.1362
11910TIP3    H257222   5.273   5.632  15.061  1.3770  0.4924  1.4576
11911TIP3   OH257223   4.988   6.644   5.188  0.1097  0.3920 -0.0800
11911TIP3    H157224   5.045   6.717   5.212  0.7872 -0.3840  0.6932
11911TIP3    H257225   4.953   6.668   5.103  1.5284  0.9155 -0.5282
11912TIP3   OH257226   5.080   6.748   4.768 -0.4758 -0.0127  0.1845
11912TIP3    H157227   5.034   6.692   4.706 -0.9449 -0.3963  0.8709
11912TIP3    H257228   5.165   6.704   4.781  0.1493  0.7627 -1.1751
11913TIP3   OH257229   4.751   4.011   4.459 -0.2399 -0.0165  0.8401
11913TIP3    H157230   4.661   4.042   4.461 -0.3354 -0.2706  0.5305
11913TIP3    H257231   4.804   4.088   4.481 -0.4866  0.3089  0.2991
11914TIP3   OH257232   6.809   0.872  12.479  0.3668 -0.3131 -0.0786
11914TIP3    H157233   6.817   0.850  12.386 -0.6537  0.6959 -0.4134
11914TIP3    H257234   6.884   0.829  12.520  1.6442  0.4531 -1.5803
11915TIP3   OH257235   5.056   2.197   1.262  0.2168  0.2510 -0.2751
11915TIP3    H157236   5.060   2.289   1.288  4.1696 -0.2199  1.1425
11915TIP3    H257237   5.083   2.198   1.170  3.2868  0.3228  0.5509
11916TIP3   OH257238   3.222   5.596   5.118 -0.3262 -0.7300 -0.2383
11916TIP3    H157239   3.199   5.625   5.206  1.0375  1.7362 -0.6599
11916TIP3    H257240   3.266   5.512   5.131 -0.0216 -0.3229  1.4338
11917TIP3   OH257241   4.383   0.662   0.890 -0.0350  0.0160 -0.0930
11917TIP3    H157242   4.392   0.625   0.802  2.6271 -0.2841  0.2879
11917TIP3    H257243   4.379   0.586   0.948 -0.6519  0.2397  0.1663
11918TIP3   OH257244   0.796   3.126   2.603  0.0821 -0.6397 -0.0988
11918TIP3    H157245   0.870   3.171   2.645  1.4286 -2.6638 -0.2621
11918TIP3    H257246   0.786   3.170   2.519 -0.7577  1.5156  1.0762
11919TIP3   OH257247   5.372   4.553   0.977 -0.1470  0.2579  0.3814
11919TIP3    H157248   5.355   4.560   1.071 -0.0122 -2.0632  0.5992
11919TIP3    H257249   5.440   4.487   0.970 -0.6913 -0.1329 -1.4062
11920TIP3   OH257250   0.656   3.749  17.136 -0.2372 -0.4168  0.3870
11920TIP3    H157251   0.601   3.672  17.149  0.0343 -0.7715 -0.5593
11920TIP3    H257252   0.674   3.751  17.042  1.7013 -0.5439  0.7253
11921TIP3   OH257253   3.833   5.172   0.199  0.6149  0.9864 -0.8338
11921TIP3    H157254   3.749   5.132   0.222  0.1996  1.8951 -0.7544
11921TIP3    H257255   3.869   5.202   0.283  1.6169 -0.5077 -0.6953
11922TIP3   OH257256   1.069   1.074   2.976  0.3926 -0.1108 -0.2320
11922TIP3    H157257   0.992   1.126   2.950  0.9191  0.8825  0.1817
11922TIP3    H257258   1.032   0.991   3.007 -0.6565  0.9480  1.4841
11923TIP3   OH257259   2.208   2.938  10.659 -0.1112 -0.1029 -0.5043
11923TIP3    H157260   2.196   2.849  10.691  0.2615 -1.3045 -3.5315
11923TIP3    H257261   2.301   2.956  10.668  0.3347 -1.1738 -2.5850
11924TIP3   OH257262   3.436   5.449   2.900 -0.2630 -0.0602  0.6424
11924TIP3    H157263   3.352   5.482   2.930 -0.8014 -1.1076  0.2973
11924TIP3    H257264   3.500   5.491   2.957 -0.9526  1.4016  0.3547
11925TIP3   OH257265   3.285   2.248   0.776  0.5451  0.5291 -0.1849
11925TIP3    H157266   3.237   2.166   0.767 -1.6017  1.5249  1.7823
11925TIP3    H257267   3.361   2.225   0.831  2.2412 -0.9713 -3.0331
11926TIP3   OH257268   0.017   4.846  13.283 -0.2258 -0.3995  0.3664
11926TIP3    H157269  -0.015   4.896  13.359  1.3417 -0.4265  1.0569
11926TIP3    H257270   0.112   4.844  13.294 -0.0511 -1.1030 -1.1817
11927TIP3   OH257271   5.795   6.458   2.937 -0.0403  1.0326 -0.1192
11927TIP3    H157272   5.706   6.449   2.902 -0.3772  0.8332  0.7876
11927TIP3    H257273   5.802   6.549   2.964 -0.0254  1.0045 -0.0284
11928TIP3   OH257274   5.816   4.621  13.655 -0.1780  0.2265  0.4379
11928TIP3    H157275   5.827   4.575  13.738  0.7881  0.3402  0.3764
11928TIP3    H257276   5.836   4.713  13.675  2.8798 -0.1684 -0.5022
11929TIP3   OH257277   2.665   6.162  12.817  0.1348  0.0938  0.2062
11929TIP3    H157278   2.685   6.113  12.896  2.8459 -1.0185 -1.0961
11929TIP3    H257279   2.721   6.240  12.823 -1.7772  1.4711  0.7213
11930TIP3   OH257280   1.434   2.488   5.747 -0.4838  0.1976  0.6537
11930TIP3    H157281   1.339   2.487   5.734 -0.7981  0.8072  2.6980
11930TIP3    H257282   1.458   2.396   5.754 -0.4656 -0.1133 -2.7270
11931TIP3   OH257283   2.754   3.788  14.808 -0.6491  0.0372 -0.0235
11931TIP3    H157284   2.798   3.730  14.870 -1.0759 -0.4222 -0.1441
11931TIP3    H257285   2.728   3.730  14.736  0.8476  0.7586 -1.1672
11932TIP3   OH257286   3.111   2.550   1.195  0.4072  0.5959  0.3117
11932TIP3    H157287   3.060   2.482   1.239 -0.1338  2.0849  2.0350
11932TIP3    H257288   3.047   2.597   1.142  0.4082  1.0159  0.6808
11933TIP3   OH257289   6.526   4.160   5.759 -0.4682  0.7720  0.3407
11933TIP3    H157290   6.467   4.101   5.807 -1.1698 -0.2749 -1.7304
11933TIP3    H257291   6.601   4.172   5.817 -1.1377 -0.7271  1.5493
11934TIP3   OH257292   5.553   4.440   0.236 -0.0106  0.0620 -0.0957
11934TIP3    H157293   5.625   4.473   0.290  0.0694 -1.3387  0.6814
11934TIP3    H257294   5.529   4.357   0.277 -1.4606  0.0762 -0.8921
11935TIP3   OH257295   6.590   5.439   3.465 -0.4500 -0.1231  0.2472
11935TIP3    H157296   6.631   5.452   3.550  0.0899  0.2056 -0.0637
11935TIP3    H257297   6.543   5.355   3.473  0.3900 -0.5684  0.5548
11936TIP3   OH257298   0.537   6.609   0.257  0.0974  0.4648 -0.0764
11936TIP3    H157299   0.564   6.695   0.291  1.4767  0.6089 -1.4834
11936TIP3    H257300   0.505   6.628   0.169  1.4577 -0.6218 -0.8067
11937TIP3   OH257301   1.462   6.255  15.638  0.4435  0.2622  0.5499
11937TIP3    H157302   1.471   6.164  15.668 -2.1249 -0.3693 -0.4087
11937TIP3    H257303   1.375   6.258  15.598  1.7210  2.3306 -2.2584
11938TIP3   OH257304   1.895   4.656  12.279 -0.0085 -0.3682 -0.5619
11938TIP3    H157305   1.856   4.717  12.341 -2.0202 -1.8251 -0.3656
11938TIP3    H257306   1.989   4.677  12.282 -0.2789  0.7086  1.7015
11939TIP3   OH257307   5.436   4.559   3.648 -0.1305  0.2264  0.5296
11939TIP3    H157308   5.345   4.562   3.620  0.0635 -1.2105 -0.3144
11939TIP3    H257309   5.486   4.582   3.570  0.2760 -0.2100  0.6618
11940TIP3   OH257310   6.010   2.845   1.874 -0.0401 -0.3462 -0.5595
11940TIP3    H157311   5.994   2.774   1.936  2.6397  0.2601  0.8832
11940TIP3    H257312   6.051   2.802   1.799 -0.4565 -0.6367 -0.6230
11941TIP3   OH257313   4.736   1.070  14.081  0.7816  0.1605  0.1278
11941TIP3    H157314   4.811   1.089  14.024  2.0504  0.5434  1.8903
11941TIP3    H257315   4.678   1.016  14.027  1.1442  1.9285 -2.0874
11942TIP3   OH257316   2.798   0.261  11.593 -0.1149  0.1225  0.1714
11942TIP3    H157317   2.828   0.352  11.588 -0.1931  0.1680  0.5220
11942TIP3    H257318   2.851   0.222  11.662 -1.1334  0.3105  1.0608
11943TIP3   OH257319   3.527   0.869  15.311  0.0255 -0.2153  0.0317
11943TIP3    H157320   3.452   0.884  15.253 -0.5713  0.2075  0.8924
11943TIP3    H257321   3.602   0.899  15.262 -0.4195 -0.3072 -0.7084
11944TIP3   OH257322   2.052   5.235  17.248 -0.2806  0.0154  0.2276
11944TIP3    H157323   2.006   5.318  17.238  0.7157  0.7228  1.2667
11944TIP3    H257324   2.107   5.248  17.326 -1.1038 -2.0822  1.1773
11945TIP3   OH257325   6.408   4.859   3.424  0.2876  0.5406 -0.0204
11945TIP3    H157326   6.372   4.924   3.484  1.7022  0.3049  1.1235
11945TIP3    H257327   6.495   4.841   3.459  0.8324 -0.1847 -1.7088
11946TIP3   OH257328   2.550   5.280  15.667  0.2970 -0.0799  0.6631
11946TIP3    H157329   2.473   5.227  15.687  1.6172 -2.4529 -0.3761
11946TIP3    H257330   2.624   5.223  15.686  1.7496  1.2261 -0.9429
11947TIP3   OH257331   3.159   4.746   5.650  0.0918  0.5745 -1.1581
11947TIP3    H157332   3.132   4.715   5.564  0.4621 -0.4077 -0.9167
11947TIP3    H257333   3.133   4.677   5.710  0.4988  0.9266 -0.5719
11948TIP3   OH257334   0.346   4.315   3.931 -0.7858  0.2126  0.1641
11948TIP3    H157335   0.359   4.334   4.024  0.0562  2.2270 -0.3413
11948TIP3    H257336   0.434   4.316   3.894 -1.0717 -1.1176 -0.5755
11949TIP3   OH257337   1.083   2.395  11.378 -0.0142 -0.0395 -0.3550
11949TIP3    H157338   1.110   2.478  11.418  0.6714 -1.4147  2.2132
11949TIP3    H257339   0.991   2.385  11.403  0.5049 -1.0586  1.2639
11950TIP3   OH257340   3.414   4.922  11.502 -0.2190  0.4739  0.6096
11950TIP3    H157341   3.324   4.889  11.506 -0.2796  0.6676  0.8338
11950TIP3    H257342   3.404   5.016  11.491 -0.0428  0.4706  0.4200
11951TIP3   OH257343   6.296   3.081  12.713 -0.1207 -0.3863 -0.3639
11951TIP3    H157344   6.257   2.995  12.699 -0.6748  0.2232 -2.7457
11951TIP3    H257345   6.390   3.067  12.698 -0.3073 -0.4230 -1.5420
11952TIP3   OH257346   5.924   1.782  15.113  0.8569 -0.1749 -0.0614
11952TIP3    H157347   5.974   1.854  15.076  2.7729 -0.1497  2.4589
11952TIP3    H257348   5.970   1.703  15.085  0.5630 -0.2972 -0.2097
11953TIP3   OH257349   1.990   3.928  11.658 -0.7390  0.0267  0.3003
11953TIP3    H157350   2.025   3.948  11.745 -1.3178 -0.5173  0.6709
11953TIP3    H257351   2.063   3.890  11.610 -0.4148  0.3364  0.5473
11954TIP3   OH257352   1.679   0.812   4.532 -0.3224 -0.1546  0.4034
11954TIP3    H157353   1.608   0.778   4.587 -0.2684  0.1366  0.6579
11954TIP3    H257354   1.759   0.788   4.578 -0.2786  0.1370  0.4811
11955TIP3   OH257355   6.365   3.928  13.036 -0.1218  0.2785 -0.3765
11955TIP3    H157356   6.310   3.929  12.957 -0.3035 -0.1632 -0.2598
11955TIP3    H257357   6.441   3.981  13.013 -1.0274  1.6650 -0.2148
11956TIP3   OH257358   5.670   5.196  15.662  0.8834 -0.3368  0.9564
11956TIP3    H157359   5.666   5.122  15.601  0.6331 -1.0307  1.7991
11956TIP3    H257360   5.592   5.248  15.642  0.9621 -0.4025  0.4817
11957TIP3   OH257361   3.873   5.777   3.675 -0.4969  0.0667 -0.8637
11957TIP3    H157362   3.911   5.857   3.638 -0.4168  0.0087 -0.9087
11957TIP3    H257363   3.944   5.713   3.670  0.6735  0.9782  2.6208
11958TIP3   OH257364   2.666   2.736  11.307  0.0621 -0.0163  0.3773
11958TIP3    H157365   2.639   2.765  11.220 -1.3624 -0.7417  0.5685
11958TIP3    H257366   2.636   2.645  11.312  1.3594 -0.4150  1.1086
11959TIP3   OH257367   6.496   3.583  17.175 -0.4105  0.4156 -0.7701
11959TIP3    H157368   6.514   3.634  17.096  1.2842  0.4636 -0.3897
11959TIP3    H257369   6.519   3.493  17.151 -0.2839  0.3663 -0.4661
11960TIP3   OH257370   1.289   2.048  12.914 -0.6900  0.1335 -0.3134
11960TIP3    H157371   1.305   2.133  12.954 -1.2941 -0.4207  1.1075
11960TIP3    H257372   1.233   2.068  12.839 -1.2981  0.9107  0.3459
11961TIP3   OH257373   3.866   0.778  12.002  0.2425 -0.2105 -0.0418
11961TIP3    H157374   3.851   0.707  12.064 -3.8896  0.0518 -0.5589
11961TIP3    H257375   3.845   0.739  11.917  3.4966  0.1106 -1.0648
11962TIP3   OH257376   2.400   6.157  12.421 -0.0482  0.1443  0.1621
11962TIP3    H157377   2.372   6.249  12.414 -2.4089 -0.5451 -0.1654
11962TIP3    H257378   2.436   6.137  12.335  1.5692  1.0881  0.6017
11963TIP3   OH257379   4.008   2.171  13.260  0.4447  0.6312 -0.0825
11963TIP3    H157380   3.966   2.103  13.208  0.0968  0.8768 -0.1197
11963TIP3    H257381   4.014   2.247  13.202  1.2773  0.4807 -0.1979
11964TIP3   OH257382   3.802   1.690   4.562  0.0603 -0.0224 -0.1970
11964TIP3    H157383   3.761   1.748   4.626 -0.7113 -0.9131  0.1297
11964TIP3    H257384   3.782   1.602   4.593 -0.5519 -0.4672 -1.8139
11965TIP3   OH257385   2.221   2.416   2.258 -0.0833 -0.5009  0.0873
11965TIP3    H157386   2.310   2.387   2.276  0.5709  1.6306  0.4373
11965TIP3    H257387   2.166   2.343   2.287  1.3293 -0.3590  3.3848
11966TIP3   OH257388   6.539   3.486   5.702 -0.2204  0.1558  0.4081
11966TIP3    H157389   6.487   3.554   5.745  0.1766  0.0682  1.0419
11966TIP3    H257390   6.600   3.533   5.646 -1.0865  0.2521 -0.4584
11967TIP3   OH257391   4.286   6.318  13.575  0.0283  0.6366 -0.0424
11967TIP3    H157392   4.200   6.302  13.535 -0.5024 -0.2182  1.3707
11967TIP3    H257393   4.315   6.401  13.537 -0.0822 -0.5258 -2.7530
11968TIP3   OH257394   2.433   0.114   3.677 -0.2950 -0.1640  0.1768
11968TIP3    H157395   2.393   0.196   3.707  1.0263  0.8108 -0.6753
11968TIP3    H257396   2.463   0.072   3.758 -0.9586  0.1995  0.6188
11969TIP3   OH257397   0.146   3.539  10.964  0.2445 -0.0400 -0.1211
11969TIP3    H157398   0.204   3.470  10.931  0.2011  1.0849 -2.6725
11969TIP3    H257399   0.057   3.506  10.948  0.1884 -0.4138  0.9050
11970TIP3   OH257400   3.487   0.924   1.514  0.0328 -0.4714 -0.1542
11970TIP3    H157401   3.556   0.945   1.451 -0.1904  2.5673  0.5181
11970TIP3    H257402   3.416   0.985   1.494  0.0493  0.7393  3.1005
11971TIP3   OH257403   2.247   4.983  16.105 -0.6277  0.1145 -0.0637
11971TIP3    H157404   2.251   5.063  16.053  0.0230  0.5425  0.6275
11971TIP3    H257405   2.207   4.919  16.047  0.3522  0.4930 -1.1879
11972TIP3   OH257406   3.843   0.477   3.571 -0.4372  0.0976  0.0461
11972TIP3    H157407   3.877   0.390   3.547 -0.3174 -0.3332  1.6980
11972TIP3    H257408   3.749   0.463   3.585 -0.6571  0.5228 -0.9998
11973TIP3   OH257409   2.833   6.489   5.072 -0.5528  0.5258  0.4089
11973TIP3    H157410   2.875   6.497   4.987 -0.7915 -1.0819  0.1300
11973TIP3    H257411   2.901   6.452   5.129 -0.9527 -0.1272  0.4641
11974TIP3   OH257412   0.548   6.446   4.255 -0.5913 -0.2478 -0.1787
11974TIP3    H157413   0.519   6.407   4.338  2.8370 -1.3934  0.5913
11974TIP3    H257414   0.585   6.530   4.280 -1.9830  0.6124 -0.9536
11975TIP3   OH257415   2.115   4.293  15.947 -0.9910  0.0055  0.4178
11975TIP3    H157416   2.024   4.270  15.928 -1.8484  3.0037  0.6696
11975TIP3    H257417   2.155   4.305  15.861 -0.5174 -2.3497  0.2839
11976TIP3   OH257418   5.745   1.283  15.603 -0.1923  0.3494 -0.6472
11976TIP3    H157419   5.823   1.305  15.655 -0.9473  0.0389  0.6387
11976TIP3    H257420   5.779   1.234  15.529  0.8142 -0.0483  0.0594
11977TIP3   OH257421   5.728   5.272   3.750 -0.2778 -0.0871  0.1778
11977TIP3    H157422   5.726   5.195   3.693  0.6835 -0.8790  1.1951
11977TIP3    H257423   5.778   5.337   3.700  0.2980 -0.6714 -0.0187
11978TIP3   OH257424   3.921   2.093   5.926 -0.2352 -0.1217  0.0341
11978TIP3    H157425   3.983   2.095   5.998  0.2524 -0.9170 -0.3576
11978TIP3    H257426   3.836   2.110   5.967  0.1628  0.4037  0.6497
11979TIP3   OH257427   4.718   4.259  12.799 -0.2323 -0.1749  0.6259
11979TIP3    H157428   4.789   4.219  12.850 -1.1459 -0.6048  1.5620
11979TIP3    H257429   4.667   4.184  12.767  0.8435  0.0382 -1.6905
11980TIP3   OH257430   2.354   4.237   3.036 -0.6043 -0.3661  0.5585
11980TIP3    H157431   2.396   4.323   3.038 -1.7682  0.1906  3.2908
11980TIP3    H257432   2.398   4.190   2.965  2.1490  1.4228  1.0203
11981TIP3   OH257433   4.577   1.911   4.010  0.8086 -0.3099 -0.6563
11981TIP3    H157434   4.619   1.982   4.058 -0.0194 -1.3523  1.6971
11981TIP3    H257435   4.637   1.891   3.939  2.0629  1.3197 -0.0900
11982TIP3   OH257436   4.366   5.461   5.372  0.2656 -0.2717 -0.6789
11982TIP3    H157437   4.353   5.369   5.349 -1.2681 -0.2267 -0.0246
11982TIP3    H257438   4.277   5.498   5.375  0.6063  0.3677  2.6610
11983TIP3   OH257439   3.846   2.204  16.181 -0.2841 -0.7262  0.2706
11983TIP3    H157440   3.871   2.240  16.266  1.4278 -1.5201  0.1314
11983TIP3    H257441   3.917   2.144  16.159 -0.5318 -0.2554 -1.9038
11984TIP3   OH257442   0.655   0.030  14.761  0.0359  0.3364 -0.8569
11984TIP3    H157443   0.645   0.023  14.666  1.8450  1.0930 -1.1252
11984TIP3    H257444   0.740  -0.011  14.779 -1.0631 -1.3549  0.6555
11985TIP3   OH257445   3.877   3.090   1.597 -0.4709 -0.0813 -0.4516
11985TIP3    H157446   3.794   3.047   1.576 -0.6807 -0.2156  0.6102
11985TIP3    H257447   3.893   3.149   1.523 -1.8578  0.4614 -0.3401
11986TIP3   OH257448   6.328   2.055   2.487 -0.6727  0.3498  0.1412
11986TIP3    H157449   6.261   2.049   2.419  0.4114  0.3655 -0.9616
11986TIP3    H257450   6.406   2.018   2.445 -0.0274  0.2507  1.4301
11987TIP3   OH257451   3.555   5.691  12.179  0.2687  0.3600  0.0483
11987TIP3    H157452   3.498   5.618  12.201 -0.3939  0.2649 -1.8824
11987TIP3    H257453   3.549   5.699  12.084  2.0326  1.5404  0.0039
11988TIP3   OH257454   6.340   4.896   4.401 -0.0066 -0.6988  0.4668
11988TIP3    H157455   6.334   4.801   4.407 -0.6706 -0.6739  0.2138
11988TIP3    H257456   6.262   4.922   4.352 -1.0247  0.1759  2.4814
11989TIP3   OH257457   0.986   4.948  12.792 -0.2138  0.3473  0.5758
11989TIP3    H157458   1.077   4.958  12.819 -0.2735  0.2232  0.8206
11989TIP3    H257459   0.956   5.038  12.776  0.4253  0.2778 -1.0765
11990TIP3   OH257460   0.790   6.059  15.064  0.0084  0.8498  0.4310
11990TIP3    H157461   0.717   6.096  15.013 -0.4633  2.0732  1.9446
11990TIP3    H257462   0.851   6.132  15.074  0.6637  0.2808  0.5768
11991TIP3   OH257463   2.515   6.229   1.084  0.2928  0.1135 -0.2600
11991TIP3    H157464   2.450   6.190   1.141  1.6829  1.3752  2.2714
11991TIP3    H257465   2.475   6.310   1.053 -0.1399 -0.1528 -0.3998
11992TIP3   OH257466   3.946   1.222   5.606  0.3208 -0.2267  0.0351
11992TIP3    H157467   4.032   1.184   5.622  0.7628  1.0691  0.7935
11992TIP3    H257468   3.963   1.310   5.574 -0.7192  0.2360  0.6967
11993TIP3   OH257469   0.724   0.157   6.527 -0.0133 -0.1344 -0.5023
11993TIP3    H157470   0.631   0.170   6.548  0.5997  2.9603  0.5097
11993TIP3    H257471   0.723   0.105   6.446 -2.5779 -1.4537  0.3015
11994TIP3   OH257472   2.212   1.361   0.945  0.0855 -0.6303 -0.4592
11994TIP3    H157473   2.303   1.346   0.922 -0.0380 -2.3705  0.0923
11994TIP3    H257474   2.175   1.405   0.869  0.7310 -2.4325 -1.8704
11995TIP3   OH257475   4.001   4.334  12.303 -0.3852 -1.0395 -0.2679
11995TIP3    H157476   4.075   4.279  12.328  0.4927 -0.1864 -0.9602
11995TIP3    H257477   4.036   4.423  12.303 -1.3804 -0.6418 -0.6970
11996TIP3   OH257478   6.234   0.232   5.081 -0.1464 -0.4304  0.1079
11996TIP3    H157479   6.260   0.142   5.063  0.2513 -0.4590  0.8313
11996TIP3    H257480   6.189   0.227   5.165 -0.3332  0.0126  0.0335
11997TIP3   OH257481   3.917   4.974   4.553  0.1672  0.2359 -0.8215
11997TIP3    H157482   3.846   4.946   4.496 -0.4421  1.8048 -0.8790
11997TIP3    H257483   3.996   4.965   4.500 -0.0162 -1.1925 -0.8713
11998TIP3   OH257484   0.508   1.097  13.166 -0.1095  0.7302  0.0881
11998TIP3    H157485   0.496   1.147  13.086  0.1263 -1.9756 -1.6882
11998TIP3    H257486   0.597   1.062  13.159 -0.8069 -1.1953  0.5347
11999TIP3   OH257487   5.270   1.757  11.518 -0.3941 -0.2576 -0.1585
11999TIP3    H157488   5.347   1.735  11.571  1.0708 -0.2659 -2.2016
11999TIP3    H257489   5.196   1.751  11.578  1.1390 -0.8432  1.7156
12000TIP3   OH257490   4.739   5.269  14.349 -0.1948 -0.6384 -0.1468
12000TIP3    H157491   4.721   5.178  14.325 -1.1231 -0.2619 -0.9241
12000TIP3    H257492   4.719   5.273  14.442  0.4026 -1.3711  0.0128
12001TIP3   OH257493   1.353   4.079  12.597 -0.3169 -0.5265  0.1896
12001TIP3    H157494   1.366   4.159  12.545 -1.6299 -1.2116 -1.2431
12001TIP3    H257495   1.341   4.111  12.686  0.4580  0.7884 -0.1547
12002TIP3   OH257496   0.247   6.610   5.410 -0.7386 -0.3355 -0.0759
12002TIP3    H157497   0.340   6.601   5.432 -1.2024 -0.0738  2.0963
12002TIP3    H257498   0.245   6.614   5.314  1.4019 -1.2173 -0.1755
12003TIP3   OH257499   3.512   5.057   3.980  0.0260  0.0882 -0.0096
12003TIP3    H157500   3.522   4.997   4.054  0.6575  0.4138  0.1707
12003TIP3    H257501   3.537   5.006   3.903 -1.5122 -0.5359 -0.1217
12004TIP3   OH257502   6.791   5.936   2.706  0.1209 -0.0787  0.0258
12004TIP3    H157503   6.810   5.982   2.624  1.0921 -1.1942 -0.3738
12004TIP3    H257504   6.759   5.850   2.679  2.0275 -1.0594  0.8259
12005TIP3   OH257505   2.875   3.698  17.074  0.0594  0.4987 -0.0913
12005TIP3    H157506   2.798   3.739  17.037  0.0833  1.1048  0.5210
12005TIP3    H257507   2.903   3.758  17.143 -0.4277 -0.9701  1.4124
12006TIP3   OH257508   0.547   6.506  14.230  0.1758 -0.0291 -0.1005
12006TIP3    H157509   0.562   6.562  14.307 -0.4646  0.0103 -0.0004
12006TIP3    H257510   0.627   6.454  14.222  1.0199  1.3141 -0.5469
12007TIP3   OH257511   3.890   0.455   5.125 -0.1069  0.2469  0.0222
12007TIP3    H157512   3.936   0.467   5.208 -0.5951 -2.4220  0.7303
12007TIP3    H257513   3.860   0.543   5.101  0.4276  1.1295  2.4287
12008TIP3   OH257514   5.268   4.518   0.004  0.3172 -0.9138 -0.2860
12008TIP3    H157515   5.251   4.427   0.027  0.2329 -1.2459 -1.6367
12008TIP3    H257516   5.202   4.568   0.052 -1.2011 -1.7723 -1.4248
12009TIP3   OH257517   5.654   1.834   4.152 -0.0803 -0.1667 -0.4585
12009TIP3    H157518   5.746   1.816   4.172 -0.1811 -0.9475 -0.6812
12009TIP3    H257519   5.605   1.774   4.208 -0.4552  0.1302 -0.4630
12010TIP3   OH257520   4.909   0.490   3.910  0.2506  0.3925 -0.4653
12010TIP3    H157521   4.873   0.552   3.846  1.2566  1.2578 -0.1971
12010TIP3    H257522   4.979   0.446   3.863 -1.9335 -2.2332 -1.4153
12011TIP3   OH257523   6.043   3.553  12.833  0.1030  0.2922  0.1827
12011TIP3    H157524   6.101   3.500  12.779  2.0051  1.6861  0.7843
12011TIP3    H257525   6.013   3.494  12.902  2.3476 -0.0045  0.9593
12012TIP3   OH257526   6.740   4.206   5.933  0.0755 -0.0954  0.0033
12012TIP3    H157527   6.811   4.224   5.871  0.2839  3.8689  1.2336
12012TIP3    H257528   6.783   4.156   6.003  1.1782  0.3641 -0.3239
12013TIP3   OH257529   4.797   0.399  16.221 -0.2315 -0.2179  0.3224
12013TIP3    H157530   4.703   0.379  16.222 -0.4970  0.9715 -0.0360
12013TIP3    H257531   4.819   0.405  16.128 -0.1631  1.1220  0.4143
12014TIP3   OH257532   2.083   6.240  14.863  0.1188 -0.3612 -0.2918
12014TIP3    H157533   2.068   6.253  14.770  2.4116 -0.1310 -0.6757
12014TIP3    H257534   2.164   6.289  14.882  0.1769 -1.1205  1.6070
12015TIP3   OH257535   0.883   1.001   0.275 -0.6377 -0.1042 -0.3349
12015TIP3    H157536   0.978   0.996   0.265 -0.7206 -0.3520 -1.0517
12015TIP3    H257537   0.864   1.094   0.284 -0.1725 -0.1712  1.4242
12016TIP3   OH257538   2.666   3.213   6.178  0.2827 -0.6661 -0.2149
12016TIP3    H157539   2.740   3.248   6.227  0.2334  1.8013 -1.8177
12016TIP3    H257540   2.612   3.168   6.244  0.9112  1.3750  1.7676
12017TIP3   OH257541   3.422   5.024   1.512 -0.3242  0.1530  0.0211
12017TIP3    H157542   3.440   5.104   1.463 -1.2592  0.2135 -0.2315
12017TIP3    H257543   3.440   5.047   1.603  1.0257  0.1575 -0.2427
12018TIP3   OH257544   6.633   1.571   2.630  0.0179  0.8325  0.4651
12018TIP3    H157545   6.575   1.498   2.652  0.4722  0.3349  0.0364
12018TIP3    H257546   6.721   1.532   2.626  0.7010  2.0108  3.2782
12019TIP3   OH257547   2.493   5.872   6.063 -0.1333  0.3863  0.5787
12019TIP3    H157548   2.509   5.966   6.071  0.7836  0.3139 -0.2789
12019TIP3    H257549   2.442   5.850   6.141 -0.3122  1.5805  0.8177
12020TIP3   OH257550   3.775   4.525   0.290 -0.4324 -0.7104  0.3006
12020TIP3    H157551   3.762   4.602   0.236  1.8386  0.4529  1.3131
12020TIP3    H257552   3.851   4.480   0.251  0.7746 -0.2453  2.0242
12021TIP3   OH257553   2.209   1.004  15.939 -0.0753 -0.4113  0.8992
12021TIP3    H157554   2.200   0.995  16.034  1.1835 -0.6137  1.0181
12021TIP3    H257555   2.241   1.093  15.927 -0.5632 -0.2711  0.6363
12022TIP3   OH257556   5.957   6.716   1.949  0.4992  0.2332 -0.4268
12022TIP3    H157557   5.887   6.711   1.883 -1.2751  2.3922  1.2178
12022TIP3    H257558   6.001   6.798   1.932  0.4669  0.4816  0.6305
12023TIP3   OH257559   1.202   2.366  12.479  0.4601  0.2469  0.2165
12023TIP3    H157560   1.120   2.366  12.529  1.3320  0.7177  1.6752
12023TIP3    H257561   1.264   2.319  12.534  1.4304  0.7260 -0.4468
12024TIP3   OH257562   4.848   1.275   2.818 -0.4177  0.3560  0.3483
12024TIP3    H157563   4.937   1.290   2.785  0.1227 -1.9026  0.6426
12024TIP3    H257564   4.794   1.338   2.772  0.9429 -0.0598 -1.8982
12025TIP3   OH257565   4.989   0.958   4.103  0.0718 -0.1782  0.5481
12025TIP3    H157566   4.939   1.022   4.154 -1.6550 -1.5512  0.6023
12025TIP3    H257567   5.010   0.889   4.166  1.3538 -0.0116  0.3253
12026TIP3   OH257568   6.470   6.023  16.145  0.0488  0.2599  0.0808
12026TIP3    H157569   6.471   6.041  16.051 -2.3132 -1.0886 -0.2326
12026TIP3    H257570   6.465   6.110  16.185  1.3530  0.8588 -1.0240
12027TIP3   OH257571   6.138   6.661   3.020 -0.0727 -0.4365  0.1711
12027TIP3    H157572   6.094   6.586   3.061  1.5552 -1.6622 -0.2746
12027TIP3    H257573   6.093   6.673   2.937 -0.2925 -0.9798  0.2123
12028TIP3   OH257574   2.989   3.413   3.874 -0.4049  0.0099 -0.0875
12028TIP3    H157575   2.965   3.492   3.825 -1.1016  0.4590  0.9312
12028TIP3    H257576   2.937   3.343   3.835 -1.2304  0.4322  0.2420
12029TIP3   OH257577   0.357   1.207   0.817 -0.0824  0.6966 -0.4329
12029TIP3    H157578   0.436   1.152   0.813 -0.2846  0.4598 -1.1064
12029TIP3    H257579   0.374   1.266   0.891 -0.6025 -1.4188  1.4582
12030TIP3   OH257580   1.999   2.887   0.925 -0.3152 -0.4215 -0.1259
12030TIP3    H157581   2.083   2.928   0.947 -0.3533  0.0987 -0.9208
12030TIP3    H257582   2.023   2.819   0.861 -0.2663 -1.5704  1.0894
12031TIP3   OH257583   4.342   1.862  16.096 -0.1441 -0.0876  0.0105
12031TIP3    H157584   4.344   1.895  16.186  0.8284 -3.5509  1.3316
12031TIP3    H257585   4.265   1.806  16.093  0.6028 -1.0841 -0.8902
12032TIP3   OH257586   2.249   1.201  11.750 -0.0777 -0.0288 -0.1887
12032TIP3    H157587   2.323   1.261  11.742 -1.3331  2.0377  2.9864
12032TIP3    H257588   2.237   1.190  11.844 -1.3356 -3.5204 -0.6912
12033TIP3   OH257589   1.580   5.058  15.538  0.4385  0.1072 -0.3303
12033TIP3    H157590   1.623   5.139  15.564 -1.6797  1.3329 -0.5421
12033TIP3    H257591   1.586   5.002  15.616  0.5765  1.0355  0.3294
12034TIP3   OH257592   4.904   4.221   3.248 -0.1682 -0.1112 -0.1750
12034TIP3    H157593   4.939   4.142   3.207  0.7767  0.6515 -0.8406
12034TIP3    H257594   4.849   4.261   3.181 -1.0108 -0.4414  0.3161
12035TIP3   OH257595   1.151   5.174  11.509  0.5190 -0.2407  0.0633
12035TIP3    H157596   1.129   5.124  11.431 -1.9754 -0.4634  0.8780
12035TIP3    H257597   1.068   5.190  11.553  1.9194 -0.8682  3.1386
12036TIP3   OH257598   0.771   6.533  11.652  0.0167  0.1105 -0.7879
12036TIP3    H157599   0.822   6.496  11.580  0.0529  1.7655 -1.6357
12036TIP3    H257600   0.836   6.564  11.714  0.0291  0.7955 -1.1364
12037TIP3   OH257601   3.973   2.464  11.957 -0.6298  0.6955 -0.9916
12037TIP3    H157602   4.052   2.496  12.000 -0.1579 -1.1747 -0.4239
12037TIP3    H257603   3.957   2.379  11.997 -2.8667  1.0026 -1.1966
12038TIP3   OH257604   0.247   0.924   2.305 -0.0174  0.2086  0.3744
12038TIP3    H157605   0.175   0.987   2.305  1.0684  1.4592  0.7803
12038TIP3    H257606   0.306   0.955   2.372 -0.4028 -2.3512  1.9776
12039TIP3   OH257607   3.048   6.357  13.547 -0.0857  0.8261  0.1392
12039TIP3    H157608   3.112   6.298  13.587  0.7293 -0.2291 -2.6226
12039TIP3    H257609   3.086   6.380  13.462 -2.8523  1.0669 -1.0822
12040TIP3   OH257610   2.373   2.969  13.321 -0.1446 -0.2007 -0.0908
12040TIP3    H157611   2.315   3.038  13.287 -1.5437 -1.1633  0.2730
12040TIP3    H257612   2.380   2.907  13.248  0.8193  0.1432 -0.2931
12041TIP3   OH257613   5.550   5.379  14.621  0.1320 -0.7780  1.2790
12041TIP3    H157614   5.597   5.338  14.693  1.6331  0.3326  0.9620
12041TIP3    H257615   5.496   5.447  14.662 -0.3143 -1.2892  1.5316
12042TIP3   OH257616   0.773   6.110  15.414 -0.3970 -0.0447  0.2482
12042TIP3    H157617   0.852   6.145  15.455 -0.0760 -1.9262  1.2732
12042TIP3    H257618   0.743   6.180  15.356  0.4419  1.7673  1.9570
12043TIP3   OH257619   1.218   6.079   1.473 -0.5985  0.0311 -0.5218
12043TIP3    H157620   1.150   6.109   1.533  0.1583 -1.6490  1.1943
12043TIP3    H257621   1.175   6.013   1.419 -1.1916  1.3195 -1.6759
12044TIP3   OH257622   2.506   6.173   5.808  0.3213  0.5555  0.0021
12044TIP3    H157623   2.592   6.135   5.827  0.5074  1.7440  1.6913
12044TIP3    H257624   2.512   6.264   5.838 -1.8972  0.3115  1.3896
12045TIP3   OH257625   2.895   6.151  11.330  0.3771 -0.5440  0.8456
12045TIP3    H157626   2.946   6.144  11.250  0.3561  2.0077  0.5727
12045TIP3    H257627   2.809   6.114  11.307  0.2110  0.6248 -0.4834
12046TIP3   OH257628   0.748   6.238   4.090  0.2928 -0.2983  0.7600
12046TIP3    H157629   0.744   6.206   4.000 -1.4927  1.6105  0.1196
12046TIP3    H257630   0.673   6.197   4.134  0.4045 -0.2213  1.0251
12047TIP3   OH257631   0.176   3.473  12.821 -0.8297 -0.8203 -0.2153
12047TIP3    H157632   0.081   3.467  12.831 -0.9101 -0.2679 -0.5991
12047TIP3    H257633   0.189   3.499  12.730 -0.3706  0.3725  0.1761
12048TIP3   OH257634   4.058   4.982  15.482 -0.0377 -0.1505 -0.2406
12048TIP3    H157635   4.009   4.914  15.528  1.1695  0.5782  2.2484
12048TIP3    H257636   4.078   5.047  15.550  3.7128 -0.0895 -1.2796
12049TIP3   OH257637   2.534   4.265   5.004  0.3887 -0.3520  0.1023
12049TIP3    H157638   2.496   4.350   4.982 -1.4007 -1.3497 -0.8259
12049TIP3    H257639   2.588   4.282   5.081 -0.6816  1.4535  0.4950
12050TIP3   OH257640   6.278   5.104  13.744  0.0561 -0.1860  0.3365
12050TIP3    H157641   6.283   5.195  13.714 -0.5469 -0.5091 -0.8026
12050TIP3    H257642   6.216   5.106  13.817 -0.7714  0.1676 -0.3620
12051TIP3   OH257643   0.488   1.933   4.720  0.3876  0.0967 -0.1505
12051TIP3    H157644   0.503   1.904   4.810  2.2397 -0.4466 -0.6051
12051TIP3    H257645   0.450   1.856   4.677  0.1732  0.1229 -0.0096
12052TIP3   OH257646   0.000   3.088   0.920  0.3221  0.0966 -0.5890
12052TIP3    H157647  -0.012   3.171   0.873  0.8464 -0.3935 -1.6028
12052TIP3    H257648  -0.077   3.080   0.975 -0.2972  0.6856 -1.3643
12053TIP3   OH257649   4.393   5.965  16.373 -0.3431 -0.1928  0.1027
12053TIP3    H157650   4.486   5.947  16.363  0.2954  1.6718  2.2194
12053TIP3    H257651   4.363   5.982  16.283  1.4913 -0.1259 -0.5303
12054TIP3   OH257652   3.852   6.301   1.592  0.2690  0.6584 -0.5285
12054TIP3    H157653   3.808   6.280   1.674 -0.3477 -0.2079 -1.0750
12054TIP3    H257654   3.815   6.385   1.565 -1.4350 -0.3078 -1.2458
12055TIP3   OH257655   5.114   4.124  11.068 -0.4051  0.0039 -0.3639
12055TIP3    H157656   5.091   4.204  11.116 -0.4346 -0.1127 -0.1847
12055TIP3    H257657   5.209   4.130  11.056 -0.2583 -0.4360  0.5580
12056TIP3   OH257658   6.267   1.972   3.170  0.2622 -0.3886 -0.0172
12056TIP3    H157659   6.183   2.012   3.150 -0.2958 -2.1751 -1.4319
12056TIP3    H257660   6.327   2.046   3.180 -1.1498  0.8578 -0.5515
12057TIP3   OH257661   1.715   4.210   1.696 -0.0371 -0.4864  0.0448
12057TIP3    H157662   1.715   4.136   1.757  0.1263 -1.3672 -1.0137
12057TIP3    H257663   1.710   4.288   1.752  3.2069 -1.1342  1.3527
12058TIP3   OH257664   2.023   4.232  13.325 -0.5966  0.2097 -0.3800
12058TIP3    H157665   2.117   4.224  13.307 -0.0948 -0.3074  2.1574
12058TIP3    H257666   2.020   4.265  13.415 -2.8482  0.2052 -0.4454
12059TIP3   OH257667   4.310   1.140  11.200  0.4560  0.2816 -0.6210
12059TIP3    H157668   4.251   1.190  11.144  0.2697  0.2698 -0.4371
12059TIP3    H257669   4.265   1.136  11.284  0.6966  0.2263 -0.4958
12060TIP3   OH257670   5.206   6.244   4.316  0.0639  0.1544  0.4699
12060TIP3    H157671   5.268   6.308   4.349  0.6458 -0.1638 -0.0092
12060TIP3    H257672   5.245   6.212   4.235 -3.1577  3.7923 -2.7255
12061TIP3   OH257673   6.381   4.808  16.069 -0.0734 -0.3577 -0.0214
12061TIP3    H157674   6.363   4.834  15.979 -0.4599  0.7704  0.3809
12061TIP3    H257675   6.458   4.751  16.062 -0.3684 -0.6356 -1.1004
12062TIP3   OH257676   5.523   2.334   3.742  0.2321 -0.3188 -0.1632
12062TIP3    H157677   5.567   2.405   3.695  0.1260 -0.2670 -0.1839
12062TIP3    H257678   5.488   2.375   3.820  0.9072 -0.5224  0.2553
12063TIP3   OH257679   5.066   4.273   1.344  0.2288  0.5657 -0.0781
12063TIP3    H157680   5.065   4.178   1.344  0.6816  0.4559 -4.1609
12063TIP3    H257681   4.976   4.299   1.364 -0.3870 -0.7947 -1.0227
12064TIP3   OH257682   4.646   1.954   4.626 -0.0111  0.0665 -0.0295
12064TIP3    H157683   4.672   2.033   4.578  2.0775  0.3008  1.4000
12064TIP3    H257684   4.559   1.974   4.660 -0.5278  0.7898 -1.7444
12065TIP3   OH257685   2.855   2.105   2.618 -0.2157  0.1800 -0.5614
12065TIP3    H157686   2.855   2.037   2.685  1.2636  0.1623 -0.5583
12065TIP3    H257687   2.793   2.171   2.650  0.2211  0.0073  0.6605
12066TIP3   OH257688   5.547   3.323  14.237 -0.5232  0.2411  0.3293
12066TIP3    H157689   5.630   3.290  14.202 -0.4619  0.3491  0.3723
12066TIP3    H257690   5.509   3.248  14.284  0.1485  0.5419  1.3761
12067TIP3   OH257691   2.220   4.867   4.285 -0.9424  0.0250 -0.5361
12067TIP3    H157692   2.137   4.914   4.300 -1.0831 -0.7640  1.3000
12067TIP3    H257693   2.199   4.776   4.305 -0.6825 -0.8889 -4.1570
12068TIP3   OH257694   3.022   4.417  15.594  0.9190  0.1735 -0.2460
12068TIP3    H157695   3.068   4.343  15.555  0.8714 -0.2443  0.4888
12068TIP3    H257696   3.066   4.430  15.679  0.0326  0.1096  0.2234
12069TIP3   OH257697   3.160   2.317   2.281 -0.1973  0.0496  0.0645
12069TIP3    H157698   3.088   2.345   2.224 -0.5141  1.4161  1.0988
12069TIP3    H257699   3.119   2.255   2.342 -0.0040 -0.8881 -0.7464
12070TIP3   OH257700   4.208   6.726  13.569  0.0756  0.4046  0.5841
12070TIP3    H157701   4.277   6.673  13.530  0.0809  2.3378 -2.1723
12070TIP3    H257702   4.127   6.679  13.549  0.2786  0.1366  0.3945
12071TIP3   OH257703   0.621   4.629  13.295  0.1513 -0.0712 -0.0600
12071TIP3    H157704   0.650   4.706  13.246 -0.4792  0.4267  0.3591
12071TIP3    H257705   0.650   4.644  13.385  1.3674 -1.0184 -0.2668
12072TIP3   OH257706   3.042   1.813   1.890  0.0682  0.3664 -0.1079
12072TIP3    H157707   3.131   1.847   1.900  0.6396  0.6492 -4.9119
12072TIP3    H257708   3.052   1.718   1.893 -0.1334  0.4116  3.5465
12073TIP3   OH257709   2.336   3.647  15.554  0.4124 -0.0386 -0.5251
12073TIP3    H157710   2.386   3.606  15.625  1.0212 -1.2613 -1.6533
12073TIP3    H257711   2.300   3.726  15.594 -0.6651 -1.5708  1.6489
12074TIP3   OH257712   4.786   5.138   3.775 -0.0234 -0.0752  0.4993
12074TIP3    H157713   4.788   5.200   3.849  0.8163 -0.0288  0.4496
12074TIP3    H257714   4.698   5.102   3.776  0.0217 -0.1893  1.6328
12075TIP3   OH257715   1.670   0.811  13.462 -0.5258  0.3851  0.1492
12075TIP3    H157716   1.728   0.882  13.488  0.8368  0.5951 -3.1668
12075TIP3    H257717   1.585   0.854  13.448 -0.6137  0.7072  1.6732
12076TIP3   OH257718   2.986   4.679   5.909  0.0679 -0.1453 -0.2876
12076TIP3    H157719   2.993   4.710   5.999  0.8864 -2.3911  0.4440
12076TIP3    H257720   2.893   4.658   5.897 -0.2291  1.1277 -0.3304
12077TIP3   OH257721   6.069   5.377  14.829 -0.0347 -0.1321 -0.2543
12077TIP3    H157722   6.026   5.297  14.858  0.5248 -0.7803 -1.1722
12077TIP3    H257723   5.999   5.429  14.789 -0.5969  0.3034  1.2534
12078TIP3   OH257724   5.522   1.802   2.740  0.3608  0.1691 -0.4938
12078TIP3    H157725   5.438   1.844   2.721  0.4882  0.2852 -0.8034
12078TIP3    H257726   5.556   1.849   2.816  0.9180  1.2092 -1.3760
12079TIP3   OH257727   6.738   3.199   6.343 -0.7921  0.2463  0.3647
12079TIP3    H157728   6.683   3.123   6.361 -2.0694  0.8637 -0.8625
12079TIP3    H257729   6.774   3.224   6.429  0.3009 -2.2263  0.6429
12080TIP3   OH257730   4.111   0.425   4.214  0.1217 -0.2752 -0.4881
12080TIP3    H157731   4.169   0.499   4.234  0.4730 -0.2993 -1.3825
12080TIP3    H257732   4.055   0.416   4.291 -1.1908  2.1268 -1.1204
12081TIP3   OH257733   5.169   5.598   2.967  0.2787 -0.0071 -0.5916
12081TIP3    H157734   5.210   5.514   2.952  1.5759  0.5492 -0.2295
12081TIP3    H257735   5.083   5.591   2.926  1.1068 -0.8504 -2.2029
12082TIP3   OH257736   1.417   5.960  11.942  0.4423 -0.1268 -0.3027
12082TIP3    H157737   1.395   6.052  11.958 -1.1163 -0.1831 -1.9875
12082TIP3    H257738   1.419   5.921  12.030  0.5441  1.3814  0.3791
12083TIP3   OH257739   5.857   1.054   1.610 -0.5854 -0.1717  0.5197
12083TIP3    H157740   5.774   1.025   1.573  0.2536 -1.4957 -0.4098
12083TIP3    H257741   5.917   1.057   1.535  0.7543 -1.4166  1.4913
12084TIP3   OH257742   2.409   1.325  13.121 -0.3516 -0.1194  0.9576
12084TIP3    H157743   2.390   1.239  13.160 -1.1944  0.2801  1.4408
12084TIP3    H257744   2.373   1.388  13.183 -1.0675  0.5485 -0.1312
12085TIP3   OH257745   4.799   2.766   1.496  0.4475 -0.1521  0.2204
12085TIP3    H157746   4.779   2.683   1.539  1.1672  0.7789  2.4777
12085TIP3    H257747   4.738   2.828   1.535  1.5949  0.8685  0.4409
12086TIP3   OH257748   5.505   5.535  13.597  0.5420 -0.1586  0.3979
12086TIP3    H157749   5.508   5.624  13.633 -1.0401 -0.2672  0.8477
12086TIP3    H257750   5.424   5.534  13.546  2.1874 -0.3442 -2.2949
12087TIP3   OH257751   6.486   6.224  12.571 -0.4216  0.4891 -0.3164
12087TIP3    H157752   6.531   6.252  12.492  2.8630 -1.7446  0.6761
12087TIP3    H257753   6.539   6.259  12.643 -2.0835  0.5606  0.9109
12088TIP3   OH257754   6.807   0.193   3.100 -0.0955 -0.2412  0.4722
12088TIP3    H157755   6.822   0.281   3.134  1.7601 -0.5383  0.4503
12088TIP3    H257756   6.860   0.136   3.156 -1.0961 -1.3230  0.3402
12089TIP3   OH257757   5.342   0.077  14.024  0.2347 -0.8171  0.0698
12089TIP3    H157758   5.411   0.063  14.089  0.7074 -0.3655 -0.3287
12089TIP3    H257759   5.283   0.140  14.065  0.4010 -0.7213  0.1652
12090TIP3   OH257760   1.199   2.922   1.641  0.0206 -0.4830  0.7739
12090TIP3    H157761   1.140   2.847   1.631 -0.3162 -0.0152 -1.0583
12090TIP3    H257762   1.142   2.994   1.666 -0.5223  0.3620 -2.6133
12091TIP3   OH257763   2.372   1.801   5.078 -0.1949  0.4782  0.4447
12091TIP3    H157764   2.445   1.808   5.017 -0.5536 -0.7253 -0.1513
12091TIP3    H257765   2.294   1.811   5.024 -0.6022 -3.1432  0.2014
12092TIP3   OH257766   3.211   6.289   5.072  0.1976  0.4636  0.0579
12092TIP3    H157767   3.179   6.366   5.120 -1.5898 -0.0358 -0.2755
12092TIP3    H257768   3.268   6.325   5.004  0.4140  1.3994  0.7225
12093TIP3   OH257769   6.259   3.685  17.258 -0.0576 -0.1068  0.9140
12093TIP3    H157770   6.350   3.654  17.252  0.4158  1.3536  0.4010
12093TIP3    H257771   6.267   3.779  17.275 -1.4849  0.2015 -0.0910
12094TIP3   OH257772   0.474   2.789   3.040 -0.1014  0.2701 -0.1695
12094TIP3    H157773   0.536   2.816   3.108 -0.4567  1.8085 -0.4318
12094TIP3    H257774   0.526   2.790   2.959  0.0768 -0.5943 -0.0660
12095TIP3   OH257775   0.907   6.510   2.596  0.2659  0.5936  0.2361
12095TIP3    H157776   0.868   6.525   2.510 -1.1205  0.5242  0.8345
12095TIP3    H257777   0.833   6.512   2.657  1.2809  1.0385  1.4795
12096TIP3   OH257778   4.433   1.449  15.711 -0.1310 -0.7460  0.3837
12096TIP3    H157779   4.376   1.372  15.719 -1.2571  0.0865  0.4586
12096TIP3    H257780   4.458   1.450  15.618 -0.3246 -1.0610  0.3248
12097TIP3   OH257781   5.255   4.350   5.682  0.1456  0.1939  0.0571
12097TIP3    H157782   5.248   4.259   5.653 -0.9162  0.2746  0.0153
12097TIP3    H257783   5.334   4.352   5.735 -0.1869 -0.9215  0.6234
12098TIP3   OH257784   5.280   3.527   3.392  0.2753 -0.6418  0.2507
12098TIP3    H157785   5.248   3.618   3.395  1.4213 -0.2119 -0.2442
12098TIP3    H257786   5.230   3.482   3.460 -0.2307  0.3888  0.5753
12099TIP3   OH257787   3.229   0.045  14.744  0.1129  0.3095 -0.1616
12099TIP3    H157788   3.258   0.123  14.792  0.5283  0.6622 -0.9730
12099TIP3    H257789   3.283   0.044  14.665 -0.7689 -0.0955 -0.7733
12100TIP3   OH257790   5.632   0.130   5.619  0.3918  0.2027  0.2011
12100TIP3    H157791   5.566   0.140   5.688  0.7618 -0.2538  0.6250
12100TIP3    H257792   5.660   0.220   5.599  0.1926  0.3447  0.5573
12101TIP3   OH257793   0.630   1.616   5.593 -0.1590 -0.1908  0.3992
12101TIP3    H157794   0.552   1.622   5.538 -0.9527  1.0208  1.6167
12101TIP3    H257795   0.695   1.670   5.548 -0.4560 -0.0903  0.0847
12102TIP3   OH257796   2.407   3.003   3.384  0.5030 -0.1797  0.2370
12102TIP3    H157797   2.487   3.030   3.339 -0.9046 -0.1437 -2.3386
12102TIP3    H257798   2.420   2.910   3.401  1.2792 -0.0794  0.2238
12103TIP3   OH257799   2.376   2.502   4.548 -0.2612 -0.2450 -0.6028
12103TIP3    H157800   2.402   2.556   4.623  0.9353  0.1495 -1.3010
12103TIP3    H257801   2.362   2.415   4.586 -1.3861  0.3412  0.3798
12104TIP3   OH257802   0.927   2.276  14.424 -0.7822  0.3865 -0.5877
12104TIP3    H157803   0.900   2.233  14.505 -2.2155 -0.9900 -1.7629
12104TIP3    H257804   1.022   2.267  14.422 -0.6414  1.2088  1.3454
12105TIP3   OH257805   1.063   1.492  12.772  0.3917  0.0740 -0.1227
12105TIP3    H157806   1.023   1.406  12.759  1.1057  0.0355 -2.3275
12105TIP3    H257807   0.989   1.553  12.776 -0.1873 -0.7418  2.7570
12106TIP3   OH257808   1.326   2.817  14.716  0.5833 -0.6908  0.1761
12106TIP3    H157809   1.411   2.805  14.675  0.9897  0.8890  0.5268
12106TIP3    H257810   1.330   2.904  14.754 -1.0909 -0.7172  0.4443
12107TIP3   OH257811   4.050   4.299   2.675 -0.7827 -0.1976 -0.6506
12107TIP3    H157812   4.001   4.354   2.614 -3.5661 -0.3506  1.3377
12107TIP3    H257813   4.104   4.360   2.725 -1.4309  0.3705 -0.6428
12108TIP3   OH257814   4.268   3.153   2.008  0.1514  0.1905  0.0352
12108TIP3    H157815   4.274   3.246   2.032  0.0404  0.2279 -0.0833
12108TIP3    H257816   4.342   3.113   2.052 -0.4988  0.1214  1.1088
12109TIP3   OH257817   3.979   4.142   3.082  0.0400  0.5707  0.3200
12109TIP3    H157818   3.974   4.052   3.048 -1.8011 -0.2304  2.5295
12109TIP3    H257819   3.938   4.195   3.014  0.3513 -0.3794 -0.6336
12110TIP3   OH257820   0.668   1.480   1.841 -0.0882 -0.4752 -0.2697
12110TIP3    H157821   0.709   1.564   1.863 -0.1006 -0.8176  1.0970
12110TIP3    H257822   0.735   1.415   1.859  0.2681 -0.7004 -2.2983
12111TIP3   OH257823   1.028   0.967  16.313 -0.0311  0.7219  0.0015
12111TIP3    H157824   1.011   0.947  16.221 -0.3299 -1.5174  0.5082
12111TIP3    H257825   1.120   0.994  16.315  0.9548 -2.4491 -0.5042
12112TIP3   OH257826   4.210   0.145   4.448 -0.0009 -0.4896 -0.0316
12112TIP3    H157827   4.254   0.206   4.508  0.2929  0.2330 -0.9821
12112TIP3    H257828   4.260   0.064   4.456 -1.0295 -0.9704  2.0505
12113TIP3   OH257829   4.310   2.648   5.047  0.0204 -0.0794 -0.0981
12113TIP3    H157830   4.363   2.571   5.030  0.8774  0.6049 -0.5851
12113TIP3    H257831   4.369   2.722   5.031 -0.6172  0.6664  0.9301
12114TIP3   OH257832   1.878   6.010   0.930 -0.8165  0.3165 -0.5589
12114TIP3    H157833   1.926   5.929   0.917 -0.0826  0.7093 -0.3458
12114TIP3    H257834   1.878   6.023   1.025 -0.9237  0.5592 -0.5910
12115TIP3   OH257835   0.667   3.750   3.705  1.3658  0.4656 -0.0301
12115TIP3    H157836   0.597   3.702   3.749  1.2631 -1.1098 -1.8880
12115TIP3    H257837   0.697   3.813   3.771  0.4425 -1.0544  1.9012
12116TIP3   OH257838   1.118   1.714   5.256  0.2636  0.1360 -0.4515
12116TIP3    H157839   1.212   1.694   5.250 -0.0161 -1.5974  0.5126
12116TIP3    H257840   1.078   1.663   5.186  0.0305  0.8984 -0.8794
12117TIP3   OH257841   3.367   2.438   5.844  0.4226  0.0360 -0.0312
12117TIP3    H157842   3.309   2.456   5.771  0.9722 -1.1830 -0.7726
12117TIP3    H257843   3.320   2.472   5.921 -0.8620 -0.1353 -0.7301
12118TIP3   OH257844   5.746   0.945  17.204 -0.0508  0.0614  0.2456
12118TIP3    H157845   5.755   0.860  17.246 -1.1283 -0.8971 -1.3967
12118TIP3    H257846   5.835   0.973  17.186  0.2938 -0.8569  0.5367
12119TIP3   OH257847   4.525   0.392  16.269 -0.8831 -0.5389 -0.0605
12119TIP3    H157848   4.473   0.467  16.240 -1.5611 -1.1449 -0.4252
12119TIP3    H257849   4.502   0.381  16.361 -1.9940 -1.2749 -0.4126
12120TIP3   OH257850   1.316   4.459   1.973  0.0368  0.1489  0.1598
12120TIP3    H157851   1.379   4.427   2.038  0.9069  0.4085 -0.5300
12120TIP3    H257852   1.340   4.413   1.893  0.7439  1.8502 -0.6330
12121TIP3   OH257853   4.187   6.019  14.825 -0.0444  0.0075  0.0006
12121TIP3    H157854   4.255   6.037  14.760  0.4366 -0.9930  0.2265
12121TIP3    H257855   4.231   6.031  14.909  0.0438 -1.3844  0.1509
12122TIP3   OH257856   5.723   6.565   6.213 -0.4136 -0.1233 -0.4136
12122TIP3    H157857   5.731   6.503   6.285  1.0781 -0.9427 -1.2351
12122TIP3    H257858   5.759   6.647   6.247  0.7809 -0.6535 -0.3779
12123TIP3   OH257859   2.044   0.515  10.866 -0.7615 -0.0240 -0.0955
12123TIP3    H157860   2.084   0.456  10.929  0.0695 -0.3927 -0.9650
12123TIP3    H257861   1.987   0.460  10.812  1.9763 -0.5630 -2.5922
12124TIP3   OH257862   1.610   1.512   5.023 -0.1024 -1.1210 -0.1830
12124TIP3    H157863   1.626   1.583   4.961 -1.0059 -0.9276 -0.1911
12124TIP3    H257864   1.517   1.518   5.044  0.3567 -0.6559  1.8433
12125TIP3   OH257865   1.056   3.759   4.430 -0.6829  0.3782 -0.5151
12125TIP3    H157866   1.024   3.699   4.363  2.2179  0.0776 -1.6955
12125TIP3    H257867   1.135   3.718   4.464  0.1564  2.4848  0.1915
12126TIP3   OH257868   6.274   2.358  16.440  0.2113 -0.9303 -0.0367
12126TIP3    H157869   6.221   2.310  16.377  1.3673 -0.7996 -1.1302
12126TIP3    H257870   6.214   2.379  16.511 -0.9219 -1.7584 -0.7328
12127TIP3   OH257871   4.091   1.723   4.094 -0.1224  0.3679 -0.2215
12127TIP3    H157872   4.115   1.814   4.111  0.7306  0.8942 -3.9588
12127TIP3    H257873   4.162   1.672   4.133  0.0934  1.3440  0.6760
12128TIP3   OH257874   4.632   2.463   3.536 -0.6342  0.0016 -0.0873
12128TIP3    H157875   4.545   2.476   3.573 -0.3296  1.6695  0.0829
12128TIP3    H257876   4.643   2.368   3.532 -1.7621 -0.2124  1.5306
12129TIP3   OH257877   5.658   5.515   5.285  0.2521  0.1136 -0.7506
12129TIP3    H157878   5.663   5.423   5.259  1.9782  0.3819 -1.4600
12129TIP3    H257879   5.569   5.541   5.263 -0.1200 -1.2817 -0.9487
12130TIP3   OH257880   1.732   6.614   4.075  0.4639 -0.4685 -0.2979
12130TIP3    H157881   1.776   6.620   4.159 -0.6400 -0.0250  0.2604
12130TIP3    H257882   1.756   6.695   4.030  1.0863 -0.7239 -0.4251
12131TIP3   OH257883   1.009   3.134  14.047  0.5442  0.2049  0.7340
12131TIP3    H157884   0.983   3.194  13.978  1.3323  1.2568  1.3255
12131TIP3    H257885   1.098   3.106  14.023  0.4448 -0.1942  0.8172
12132TIP3   OH257886   3.478   0.216  17.149  0.2595 -0.7000  0.7763
12132TIP3    H157887   3.511   0.252  17.231  1.1721 -0.9592  0.5358
12132TIP3    H257888   3.544   0.151  17.124  1.0840  0.8783 -1.2535
12133TIP3   OH257889   1.559   4.215   3.054  0.3661  0.0063  0.3016
12133TIP3    H157890   1.606   4.298   3.058 -0.1990  0.3375  0.0955
12133TIP3    H257891   1.467   4.240   3.050  0.0185 -0.6705  3.2884
12134TIP3   OH257892   1.777   2.544  14.100  0.2064 -0.2614 -0.2857
12134TIP3    H157893   1.791   2.491  14.178  0.3158  0.0652 -0.0831
12134TIP3    H257894   1.688   2.522  14.071 -0.5454  1.0096  1.0035
12135TIP3   OH257895   1.350   3.048   5.008  0.0675  0.2789 -0.4370
12135TIP3    H157896   1.334   3.068   4.915  0.5812 -0.4383 -0.6887
12135TIP3    H257897   1.263   3.043   5.047 -0.3059 -2.1921 -1.4840
12136TIP3   OH257898   5.178   5.569   3.510  0.4161  0.2418  0.8008
12136TIP3    H157899   5.260   5.521   3.498  0.7991  1.5430 -2.3956
12136TIP3    H257900   5.110   5.507   3.486  0.6796  0.1736  0.2239
12137TIP3   OH257901   4.060   0.114   3.089  0.5945 -0.2065 -0.7792
12137TIP3    H157902   3.993   0.177   3.062  1.3443  1.8731  1.9884
12137TIP3    H257903   4.012   0.033   3.104 -1.0185  0.7740 -0.5396
12138TIP3   OH257904   6.109   6.701   3.534 -0.0451 -1.0989 -0.2498
12138TIP3    H157905   6.090   6.622   3.483 -0.5552 -2.2368  1.6472
12138TIP3    H257906   6.194   6.683   3.574 -0.5075 -1.0218  0.7845
12139TIP3   OH257907   6.625   3.186  11.931  0.4313 -0.4325 -0.3799
12139TIP3    H157908   6.631   3.110  11.874  1.2073 -1.9362  1.6446
12139TIP3    H257909   6.713   3.197  11.966 -0.2179 -0.0587  1.1694
12140TIP3   OH257910   1.246   5.235   3.917  0.7100 -0.1937  0.2910
12140TIP3    H157911   1.273   5.327   3.921  0.1115  0.0633 -1.2861
12140TIP3    H257912   1.326   5.186   3.936  0.7112  0.6487  2.6455
12141TIP3   OH257913   3.156   0.189   2.850  0.1174  0.2423 -0.3306
12141TIP3    H157914   3.185   0.232   2.770  2.4085 -0.0554  0.3070
12141TIP3    H257915   3.209   0.109   2.855 -1.8787 -1.0869  0.1161
12142TIP3   OH257916   1.249   0.636   1.021 -0.3719  0.2409  0.5885
12142TIP3    H157917   1.159   0.645   0.989  0.4119 -0.4741 -1.8818
12142TIP3    H257918   1.256   0.544   1.048 -0.0318 -0.0213 -0.3711
12143TIP3   OH257919   5.202   5.734  16.356  0.0347  0.3072 -0.2573
12143TIP3    H157920   5.280   5.758  16.406  0.2043  0.1631 -0.4458
12143TIP3    H257921   5.230   5.657  16.306 -0.5583 -0.3929  0.4914
12144TIP3   OH257922   5.949   0.845   4.561  0.2604  0.6703  0.0484
12144TIP3    H157923   5.922   0.798   4.640 -0.7475  0.5723 -0.3576
12144TIP3    H257924   5.868   0.862   4.513  1.1385 -1.8364 -2.4152
12145TIP3   OH257925   5.191   5.622  17.189 -0.4134 -0.4361  0.7539
12145TIP3    H157926   5.260   5.585  17.134 -0.6986 -1.8503  1.3266
12145TIP3    H257927   5.109   5.591  17.150 -0.6787  0.0646  0.9069
12146TIP3   OH257928   6.089   3.330   1.125 -1.0530  0.1853 -0.4017
12146TIP3    H157929   6.137   3.359   1.202  0.1206  0.5856 -1.2770
12146TIP3    H257930   6.103   3.399   1.060  0.4417 -1.5236 -1.9682
12147TIP3   OH257931   5.076   4.863  12.292 -0.0154  0.3774 -0.0787
12147TIP3    H157932   5.026   4.915  12.355  0.8775  0.8732  0.2272
12147TIP3    H257933   5.048   4.773  12.308  0.1740  0.5030  1.0038
12148TIP3   OH257934   0.934   4.084   0.949  0.0639  0.7558 -0.2314
12148TIP3    H157935   0.871   4.082   0.877  0.4814  1.6826 -0.6344
12148TIP3    H257936   0.995   4.014   0.930 -0.7297 -0.0229  0.0550
12149TIP3   OH257937   3.284   0.340   5.313 -0.0924  0.3471  0.4469
12149TIP3    H157938   3.305   0.246   5.307  2.0905  0.8422  0.0565
12149TIP3    H257939   3.326   0.379   5.237  1.1437  2.0210  1.9500
12150TIP3   OH257940   3.728   6.609  12.702 -0.6755 -0.0854 -0.4993
12150TIP3    H157941   3.750   6.685  12.648  0.0297  0.0667 -0.0023
12150TIP3    H257942   3.652   6.638  12.753 -0.3865  0.2964 -0.2820
12151TIP3   OH257943   0.428   3.155  14.182  0.0132  0.0520  0.0993
12151TIP3    H157944   0.432   3.241  14.224 -1.7115  0.0179  0.3668
12151TIP3    H257945   0.471   3.096  14.244  1.4233  0.7493 -0.1926
12152TIP3   OH257946   1.234   4.589   4.258  0.0497 -0.1450 -0.2296
12152TIP3    H157947   1.311   4.536   4.279  0.8639  0.8756 -0.6393
12152TIP3    H257948   1.221   4.645   4.335  0.6653  0.7931 -0.7993
12153TIP3   OH257949   5.202   4.210  14.450 -0.7246  0.4064  0.3116
12153TIP3    H157950   5.234   4.284  14.501 -1.8346  1.4480 -0.4583
12153TIP3    H257951   5.118   4.241  14.414  0.5270  0.1631 -3.0517
12154TIP3   OH257952   2.585   5.567  16.392 -0.6061 -0.0616  0.2938
12154TIP3    H157953   2.556   5.657  16.410  1.2366  0.7240 -0.4431
12154TIP3    H257954   2.640   5.545  16.467 -1.3713 -0.7346  0.6596
12155TIP3   OH257955   0.460   0.165  12.227 -0.2533  0.5997 -0.2653
12155TIP3    H157956   0.458   0.073  12.200  2.1872  0.6478 -0.6919
12155TIP3    H257957   0.402   0.168  12.304 -0.4499 -1.2540 -0.3105
12156TIP3   OH257958   1.215   3.452   6.501  0.1545 -0.2754  0.1044
12156TIP3    H157959   1.250   3.435   6.588 -0.4657  0.9048  0.5947
12156TIP3    H257960   1.246   3.539   6.479 -1.7092  0.4257  0.1808
12157TIP3   OH257961   6.502   2.503   6.222 -0.0722 -0.7763 -0.2296
12157TIP3    H157962   6.548   2.521   6.304 -1.2207 -0.1698  0.2841
12157TIP3    H257963   6.557   2.437   6.179 -0.2831 -2.2834  1.7456
12158TIP3   OH257964   3.281   5.765  11.648  0.5123  0.0976  0.8070
12158TIP3    H157965   3.338   5.824  11.599  2.0903 -1.1104  1.1719
12158TIP3    H257966   3.230   5.720  11.582  2.4647 -1.3560  0.2503
12159TIP3   OH257967   4.518   3.314  12.102  0.0804 -0.1935  0.5145
12159TIP3    H157968   4.451   3.372  12.136  1.5348  0.7208  1.9064
12159TIP3    H257969   4.592   3.372  12.080 -0.5458 -0.8140 -3.6766
12160TIP3   OH257970   3.669   6.183  16.845 -0.0432 -0.0186 -0.3048
12160TIP3    H157971   3.763   6.194  16.863 -0.0631 -0.9823  0.4247
12160TIP3    H257972   3.647   6.097  16.882 -1.0944 -0.0475 -0.9707
12161TIP3   OH257973   2.410   2.048   3.606  0.7529 -0.6659 -0.2033
12161TIP3    H157974   2.432   2.062   3.514  2.4284  0.7514  0.3842
12161TIP3    H257975   2.406   2.137   3.644 -1.1346 -1.1532  0.8322
12162TIP3   OH257976   3.141   2.084  15.179 -0.0123 -0.2534  0.2851
12162TIP3    H157977   3.112   2.002  15.219  1.4828  0.1189  2.1959
12162TIP3    H257978   3.236   2.081  15.184  0.0544  1.6514  0.4795
12163TIP3   OH257979   4.354   5.519  13.166 -0.1776  0.3635 -0.4413
12163TIP3    H157980   4.424   5.579  13.141 -0.7377  1.7245  1.1268
12163TIP3    H257981   4.358   5.448  13.102  2.1560  0.7851 -0.7839
12164TIP3   OH257982   5.655   4.933   1.520  0.1926 -0.7181  0.8854
12164TIP3    H157983   5.750   4.944   1.525  0.1840 -0.0224 -0.3349
12164TIP3    H257984   5.620   5.018   1.546 -0.1273 -1.1299  1.8490
12165TIP3   OH257985   4.825   5.193   5.240 -0.1948 -0.2711  0.2237
12165TIP3    H157986   4.839   5.107   5.202 -0.0480 -0.5045  0.7940
12165TIP3    H257987   4.828   5.253   5.166  1.1306 -0.6123 -0.0163
12166TIP3   OH257988   0.183   5.421  11.160  0.0881  0.0059  0.1868
12166TIP3    H157989   0.212   5.510  11.141 -2.5662  1.0963  1.1159
12166TIP3    H257990   0.204   5.408  11.252  1.4018 -0.7437 -0.1948
12167TIP3   OH257991   1.420   3.580  12.540  0.1024  0.2651 -0.0926
12167TIP3    H157992   1.504   3.537  12.559 -1.5487 -1.7599  2.9559
12167TIP3    H257993   1.444   3.669  12.514  3.1602 -0.0430  1.4512
12168TIP3   OH257994   5.894   2.919   1.360 -0.5833 -0.2217 -0.0703
12168TIP3    H157995   5.840   2.961   1.293 -1.0968 -0.6946  0.0402
12168TIP3    H257996   5.837   2.852   1.397  0.7859 -2.1839 -1.4173
12169TIP3   OH257997   5.061   4.127  16.319 -0.6309  0.0046  0.7377
12169TIP3    H157998   5.067   4.141  16.414  1.4275 -0.8261  0.7607
12169TIP3    H257999   4.998   4.057  16.309 -0.5656 -0.1757  1.5347
12170TIP3   OH258000   4.914   3.861  16.461  0.1282 -1.0013 -0.3911
12170TIP3    H158001   4.980   3.806  16.505  1.0535 -0.4234 -1.0299
12170TIP3    H258002   4.864   3.799  16.408 -0.8188 -1.6679  1.2357
12171TIP3   OH258003   2.161   2.824   1.519  0.5368 -0.1187  0.2109
12171TIP3    H158004   2.204   2.738   1.509 -0.9738 -0.7021 -1.5583
12171TIP3    H258005   2.098   2.811   1.589 -1.3903 -1.1784 -1.6807
12172TIP3   OH258006   5.156   5.968   5.933 -0.1649 -0.2198 -0.1660
12172TIP3    H158007   5.232   5.910   5.933  0.7747  0.9752 -2.2495
12172TIP3    H258008   5.086   5.915   5.971  0.8411 -2.4660 -1.3712
12173TIP3   OH258009   1.531   2.851   0.785  0.6063 -0.3411 -0.6213
12173TIP3    H158010   1.487   2.767   0.770  1.6009 -1.1108  0.7460
12173TIP3    H258011   1.575   2.841   0.869  1.1044  1.4031 -0.6576
12174TIP3   OH258012   2.827   6.123   1.683  0.0350 -0.5036  0.0926
12174TIP3    H158013   2.776   6.104   1.762  0.0941  0.1056  0.2797
12174TIP3    H258014   2.762   6.122   1.612  0.0333 -1.3714  0.0924
12175TIP3   OH258015   2.840   6.651  11.189 -0.3762 -0.0884 -0.0194
12175TIP3    H158016   2.930   6.630  11.212 -0.0089 -0.5288 -1.7770
12175TIP3    H258017   2.843   6.674  11.096 -2.4855 -2.5986 -0.7694
12176TIP3   OH258018   1.992   1.748  13.758  0.1831  0.0968  0.0559
12176TIP3    H158019   1.997   1.751  13.663  1.6344  0.9123  0.1442
12176TIP3    H258020   2.078   1.716  13.786  0.1391  0.8840  1.1377
12177TIP3   OH258021   2.381   0.080  14.902 -0.1736 -0.4135 -0.4611
12177TIP3    H158022   2.367  -0.014  14.890 -1.2831 -0.6334  2.1693
12177TIP3    H258023   2.372   0.117  14.814  1.5474 -2.8847 -1.7415
12178TIP3   OH258024   2.718   6.461  15.815 -0.1787  0.4015  0.3487
12178TIP3    H158025   2.769   6.539  15.794 -0.3405  0.8175  1.4184
12178TIP3    H258026   2.774   6.411  15.875 -1.1748  1.0873  1.9017
12179TIP3   OH258027   6.812   6.254  15.923  0.3123 -0.2262  0.2333
12179TIP3    H158028   6.828   6.161  15.906  1.3593  0.0056 -0.0772
12179TIP3    H258029   6.899   6.292  15.934 -0.0220  0.9747 -1.0640
12180TIP3   OH258030   1.101   1.863   2.013  0.3332  0.1915 -0.5425
12180TIP3    H158031   1.191   1.891   1.994 -0.1418  0.6135 -2.3113
12180TIP3    H258032   1.111   1.779   2.057  1.6369  0.9359  0.6658
12181TIP3   OH258033   6.595   1.470   1.345 -0.0242  0.0925  0.7328
12181TIP3    H158034   6.535   1.515   1.403 -0.0138  2.6899 -1.1620
12181TIP3    H258035   6.558   1.483   1.257  1.5342 -1.1023 -0.1307
12182TIP3   OH258036   3.817   1.465  14.532  0.0668 -0.1403 -0.5955
12182TIP3    H158037   3.773   1.397  14.584  0.1448 -0.2169 -0.6297
12182TIP3    H258038   3.894   1.421  14.495 -0.5320 -0.3546 -1.5963
12183TIP3   OH258039   3.110   3.126   4.008 -0.5048 -0.1594 -0.1188
12183TIP3    H158040   3.039   3.170   4.054  0.0589  1.1214 -0.4565
12183TIP3    H258041   3.076   3.113   3.919 -0.8501 -0.8498  0.1094
12184TIP3   OH258042   0.020   2.425  12.344  0.0679  0.6169  0.2013
12184TIP3    H158043   0.024   2.338  12.383  0.5988  0.5432 -0.0222
12184TIP3    H258044   0.049   2.484  12.413  2.9043  0.3053 -0.6800
12185TIP3   OH258045   3.708   5.140  16.312  0.3594 -0.4140 -0.2155
12185TIP3    H158046   3.685   5.169  16.224 -0.8308  0.3409  0.3415
12185TIP3    H258047   3.701   5.218  16.366 -0.2988 -1.1805  0.8144
12186TIP3   OH258048   3.340   1.661   3.293  0.4407  0.2158 -0.2040
12186TIP3    H158049   3.424   1.617   3.280 -0.1161 -0.3978 -1.8368
12186TIP3    H258050   3.333   1.722   3.219  0.6275  2.1828  1.3556
12187TIP3   OH258051   4.572   6.472  13.831  0.1173  0.6160 -0.3819
12187TIP3    H158052   4.531   6.541  13.884  0.2531 -0.0116  0.5611
12187TIP3    H258053   4.640   6.518  13.781 -1.3095  1.5448 -1.4801
12188TIP3   OH258054   1.047   5.898  15.541 -0.5454 -0.2217  0.1834
12188TIP3    H158055   1.121   5.911  15.482  0.1028 -0.3120  0.9705
12188TIP3    H258056   1.058   5.810  15.576 -0.9036 -0.1563  0.4717
12189TIP3   OH258057   3.295   0.845   1.286  0.2357 -0.0874 -0.1300
12189TIP3    H158058   3.314   0.914   1.222 -0.4362 -0.6082 -0.9106
12189TIP3    H258059   3.289   0.890   1.370 -1.1035  0.9504 -0.7579
12190TIP3   OH258060   3.056   2.776   2.050  0.0162 -0.3434  0.0896
12190TIP3    H158061   3.110   2.842   2.093  0.3693  0.3858 -1.4493
12190TIP3    H258062   3.117   2.726   1.996 -0.9043  0.8320 -2.0790
12191TIP3   OH258063   3.912   2.652  14.913 -0.3360  0.0376 -0.5127
12191TIP3    H158064   3.818   2.656  14.899 -0.1659  0.8305 -1.5058
12191TIP3    H258065   3.938   2.743  14.929  0.3027 -0.1360 -0.5282
12192TIP3   OH258066   1.961   5.789   6.111 -0.4388 -0.0385 -0.0414
12192TIP3    H158067   2.007   5.708   6.131 -0.2704  0.2393  0.6907
12192TIP3    H258068   1.981   5.848   6.184  0.6152  1.1452 -1.2577
12193TIP3   OH258069   3.510   3.924  11.889 -0.1138  0.2310 -0.4117
12193TIP3    H158070   3.579   3.983  11.859  2.7416 -2.0029  1.3580
12193TIP3    H258071   3.486   3.957  11.975  0.2350 -0.1592 -0.1611
12194TIP3   OH258072   1.208   0.505  15.422 -0.4625  0.3202  0.0698
12194TIP3    H158073   1.177   0.483  15.335  0.5401 -0.4433 -0.1006
12194TIP3    H258074   1.303   0.514  15.413 -0.5008  1.7117  0.7765
12195TIP3   OH258075   1.770   6.000   1.199  0.1071 -0.2465 -0.5927
12195TIP3    H158076   1.677   6.000   1.178 -0.4112 -0.0106  1.5482
12195TIP3    H258077   1.799   5.911   1.179 -1.1991 -1.1043  1.2127
12196TIP3   OH258078   1.063   6.472  12.967 -0.0370 -0.3180  0.2535
12196TIP3    H158079   1.125   6.541  12.990  2.2268 -1.8174 -1.1305
12196TIP3    H258080   1.005   6.512  12.902 -0.1058  0.8983  1.0474
12197TIP3   OH258081   6.368   5.574   4.797  0.0338 -0.0401 -0.0411
12197TIP3    H158082   6.460   5.560   4.818  0.6041  2.8279 -0.5272
12197TIP3    H258083   6.349   5.663   4.827 -1.5583  0.8213 -3.4182
12198TIP3   OH258084   5.756   1.702  11.413 -0.3369  0.2333 -0.2607
12198TIP3    H158085   5.831   1.685  11.469  1.8039  3.5626 -1.9734
12198TIP3    H258086   5.761   1.635  11.345  0.0083 -0.6560  0.6290
12199TIP3   OH258087   4.213   1.638  16.887 -0.2216  0.0766  0.6655
12199TIP3    H158088   4.270   1.707  16.920 -0.3782  0.4189  0.2338
12199TIP3    H258089   4.259   1.604  16.810  0.1679 -0.7502  1.2673
12200TIP3   OH258090   3.950   2.449   0.081  0.2948 -0.7907  0.3075
12200TIP3    H158091   3.899   2.477   0.005  0.1297 -1.4968  0.1541
12200TIP3    H258092   3.948   2.523   0.140 -1.5407 -1.0764  0.6189
12201TIP3   OH258093   1.519   3.073   3.107  0.0951 -0.0266 -0.3813
12201TIP3    H158094   1.528   2.978   3.114 -2.1883 -0.4373 -2.3134
12201TIP3    H258095   1.597   3.101   3.059 -0.0916 -1.1712 -1.3728
12202TIP3   OH258096   6.668   5.234  17.053  0.0917 -0.3482 -0.7227
12202TIP3    H158097   6.587   5.259  17.096 -0.2795 -0.8563 -1.1131
12202TIP3    H258098   6.654   5.253  16.961  0.4692 -0.2972 -0.7718
12203TIP3   OH258099   5.393   0.270  14.881  0.1076 -0.1836 -0.3627
12203TIP3    H158100   5.436   0.186  14.894 -3.4408 -1.9194  0.6942
12203TIP3    H258101   5.327   0.253  14.814 -0.1777  1.9530 -0.6505
12204TIP3   OH258102   5.812   2.957   0.734 -0.3673 -0.4286  0.4870
12204TIP3    H158103   5.814   2.915   0.820  1.6031 -2.1302 -0.3351
12204TIP3    H258104   5.795   2.885   0.673 -0.2642  0.5155 -0.6659
12205TIP3   OH258105   6.812   1.874  10.455 -0.2429  0.0733 -0.3080
12205TIP3    H158106   6.726   1.882  10.497 -0.0072  0.4882  0.0913
12205TIP3    H258107   6.830   1.962  10.421  0.4368  0.2128  0.4014
12206TIP3   OH258108   2.710   3.580  16.770  0.5539 -0.8831  0.0958
12206TIP3    H158109   2.678   3.594  16.859  0.8797 -0.0191  0.0776
12206TIP3    H258110   2.631   3.564  16.719  0.2671 -0.1633  0.3130
12207TIP3   OH258111   0.984   3.506   0.146 -0.0264  0.5049 -0.5751
12207TIP3    H158112   0.904   3.490   0.096  0.3225 -2.2402 -0.3426
12207TIP3    H258113   0.984   3.437   0.213  2.1309  0.9388 -0.1047
12208TIP3   OH258114   4.379   0.197   5.084  0.1789 -0.8660 -0.4884
12208TIP3    H158115   4.286   0.204   5.062  0.2620  0.8210 -0.4018
12208TIP3    H258116   4.388   0.245   5.167  1.1857 -0.6724 -0.6982
12209TIP3   OH258117   2.361   1.349   1.568  1.2468 -0.0582 -0.1233
12209TIP3    H158118   2.359   1.327   1.475  1.6167  1.0830 -0.4101
12209TIP3    H258119   2.451   1.376   1.584  1.5438 -1.6084  0.8973
12210TIP3   OH258120   4.401   5.866  12.672  0.3608 -0.5744 -0.2396
12210TIP3    H158121   4.418   5.789  12.727  0.5855 -2.3252 -2.6976
12210TIP3    H258122   4.326   5.840  12.618  0.0203  1.1975 -0.6387
12211TIP3   OH258123   3.954   0.649   1.192  0.5409  0.4085  0.9647
12211TIP3    H158124   3.870   0.691   1.207  0.7244  1.3752 -0.6479
12211TIP3    H258125   4.018   0.714   1.222  0.7665  0.4186  0.4594
12212TIP3   OH258126   2.367   1.353  16.808 -0.1027 -0.0973  0.6803
12212TIP3    H158127   2.318   1.277  16.776 -0.8775  0.9018 -0.5500
12212TIP3    H258128   2.431   1.371  16.740 -0.4977  0.8860  0.5629
12213TIP3   OH258129   3.145   3.440  13.777  0.0536  0.4198  0.3853
12213TIP3    H158130   3.180   3.360  13.737 -0.7501  0.7886 -1.0995
12213TIP3    H258131   3.195   3.511  13.736  0.0302  0.7393  0.9071
12214TIP3   OH258132   3.195   4.570   3.554 -0.1360 -0.5138 -0.2404
12214TIP3    H158133   3.181   4.586   3.461  1.8172 -1.3736 -0.7089
12214TIP3    H258134   3.108   4.572   3.592 -0.7609  2.2306 -1.6940
12215TIP3   OH258135   5.059   1.071  17.231  0.2468 -0.0569  0.0759
12215TIP3    H158136   5.117   1.141  17.262  3.5373 -1.5628 -2.3371
12215TIP3    H258137   5.109   0.991  17.246 -0.4382 -1.2690 -3.6597
12216TIP3   OH258138   0.876   5.226   2.330 -0.2452 -0.2588 -0.0427
12216TIP3    H158139   0.887   5.190   2.242 -1.1010  3.3605 -1.7493
12216TIP3    H258140   0.934   5.302   2.332  1.1315 -1.3034  3.2110
12217TIP3   OH258141   4.919   1.472  13.729  0.0165 -0.1219 -0.0014
12217TIP3    H158142   4.844   1.528  13.748 -0.1769 -0.9404  1.7159
12217TIP3    H258143   4.993   1.516  13.771 -0.2102 -1.3482  1.7157
12218TIP3   OH258144   4.016   5.829   0.611  0.0131  0.5349 -0.5369
12218TIP3    H158145   3.957   5.753   0.610 -1.6325  1.7169  1.2517
12218TIP3    H258146   4.103   5.792   0.596 -1.0149 -1.4264 -1.9706
12219TIP3   OH258147   3.292   0.315   1.964 -0.7531 -0.3541 -0.0523
12219TIP3    H158148   3.339   0.247   2.014 -0.9384 -0.1990  0.3288
12219TIP3    H258149   3.341   0.321   1.882 -1.7722 -2.2234 -0.8417
12220TIP3   OH258150   3.737   3.384   4.426  0.5012  0.1358  0.3055
12220TIP3    H158151   3.687   3.453   4.469 -2.4659 -1.3692 -0.5781
12220TIP3    H258152   3.725   3.307   4.482  0.2700 -0.7241 -0.9030
12221TIP3   OH258153   6.746   2.194  16.632 -0.1836 -0.2299 -0.1139
12221TIP3    H158154   6.677   2.222  16.572  0.1322 -0.0576 -0.3987
12221TIP3    H258155   6.822   2.177  16.575  0.0713 -0.2123  0.2211
12222TIP3   OH258156   4.503   5.881   3.233 -0.0510 -0.5094  0.1223
12222TIP3    H158157   4.536   5.956   3.284 -2.6262 -0.2299  1.4464
12222TIP3    H258158   4.516   5.806   3.291 -2.6952 -0.2348  1.1603
12223TIP3   OH258159   4.548   0.799   2.997  0.1422 -0.4943  0.7677
12223TIP3    H158160   4.563   0.708   3.023 -0.9459 -0.1896  2.5231
12223TIP3    H258161   4.520   0.843   3.078 -0.4527  1.1445 -0.3059
12224TIP3   OH258162   0.871   2.874   4.396  0.2377 -0.0001 -0.5839
12224TIP3    H158163   0.875   2.872   4.301  0.6048 -0.4227 -0.5623
12224TIP3    H258164   0.962   2.868   4.425  0.0361 -1.6017 -0.1897
12225TIP3   OH258165   5.204   2.560  13.752 -0.0466  0.1689 -0.3217
12225TIP3    H158166   5.128   2.616  13.768  0.6980  1.6922 -1.9062
12225TIP3    H258167   5.182   2.512  13.672  1.2027  1.6497 -1.5802
12226TIP3   OH258168   6.153   2.837  12.680  0.1387 -0.0145  0.1057
12226TIP3    H158169   6.091   2.909  12.693 -1.7822 -1.4608 -0.7065
12226TIP3    H258170   6.142   2.782  12.757  0.0286 -0.5278 -0.2713
12227TIP3   OH258171   0.086   6.803  16.244  0.1888 -0.1131 -0.6740
12227TIP3    H158172   0.003   6.832  16.205 -0.3789  0.6819  1.0771
12227TIP3    H258173   0.093   6.711  16.220 -0.0023  0.4219 -2.8651
12228TIP3   OH258174   2.484   3.539   4.969  0.3688  0.0771  0.2153
12228TIP3    H158175   2.526   3.486   5.037  0.9862  0.5166  0.1808
12228TIP3    H258176   2.409   3.579   5.013  0.3827 -0.1696  0.4642
12229TIP3   OH258177   0.027   5.745   0.062  0.1508  0.3473 -0.3013
12229TIP3    H158178  -0.056   5.754   0.109 -0.2502 -1.5289 -0.6269
12229TIP3    H258179   0.002   5.747  -0.030  0.1967 -2.3531 -0.4041
12230TIP3   OH258180   0.566   4.012  17.048 -0.1365  0.2974 -0.5530
12230TIP3    H158181   0.525   3.931  17.019  0.6959  0.0558 -1.0666
12230TIP3    H258182   0.651   4.013  17.005  0.3841  0.8109  0.4621
12231TIP3   OH258183   4.526   2.337  12.365  0.3498 -0.2784 -0.3156
12231TIP3    H158184   4.575   2.292  12.297 -1.7000  0.7078 -2.5112
12231TIP3    H258185   4.589   2.397  12.405  1.3022 -0.0853 -2.0810
12232TIP3   OH258186   4.490   6.370  16.204  0.0719 -0.6774  0.3120
12232TIP3    H158187   4.444   6.397  16.284  0.9367  1.0832  0.2304
12232TIP3    H258188   4.581   6.362  16.230  0.2913 -0.5280 -0.4097
12233TIP3   OH258189   0.792   0.699  11.812  0.1992  0.4983 -0.1066
12233TIP3    H158190   0.884   0.708  11.836 -0.2039  0.6666  1.4346
12233TIP3    H258191   0.773   0.605  11.824 -0.0954  0.6444  0.6218
12234TIP3   OH258192   1.434   2.659  13.810 -0.5987 -0.2744 -0.8406
12234TIP3    H158193   1.524   2.691  13.807  0.4876 -2.7384  2.8574
12234TIP3    H258194   1.427   2.598  13.737  1.0324 -0.7805 -0.5826
12235TIP3   OH258195   1.123   5.314   1.623 -0.0833 -0.3031  0.2830
12235TIP3    H158196   1.079   5.265   1.692 -1.1817  0.5445  0.2088
12235TIP3    H258197   1.195   5.258   1.595 -1.6970 -2.1471 -0.2488
12236TIP3   OH258198   5.896   6.072  16.875  0.3736 -0.0427 -0.3426
12236TIP3    H158199   5.927   6.066  16.785 -1.2535  0.3374 -0.9421
12236TIP3    H258200   5.970   6.107  16.924  0.5356  1.8952 -1.9277
12237TIP3   OH258201   5.376   0.322   4.718  0.6057 -0.0014  0.2243
12237TIP3    H158202   5.376   0.387   4.648 -0.1707  2.1450  2.1634
12237TIP3    H258203   5.292   0.277   4.709 -0.6220  2.0100  1.3026
12238TIP3   OH258204   6.114   1.393   6.634 -0.3333 -0.1163  0.4986
12238TIP3    H158205   6.173   1.420   6.705 -0.7420  0.1734  0.7312
12238TIP3    H258206   6.039   1.452   6.641  0.7102  1.5633 -1.6969
12239TIP3   OH258207   2.727   1.903  16.937  0.3809  0.2880 -0.2093
12239TIP3    H158208   2.755   1.948  17.017 -3.2140  1.6805  0.3583
12239TIP3    H258209   2.736   1.969  16.868 -0.1052  0.2845 -0.2770
12240TIP3   OH258210   4.033   0.049  13.895 -0.5910 -0.3325  0.2053
12240TIP3    H158211   4.103   0.008  13.845 -0.4652 -0.6186  0.6152
12240TIP3    H258212   4.067   0.055  13.984 -1.4149 -1.2661  0.5878
12241TIP3   OH258213   2.967   3.730   2.618  0.1778 -0.4169  0.5402
12241TIP3    H158214   3.007   3.645   2.597  0.1792 -0.5126  0.9159
12241TIP3    H258215   2.899   3.742   2.552  1.4157  0.1674 -0.6564
12242TIP3   OH258216   6.353   5.911   3.486 -0.3310 -0.5833 -0.6039
12242TIP3    H158217   6.373   6.002   3.508  0.2734 -1.0058  0.6115
12242TIP3    H258218   6.367   5.863   3.567 -2.0212 -1.5574 -0.8657
12243TIP3   OH258219   1.760   4.590   2.597  0.2969  0.3166 -0.0059
12243TIP3    H158220   1.727   4.679   2.603  0.3014  0.4442 -1.6258
12243TIP3    H258221   1.850   4.600   2.567  0.3456 -0.2225 -0.0443
12244TIP3   OH258222   1.274   5.817   4.737 -0.0099 -0.1299  0.1996
12244TIP3    H158223   1.353   5.855   4.776 -0.0255 -0.2569  0.3585
12244TIP3    H258224   1.253   5.875   4.664 -1.9515  2.0509  2.4166
12245TIP3   OH258225   3.968   2.926  13.109 -0.2729 -0.5692  0.0765
12245TIP3    H158226   4.044   2.888  13.066  0.4921 -0.7131  1.5142
12245TIP3    H258227   3.922   2.852  13.147  0.1283 -0.2742  1.1681
12246TIP3   OH258228   6.036   2.985  16.436 -0.2694  0.7810 -0.0749
12246TIP3    H158229   6.041   2.890  16.422  0.3290  0.8537 -0.3774
12246TIP3    H258230   6.063   2.997  16.527  0.9893  0.7812 -0.4408
12247TIP3   OH258231   2.172   0.136  13.498 -0.3653 -0.9420 -0.2518
12247TIP3    H158232   2.233   0.167  13.566 -1.6933  2.6951 -0.6028
12247TIP3    H258233   2.129   0.061  13.538  1.8340 -1.4177  1.3486
12248TIP3   OH258234   3.772   5.033  14.797  0.6162  0.0962 -0.2316
12248TIP3    H158235   3.832   5.015  14.868  0.0695 -0.9667 -0.0282
12248TIP3    H258236   3.828   5.043  14.720  0.9087 -3.9768 -0.6568
12249TIP3   OH258237   3.960   3.435   2.258 -0.0348  0.0558  0.1512
12249TIP3    H158238   3.901   3.417   2.331 -0.8110  0.2263 -0.4292
12249TIP3    H258239   4.038   3.384   2.277 -0.3278 -0.0850  0.9821
12250TIP3   OH258240   2.034   2.182   5.068 -0.0099  0.1687  0.2682
12250TIP3    H158241   2.036   2.119   4.996  1.5829  1.6665 -1.0419
12250TIP3    H258242   2.082   2.140   5.138  0.1880 -0.4771 -0.2505
12251TIP3   OH258243   6.622   6.526  17.164  0.1950  0.1454 -0.1105
12251TIP3    H158244   6.676   6.596  17.200  0.6865  0.0073 -0.5620
12251TIP3    H258245   6.677   6.448  17.170 -0.4671 -0.2630  0.6780
12252TIP3   OH258246   0.483   3.103   3.077  0.2421 -0.7334 -0.1013
12252TIP3    H158247   0.470   3.194   3.104  1.4527 -0.7391  0.5283
12252TIP3    H258248   0.476   3.105   2.982  1.3060  0.2066 -0.1723
12253TIP3   OH258249   2.917   1.915   2.842 -0.6818  0.1083 -0.0836
12253TIP3    H158250   2.837   1.958   2.874 -0.4891  1.0704 -0.8582
12253TIP3    H258251   2.985   1.982   2.850 -0.1679 -0.3667 -0.4253
12254TIP3   OH258252   1.561   5.229  12.135 -0.1089 -0.2197 -0.2105
12254TIP3    H158253   1.648   5.267  12.149 -0.5925  0.4272  1.1646
12254TIP3    H258254   1.542   5.245  12.043  2.4684 -3.0082 -1.3274
12255TIP3   OH258255   0.680   5.742   0.678  0.2814 -0.7449 -0.2663
12255TIP3    H158256   0.610   5.780   0.731  1.9676  2.0744  0.0070
12255TIP3    H258257   0.657   5.766   0.588  0.3305 -0.7574 -0.2822
12256TIP3   OH258258   5.594   2.278   0.146 -0.1892 -0.3708  0.1027
12256TIP3    H158259   5.571   2.259   0.237  2.1249 -0.1644  0.7590
12256TIP3    H258260   5.565   2.367   0.132 -2.0728 -0.9677  0.1080
12257TIP3   OH258261   3.781   0.108   6.518  0.0900 -0.6270 -0.0298
12257TIP3    H158262   3.808   0.024   6.553  0.2124  0.3619  2.3169
12257TIP3    H258263   3.685   0.107   6.526 -0.0661 -1.2874 -1.7769
12258TIP3   OH258264   6.662   5.902   2.957  0.1425 -0.3409  0.1108
12258TIP3    H158265   6.703   5.905   2.871 -0.1060  0.2341  0.0141
12258TIP3    H258266   6.682   5.814   2.990 -0.0713 -0.6879 -0.6782
12259TIP3   OH258267   0.780   4.921  14.629  0.3099  0.0747 -0.2646
12259TIP3    H158268   0.722   4.996  14.618  1.4852  0.9515 -0.6405
12259TIP3    H258269   0.727   4.846  14.605 -0.8195  0.8072 -0.1031
12260TIP3   OH258270   1.424   4.415   4.407 -0.1241  0.1004  0.2816
12260TIP3    H158271   1.408   4.346   4.471  0.6753 -0.7941 -0.4646
12260TIP3    H258272   1.477   4.373   4.339  0.0312  1.3421 -0.3833
12261TIP3   OH258273   2.306   5.372  15.552 -0.0041  0.0525 -0.3749
12261TIP3    H158274   2.269   5.304  15.497  1.7260 -1.0317 -0.2334
12261TIP3    H258275   2.401   5.365  15.539  0.3652  0.5988  1.7802
12262TIP3   OH258276   4.184   0.421  15.947  0.2478 -0.9501  0.3993
12262TIP3    H158277   4.089   0.417  15.934  0.3695  0.0968 -0.9009
12262TIP3    H258278   4.220   0.374  15.871  0.9064  2.9273 -1.7974
12263TIP3   OH258279   5.909   6.526  13.122  0.2925  0.2069  0.3933
12263TIP3    H158280   5.866   6.473  13.056 -1.9332  0.3953  1.6527
12263TIP3    H258281   6.003   6.512  13.107 -0.2133 -1.0443 -1.7052
12264TIP3   OH258282   6.583   3.586  14.944  0.2351 -0.8017  0.0681
12264TIP3    H158283   6.659   3.537  14.912 -0.8656 -2.2501 -0.4021
12264TIP3    H258284   6.514   3.520  14.952 -1.7516  0.9266 -2.0393
12265TIP3   OH258285   4.388   3.143  14.387  0.8135 -0.3562 -0.3916
12265TIP3    H158286   4.327   3.069  14.380 -1.1101  0.9308  2.0582
12265TIP3    H258287   4.398   3.157  14.481  0.0743  3.3107 -0.7970
12266TIP3   OH258288   4.677   1.328  15.776 -0.1645 -0.4364 -0.2196
12266TIP3    H158289   4.634   1.243  15.784 -0.7857 -0.2271 -1.3283
12266TIP3    H258290   4.606   1.391  15.769  0.2798  0.2799  1.4002
12267TIP3   OH258291   6.522   2.121  12.642  0.1348  0.2147 -0.3180
12267TIP3    H158292   6.504   2.205  12.684  0.1503 -0.5538  1.2816
12267TIP3    H258293   6.617   2.110  12.653  0.3165  0.4991 -1.5269
12268TIP3   OH258294   6.672   2.513  16.332 -0.4381 -0.0836  0.0673
12268TIP3    H158295   6.743   2.456  16.304 -0.5055 -0.1319 -0.0059
12268TIP3    H258296   6.640   2.553  16.251  0.0199  0.5376  0.1822
12269TIP3   OH258297   3.728   6.025  13.921 -0.3378  0.3921 -0.5551
12269TIP3    H158298   3.821   6.044  13.927 -0.4151 -0.2255  3.4505
12269TIP3    H258299   3.707   5.977  14.001 -4.2634  1.1384 -1.0269
12270TIP3   OH258300   4.653   0.528  14.712  0.5784  0.3158  0.2124
12270TIP3    H158301   4.734   0.525  14.763  0.1562 -0.2148  0.8599
12270TIP3    H258302   4.590   0.479  14.765  0.1465 -0.2784 -0.8512
12271TIP3   OH258303   5.310   3.319  16.323 -0.1444 -0.2128  0.4618
12271TIP3    H158304   5.328   3.262  16.398  1.9667 -0.4277 -0.1748
12271TIP3    H258305   5.258   3.391  16.359 -1.7437 -1.8655  1.5231
12272TIP3   OH258306   2.205   1.836   4.153 -0.6994  0.3270  0.2252
12272TIP3    H158307   2.249   1.754   4.134  0.7468  0.9062  0.9882
12272TIP3    H258308   2.155   1.856   4.073  0.2366 -0.4641 -0.5683
12273TIP3   OH258309   5.800   0.801  11.260  0.7408  0.2948 -0.6918
12273TIP3    H158310   5.721   0.834  11.217  0.9487 -0.7284 -1.8808
12273TIP3    H258311   5.859   0.779  11.188  2.2420  1.3166  0.1892
12274TIP3   OH258312   1.570   6.164  12.786 -0.1253  0.5505  0.5175
12274TIP3    H158313   1.521   6.116  12.853  1.0515 -1.6447 -0.1264
12274TIP3    H258314   1.505   6.189  12.721 -0.8465  0.2426  1.1189
12275TIP3   OH258315   4.320   6.247  17.284 -1.0227 -0.4397  0.5635
12275TIP3    H158316   4.256   6.318  17.290 -0.1836  0.3225  0.6236
12275TIP3    H258317   4.401   6.284  17.321 -0.5654 -1.4056  0.5481
12276TIP3   OH258318   6.818   6.087  13.110  0.6444 -0.3674  0.2918
12276TIP3    H158319   6.743   6.042  13.149  1.0393 -0.9948  0.3347
12276TIP3    H258320   6.859   6.021  13.054  0.1725  0.4645 -1.0734
12277TIP3   OH258321   1.058   6.305   2.478 -0.0206  0.1569 -0.0520
12277TIP3    H158322   1.147   6.335   2.496 -0.2436  0.1528  1.1071
12277TIP3    H258323   1.003   6.363   2.531 -0.5512 -1.3708  1.0933
12278TIP3   OH258324   0.627   3.604  10.884 -0.3731 -0.0330 -0.0549
12278TIP3    H158325   0.617   3.596  10.789  2.5037 -0.0098 -0.4170
12278TIP3    H258326   0.574   3.680  10.907  0.8419  1.4929 -2.0738
12279TIP3   OH258327   2.273   0.402   5.958 -0.2675 -0.1694  0.0811
12279TIP3    H158328   2.356   0.355   5.952  0.2494  0.5959  1.0874
12279TIP3    H258329   2.294   0.492   5.934 -0.6438  0.1952  1.1023
12280TIP3   OH258330   2.773   0.972   1.423  0.2213 -0.3237 -0.1312
12280TIP3    H158331   2.795   0.883   1.452  2.3518 -0.1816 -1.2374
12280TIP3    H258332   2.858   1.015   1.411 -0.7820  2.1078  1.0688
12281TIP3   OH258333   2.128   4.641  16.772  0.0087  0.4414 -0.6069
12281TIP3    H158334   2.074   4.717  16.751 -0.0578  0.3534 -0.7496
12281TIP3    H258335   2.217   4.669  16.751  0.1401  0.9303  0.5601
12282TIP3   OH258336   2.191   5.625   0.575 -0.2575  0.1239 -0.3814
12282TIP3    H158337   2.116   5.641   0.518  0.3782 -1.8758 -1.8357
12282TIP3    H258338   2.266   5.625   0.516  0.8100  1.1539  0.9260
12283TIP3   OH258339   0.354   0.813   1.557  0.1448  0.2813  0.1270
12283TIP3    H158340   0.267   0.852   1.545  1.0674  1.5696 -2.7404
12283TIP3    H258341   0.399   0.872   1.617 -0.8396 -0.2696  1.4478
12284TIP3   OH258342   2.584   0.495   1.113 -0.6869 -0.7444 -0.6528
12284TIP3    H158343   2.677   0.520   1.107 -0.4507 -1.2795  0.5745
12284TIP3    H258344   2.578   0.445   1.195 -2.5129  1.2370  0.4625
12285TIP3   OH258345   4.783   0.483  10.768 -0.1244 -0.3770 -0.0917
12285TIP3    H158346   4.715   0.503  10.703 -0.2961  1.9497  0.7445
12285TIP3    H258347   4.786   0.388  10.772 -0.4841 -0.5660 -3.1262
12286TIP3   OH258348   2.663   1.291   1.959  0.4182 -0.6201 -0.0128
12286TIP3    H158349   2.589   1.255   2.008  0.9161 -0.5794  0.7659
12286TIP3    H258350   2.695   1.364   2.012  0.9292 -0.5427 -0.4156
12287TIP3   OH258351   3.996   3.399  16.621 -0.6517 -0.1535 -0.4178
12287TIP3    H158352   3.913   3.423  16.664 -0.0780  0.8651  0.1407
12287TIP3    H258353   4.018   3.476  16.568 -0.6103 -0.8478 -1.4250
12288TIP3   OH258354   4.699   5.805   3.670  0.2693 -0.3709  0.0313
12288TIP3    H158355   4.750   5.858   3.608  0.5427  1.0043  1.4144
12288TIP3    H258356   4.613   5.796   3.628  0.8801 -0.6638 -1.1976
12289TIP3   OH258357   4.523   2.503   4.983  0.0011 -0.0147  0.3285
12289TIP3    H158358   4.506   2.526   4.891  2.2876  1.0629  0.1273
12289TIP3    H258359   4.582   2.428   4.978 -1.4290 -1.2118  0.9657
12290TIP3   OH258360   2.030   6.432  17.065  0.8066  0.0324 -0.0564
12290TIP3    H158361   2.115   6.400  17.094  1.3965 -0.0304 -1.7768
12290TIP3    H258362   1.998   6.365  17.004 -0.8798 -0.3671  1.2247
12291TIP3   OH258363   6.383   5.642  15.140 -0.4322 -0.0131  0.4702
12291TIP3    H158364   6.401   5.549  15.151  2.3210  0.3283 -0.8735
12291TIP3    H258365   6.302   5.645  15.089  0.9171 -1.7064 -1.8424
12292TIP3   OH258366   2.410   1.586  16.562  0.0242 -0.5100  0.3701
12292TIP3    H158367   2.501   1.572  16.537 -0.3944 -1.4401 -0.6809
12292TIP3    H258368   2.359   1.551  16.488 -1.2200 -1.7899  1.7872
12293TIP3   OH258369   1.874   2.359   2.237 -0.6316 -0.5201  0.0236
12293TIP3    H158370   1.895   2.449   2.265 -0.5835 -0.3168 -0.6503
12293TIP3    H258371   1.836   2.318   2.314 -0.4408  0.0143  0.4056
12294TIP3   OH258372   1.378   4.496   0.911  0.7258 -0.0584  0.7168
12294TIP3    H158373   1.354   4.438   0.838 -1.8560  0.2557  1.2644
12294TIP3    H258374   1.403   4.578   0.869 -2.9551  0.8949  0.1871
12295TIP3   OH258375   0.012   2.582   4.433 -0.8336 -1.0267 -0.2139
12295TIP3    H158376  -0.010   2.491   4.453 -3.0718 -0.0445  2.1321
12295TIP3    H258377  -0.071   2.622   4.408 -0.7215  1.3094  2.8066
12296TIP3   OH258378   1.774   0.836  16.931  0.0563 -0.2520 -0.4708
12296TIP3    H158379   1.683   0.823  16.902  0.1092 -0.5419 -0.5016
12296TIP3    H258380   1.801   0.917  16.887 -0.2504 -0.0609 -0.3082
12297TIP3   OH258381   2.117   3.019  15.475  0.1051 -0.3292  0.2717
12297TIP3    H158382   2.199   3.046  15.435 -0.9281  1.7204 -0.5145
12297TIP3    H258383   2.106   2.928  15.447  0.8515  0.1618 -1.6952
12298TIP3   OH258384   1.347   2.942  12.582  0.2786  0.6723 -0.0485
12298TIP3    H158385   1.282   2.876  12.605 -0.3368  0.6795 -1.7397
12298TIP3    H258386   1.296   3.023  12.571  0.9771  1.3802  1.6693
12299TIP3   OH258387   4.515   1.876   5.864  0.1803  0.1212 -0.3755
12299TIP3    H158388   4.541   1.873   5.772  1.2890  1.7840 -0.1325
12299TIP3    H258389   4.590   1.913   5.910 -0.5764 -0.1428  1.1223
12300TIP3   OH258390   0.035   2.056  15.816  0.3410  0.2139 -0.4498
12300TIP3    H158391   0.083   2.138  15.804 -0.8353  1.4853  3.0125
12300TIP3    H258392   0.024   2.048  15.910 -0.4366 -3.4782 -0.7735
12301TIP3   OH258393   2.661   0.314  12.207 -0.3672  0.0443  0.1192
12301TIP3    H158394   2.683   0.300  12.298 -0.1487 -1.1742 -0.1112
12301TIP3    H258395   2.573   0.278  12.198 -1.1402  1.8093  0.2520
12302TIP3   OH258396   2.128   6.288   3.837  0.4954 -0.3436  0.0353
12302TIP3    H158397   2.180   6.268   3.758  1.7445  0.7633  0.5735
12302TIP3    H258398   2.106   6.380   3.828  0.6588 -0.2148  1.0103
12303TIP3   OH258399   5.308   3.087   4.791  0.1934  0.0212  0.3677
12303TIP3    H158400   5.231   3.090   4.848  0.2155  0.0837  0.3943
12303TIP3    H258401   5.379   3.056   4.847  1.0727  3.5798  1.3545
12304TIP3   OH258402   2.347   5.691   0.894  0.4007  0.3922  0.2565
12304TIP3    H158403   2.430   5.688   0.942 -0.4860  0.4499  1.8373
12304TIP3    H258404   2.322   5.599   0.884  0.5683  0.3809 -0.0709
12305TIP3   OH258405   2.968   1.310   5.169 -0.4848  0.2788 -0.3991
12305TIP3    H158406   2.968   1.236   5.229  0.2933  0.1665 -0.5307
12305TIP3    H258407   2.982   1.387   5.224  0.3704  0.1628 -0.4377
12306TIP3   OH258408   1.217   1.163  13.066  0.0608 -0.0681  0.6079
12306TIP3    H158409   1.222   1.129  12.976  0.2244  1.3042  0.0878
12306TIP3    H258410   1.305   1.195  13.085  0.0331 -0.3722  1.2758
12307TIP3   OH258411   1.618   2.535  11.258  0.0112 -0.0579  0.4942
12307TIP3    H158412   1.587   2.526  11.348 -0.3040 -0.0058  0.3907
12307TIP3    H258413   1.713   2.542  11.267 -0.0889  0.9075  0.8944
12308TIP3   OH258414   4.440   4.179  12.514 -0.0357 -0.0269  0.5766
12308TIP3    H158415   4.471   4.127  12.589 -1.6658  0.9664  1.9626
12308TIP3    H258416   4.401   4.256  12.553 -1.0622  0.4259 -1.3190
12309TIP3   OH258417   3.621   5.143   2.500 -0.0166 -0.2400  0.1859
12309TIP3    H158418   3.561   5.168   2.429  1.1979 -0.7262 -1.0443
12309TIP3    H258419   3.631   5.222   2.552  0.2731  0.5904 -1.0935
12310TIP3   OH258420   3.066   1.839   2.402 -0.2771 -0.9829 -0.0817
12310TIP3    H158421   2.978   1.819   2.432 -0.4020 -0.1805  0.0958
12310TIP3    H258422   3.054   1.888   2.321 -0.0890  1.5023  1.3385
12311TIP3   OH258423   6.665   4.635   4.751  0.3859  0.0866 -0.0358
12311TIP3    H158424   6.633   4.607   4.837  0.5890 -0.3541 -0.0996
12311TIP3    H258425   6.628   4.571   4.690  0.2820  0.3719 -0.2723
12312TIP3   OH258426   2.472   1.736   0.986  0.7975  0.9278  0.1149
12312TIP3    H158427   2.512   1.680   1.052  2.0733 -1.3025 -2.4955
12312TIP3    H258428   2.398   1.685   0.952  1.3270  1.2204 -1.5308
12313TIP3   OH258429   4.224   1.570  17.187 -0.3103 -0.0871 -0.5629
12313TIP3    H158430   4.306   1.528  17.212 -0.8355 -0.3154  0.7943
12313TIP3    H258431   4.242   1.610  17.102  0.6316 -1.7891 -1.1657
12314TIP3   OH258432   3.431   0.881   0.521 -0.1148 -0.9657  0.0893
12314TIP3    H158433   3.338   0.898   0.511  0.1811 -0.0152 -1.0688
12314TIP3    H258434   3.448   0.807   0.463  0.1486 -0.1464 -0.8926
12315TIP3   OH258435   4.225   4.594  13.356 -0.4448 -0.0872  0.5216
12315TIP3    H158436   4.187   4.550  13.432 -0.6849 -0.6170  0.1005
12315TIP3    H258437   4.312   4.554  13.347 -1.3447 -1.7510 -0.9217
12316TIP3   OH258438   3.633   1.280   1.833  0.0274  0.3735 -0.0058
12316TIP3    H158439   3.645   1.277   1.738 -1.9756 -1.5440 -0.2252
12316TIP3    H258440   3.649   1.190   1.862 -0.0736  0.7928  1.3889
12317TIP3   OH258441   2.725   1.803  13.004  0.2303  0.3212 -0.3620
12317TIP3    H158442   2.746   1.756  13.085 -4.2536 -3.0911 -0.9798
12317TIP3    H258443   2.694   1.888  13.033 -0.6766 -0.6118  1.5107
12318TIP3   OH258444   6.481   2.452  17.190  0.5614  0.1569 -0.9498
12318TIP3    H158445   6.499   2.545  17.180 -0.6796  0.4156 -0.8491
12318TIP3    H258446   6.405   2.435  17.134  0.7738 -0.7896 -0.9642
12319TIP3   OH258447   5.547   5.391   2.212  0.2953 -0.3307  0.1912
12319TIP3    H158448   5.577   5.407   2.302  0.4750 -0.3396  0.1332
12319TIP3    H258449   5.552   5.296   2.201 -1.6268 -0.5422  0.8351
12320TIP3   OH258450   1.693   0.840  14.698 -0.6242  0.1596  0.0915
12320TIP3    H158451   1.672   0.753  14.732  0.5556 -0.1992 -0.0670
12320TIP3    H258452   1.787   0.851  14.715 -0.2588  0.4468 -1.9796
12321TIP3   OH258453   4.379   1.379   4.415 -0.1205  0.3785  0.0552
12321TIP3    H158454   4.425   1.458   4.445 -2.6561  2.2174 -0.7232
12321TIP3    H258455   4.288   1.393   4.442 -0.8167 -1.7567 -1.1265
12322TIP3   OH258456   3.020   2.178   4.968  0.2155 -0.3210  0.4304
12322TIP3    H158457   3.095   2.224   4.931 -1.2453  2.6555  1.0912
12322TIP3    H258458   3.044   2.163   5.060  0.2462  0.0443  0.4805
12323TIP3   OH258459   4.500   5.330  11.312 -0.0130  0.0052 -0.4065
12323TIP3    H158460   4.484   5.341  11.219 -0.1805 -0.8209 -0.4770
12323TIP3    H258461   4.517   5.237  11.323  0.5632  0.1864  0.3016
12324TIP3   OH258462   1.005   1.026  14.794 -0.6420  0.2480 -0.5461
12324TIP3    H158463   0.937   0.990  14.736  0.4141  1.4039 -2.5861
12324TIP3    H258464   1.069   1.063  14.734  2.2060 -1.4998  1.3315
12325TIP3   OH258465   6.364   0.401   4.900 -0.0535 -0.7943  0.0670
12325TIP3    H158466   6.346   0.488   4.935  1.4538 -0.7070  0.6706
12325TIP3    H258467   6.338   0.341   4.970  0.7261 -0.7285  0.4215
12326TIP3   OH258468   5.900   2.154   3.551  0.4911  0.2377  0.0767
12326TIP3    H158469   5.875   2.068   3.585  0.5418  1.0095  2.1356
12326TIP3    H258470   5.971   2.136   3.490 -1.7752 -1.4967 -2.1731
12327TIP3   OH258471   3.981   5.522  15.696 -0.4131 -0.2721 -0.0430
12327TIP3    H158472   3.886   5.535  15.698 -0.7117 -2.2282 -0.3025
12327TIP3    H258473   4.004   5.494  15.784 -0.4235 -1.9192 -0.5454
12328TIP3   OH258474   6.443   4.581   3.295  0.2832  0.7680 -0.2210
12328TIP3    H158475   6.452   4.614   3.384  0.0509  0.5128 -0.1010
12328TIP3    H258476   6.521   4.612   3.249  0.5453  0.6529  0.1491
12329TIP3   OH258477   4.246   5.775  16.503  0.0455 -0.4229 -0.1394
12329TIP3    H158478   4.307   5.848  16.486  0.6644 -0.7241  0.7493
12329TIP3    H258479   4.242   5.728  16.420 -1.2234  1.2619 -1.0524
12330TIP3   OH258480   1.577   0.325  11.837  0.5650 -0.3082 -0.0602
12330TIP3    H158481   1.521   0.351  11.763  1.1045  0.9623 -0.0371
12330TIP3    H258482   1.534   0.364  11.913  0.3461 -1.0954  0.2165
12331TIP3   OH258483   6.589   2.660   4.036 -0.1200 -0.1089 -0.2862
12331TIP3    H158484   6.664   2.667   3.976  0.4870 -0.3221  0.4488
12331TIP3    H258485   6.565   2.751   4.054  0.1287 -0.0379 -0.3102
12332TIP3   OH258486   1.041   4.893  11.532  0.2140  0.4463 -0.4955
12332TIP3    H158487   1.136   4.894  11.521  0.4302 -0.6220  1.0507
12332TIP3    H258488   1.012   4.818  11.480  0.0978  1.3499 -1.7470
12333TIP3   OH258489   5.675   0.577  14.318 -0.1780  0.3034 -0.1649
12333TIP3    H158490   5.758   0.561  14.274 -1.6037 -0.7672 -2.5533
12333TIP3    H258491   5.648   0.664  14.288  0.4129  1.0044  1.2433
12334TIP3   OH258492   2.500   4.329   6.028 -0.3406  0.4817 -0.2664
12334TIP3    H158493   2.528   4.259   6.087  0.1752  0.7556 -0.1763
12334TIP3    H258494   2.433   4.377   6.077 -1.7327 -0.8168 -0.8936
12335TIP3   OH258495   3.522   0.648   4.441  0.2665  0.1016  0.1398
12335TIP3    H158496   3.496   0.619   4.528 -0.5557  0.6090  0.0605
12335TIP3    H258497   3.450   0.703   4.410 -0.1464 -1.2996 -1.4778
12336TIP3   OH258498   2.347   6.626   6.136 -0.4743  0.4089  0.1259
12336TIP3    H158499   2.416   6.665   6.189 -2.3084  1.8217  1.5188
12336TIP3    H258500   2.314   6.553   6.189  0.3599 -0.6871 -0.8242
12337TIP3   OH258501   5.645   3.031  11.781  0.5550 -0.1933  0.0906
12337TIP3    H158502   5.628   3.123  11.762  0.1384  0.1327  2.0151
12337TIP3    H258503   5.732   3.015  11.744  0.0029  0.5437 -1.6018
12338TIP3   OH258504   5.961   6.599  14.890  0.1225  0.1563 -0.3564
12338TIP3    H158505   5.934   6.679  14.935  1.6943  0.8158 -0.5488
12338TIP3    H258506   5.939   6.614  14.799  2.0815  1.1574 -0.7002
12339TIP3   OH258507   4.436   3.023  12.531 -0.3300 -0.9351 -0.4812
12339TIP3    H158508   4.343   3.046  12.529  0.2768  1.7137 -1.3206
12339TIP3    H258509   4.476   3.083  12.468  2.0862 -1.3451  0.6062
12340TIP3   OH258510   6.142   0.671   4.435  0.6308 -0.1753  0.0381
12340TIP3    H158511   6.080   0.735   4.470 -0.3895 -0.8906 -0.4101
12340TIP3    H258512   6.209   0.723   4.390  0.8609  0.6447  1.3243
12341TIP3   OH258513   1.928   0.990   0.202 -0.4770 -0.3716  0.3314
12341TIP3    H158514   1.865   0.951   0.143 -1.3013 -0.0852  1.0137
12341TIP3    H258515   1.894   1.079   0.218 -0.5490 -0.6236  1.6425
12342TIP3   OH258516   2.385   3.534   5.802 -0.5934  0.3799 -0.4016
12342TIP3    H158517   2.377   3.624   5.833 -0.2586  0.5274 -0.7482
12342TIP3    H258518   2.391   3.482   5.882  4.7664  1.1228 -0.1261
12343TIP3   OH258519   5.259   4.840  14.429 -0.2802  0.1832  0.4120
12343TIP3    H158520   5.297   4.777  14.369 -0.4562  0.4750 -0.0102
12343TIP3    H258521   5.301   4.923  14.406  0.1129  0.1778  1.1100
12344TIP3   OH258522   4.229   0.883  13.899 -0.0246 -0.1762 -0.2764
12344TIP3    H158523   4.180   0.802  13.908  3.0966 -2.0107  1.0861
12344TIP3    H258524   4.210   0.933  13.979  0.4336 -0.9273  0.3005
12345TIP3   OH258525   6.491   2.545   0.180  0.6332  0.6691  0.3787
12345TIP3    H158526   6.463   2.516   0.093 -0.5169  0.0109  0.9404
12345TIP3    H258527   6.556   2.613   0.164 -1.1444  2.0949 -1.0056
12346TIP3   OH258528   3.560   1.939   1.109  0.4714  0.8285  0.5733
12346TIP3    H158529   3.651   1.958   1.131  0.7587 -0.5521  0.5689
12346TIP3    H258530   3.532   1.876   1.175 -0.4636  1.1860  0.5265
12347TIP3   OH258531   6.034   6.811   4.481  0.2197 -0.2992  0.3386
12347TIP3    H158532   5.994   6.724   4.474 -0.1248 -0.3263  2.2702
12347TIP3    H258533   6.004   6.857   4.403  0.9404 -2.1149 -1.0490
12348TIP3   OH258534   6.344   4.391  14.419  0.6268  0.2521  0.5297
12348TIP3    H158535   6.260   4.404  14.374  0.9627  0.7665  0.0476
12348TIP3    H258536   6.395   4.338  14.358 -0.0577 -1.8000  1.6793
12349TIP3   OH258537   5.386   2.211   2.882  0.5210  0.7628 -0.2137
12349TIP3    H158538   5.468   2.260   2.873  0.2462  1.2233 -0.2737
12349TIP3    H258539   5.376   2.199   2.977 -0.8095  3.2868  0.0153
12350TIP3   OH258540   0.053   2.082  16.412 -0.0557 -0.4242 -0.0789
12350TIP3    H158541   0.027   1.995  16.442  0.9158 -1.1455 -1.2872
12350TIP3    H258542   0.117   2.065  16.343  1.1360  1.2781  0.5949
12351TIP3   OH258543   0.068   2.686   1.399  0.1068 -0.4156 -0.4211
12351TIP3    H158544   0.059   2.733   1.316 -0.9030 -0.4840 -0.3558
12351TIP3    H258545   0.121   2.744   1.453  1.4816 -0.7398 -1.3867
12352TIP3   OH258546   0.032   6.513  16.141  0.0240  0.2463 -0.0218
12352TIP3    H158547  -0.008   6.551  16.062 -0.5451 -0.5385 -0.1278
12352TIP3    H258548   0.125   6.530  16.132 -0.0702  0.4051 -0.7426
12353TIP3   OH258549   5.247   1.639  14.453  0.4619  0.5658 -0.2750
12353TIP3    H158550   5.327   1.587  14.457 -0.3227 -0.5689  1.1559
12353TIP3    H258551   5.277   1.730  14.462  1.6403  0.1888 -0.3319
12354TIP3   OH258552   6.114   3.131  16.927  0.8353  0.1740  0.3267
12354TIP3    H158553   6.074   3.134  17.014  0.9041 -0.6210  0.3842
12354TIP3    H258554   6.181   3.063  16.933 -1.0416 -1.8876 -1.1476
12355TIP3   OH258555   2.051   1.528   3.083  0.2853 -0.0452  0.4759
12355TIP3    H158556   2.078   1.511   3.173  0.4593 -0.5417  0.3329
12355TIP3    H258557   2.081   1.452   3.034 -1.8993 -0.9091  0.4175
12356TIP3   OH258558   2.188   4.903   2.466  0.1844  0.2114 -0.0814
12356TIP3    H158559   2.127   4.840   2.506  0.2768  0.9881  1.3147
12356TIP3    H258560   2.148   4.988   2.479  1.1919  0.6642  0.1505
12357TIP3   OH258561   1.320   6.270  13.544 -0.2032  0.3526 -0.1753
12357TIP3    H158562   1.292   6.361  13.553 -1.1925 -0.0508  0.9905
12357TIP3    H258563   1.414   6.272  13.565 -0.1102  1.1670 -0.6420
12358TIP3   OH258564   1.110   5.847   5.009 -0.0580 -0.2985 -0.4028
12358TIP3    H158565   1.100   5.752   5.007 -0.4078 -0.2891  0.6081
12358TIP3    H258566   1.151   5.869   4.925  2.0263 -1.5790  0.2474
12359TIP3   OH258567   2.363   6.453   4.278 -0.1509  0.3835 -0.1153
12359TIP3    H158568   2.307   6.462   4.201 -0.6349  1.7986  0.4026
12359TIP3    H258569   2.350   6.533   4.328 -0.5005 -0.8788  1.8960
12360TIP3   OH258570   3.070   1.760  13.110 -0.3828 -0.2069  0.1047
12360TIP3    H158571   3.039   1.818  13.041  2.4180  0.8897 -0.2787
12360TIP3    H258572   3.073   1.674  13.069 -0.2187  0.1680 -0.6769
12361TIP3   OH258573   0.938   2.223   4.710  0.4201 -0.1100  0.3281
12361TIP3    H158574   0.844   2.205   4.703  0.2154  1.4197 -1.0829
12361TIP3    H258575   0.962   2.257   4.624  2.2708 -0.4748  0.6897
12362TIP3   OH258576   4.494   4.751  12.682  0.8398  0.0702 -0.2906
12362TIP3    H158577   4.498   4.818  12.614  1.1966  1.6819  1.2684
12362TIP3    H258578   4.411   4.766  12.726  0.8961 -0.5624  0.0390
12363TIP3   OH258579   6.695   5.195  15.163  0.1069  0.0309  0.2479
12363TIP3    H158580   6.736   5.196  15.076  0.5984 -0.4575  0.4684
12363TIP3    H258581   6.752   5.139  15.215 -1.1630 -1.1410  0.4066
12364TIP3   OH258582   6.468   4.172   3.743  0.3284 -0.1357  0.0572
12364TIP3    H158583   6.524   4.185   3.666  1.4688 -0.1114  0.8871
12364TIP3    H258584   6.379   4.167   3.707  0.6255  2.0739 -1.0566
12365TIP3   OH258585   4.245   5.872   0.424 -0.0588 -0.6001 -0.0095
12365TIP3    H158586   4.217   5.944   0.369 -2.4482  0.3112  2.2913
12365TIP3    H258587   4.194   5.797   0.393 -0.2736 -0.4493 -0.0233
12366TIP3   OH258588   5.654   1.932   0.987  0.0082  0.2597 -0.7173
12366TIP3    H158589   5.675   1.866   1.053 -0.3126  0.6278 -0.2348
12366TIP3    H258590   5.588   1.892   0.932  0.1110  0.0302 -0.6734
12367TIP3   OH258591   5.580   1.464  16.013  0.7571  0.3011  0.3651
12367TIP3    H158592   5.616   1.390  15.964 -1.1012 -1.2846  1.3325
12367TIP3    H258593   5.494   1.435  16.042  0.0224  2.8166  0.8755
12368TIP3   OH258594   4.148   0.758  16.823  0.0401  0.3776 -0.0112
12368TIP3    H158595   4.243   0.740  16.825 -0.0443 -0.1655 -0.6169
12368TIP3    H258596   4.130   0.800  16.907  0.9121  0.9568 -0.1069
12369TIP3   OH258597   2.280   5.185  14.264 -0.1528  0.2045  0.1201
12369TIP3    H158598   2.352   5.122  14.275 -0.3233 -0.2918 -1.4835
12369TIP3    H258599   2.304   5.259  14.321  0.5719 -0.8512  1.2071
12370TIP3   OH258600   4.834   3.862   0.534 -0.3956 -0.1523  0.2677
12370TIP3    H158601   4.839   3.806   0.612  2.2135 -0.9809 -0.4806
12370TIP3    H258602   4.775   3.815   0.475 -0.4617 -0.6914  0.7566
12371TIP3   OH258603   1.517   1.543   2.010  0.1608  0.7815  0.0252
12371TIP3    H158604   1.555   1.497   2.085  0.1164  0.0029 -0.4220
12371TIP3    H258605   1.586   1.540   1.943  0.6620  2.5331  0.4277
12372TIP3   OH258606   5.187   4.920  10.717  0.2038  0.5427 -0.0511
12372TIP3    H158607   5.230   4.866  10.651  1.1705  0.4330  0.6564
12372TIP3    H258608   5.114   4.866  10.747  0.2536  0.2554 -0.4355
12373TIP3   OH258609   0.229   5.196   2.018 -0.0835  0.7834 -0.4527
12373TIP3    H158610   0.219   5.106   2.049  1.3457  0.9304  0.4615
12373TIP3    H258611   0.153   5.210   1.961 -1.0263 -0.5569  0.4361
12374TIP3   OH258612   0.599   5.300   5.416 -0.0108  0.8908 -0.0605
12374TIP3    H158613   0.548   5.219   5.424  0.5491  0.5775  0.3786
12374TIP3    H258614   0.690   5.272   5.421  0.2251  1.3814 -1.4907
12375TIP3   OH258615   5.128   0.045  16.288 -0.3590  0.2691 -0.2497
12375TIP3    H158616   5.086   0.131  16.290  0.1699  0.5787 -1.9110
12375TIP3    H258617   5.197   0.051  16.353 -2.1605  0.1207  1.7235
12376TIP3   OH258618   5.182   5.079  15.995  0.0734 -0.2910  0.3940
12376TIP3    H158619   5.224   5.009  16.045  0.9507 -1.3771 -1.7622
12376TIP3    H258620   5.126   5.033  15.932  2.3281  0.7650 -2.5335
12377TIP3   OH258621   1.704   2.043  12.345 -0.3252 -0.2683  0.4339
12377TIP3    H158622   1.630   1.983  12.334  0.1363 -0.6989 -0.4061
12377TIP3    H258623   1.674   2.125  12.307 -0.4767 -0.3634  0.3450
12378TIP3   OH258624   5.458   1.383   5.210  0.4860 -0.6736  0.6801
12378TIP3    H158625   5.492   1.298   5.180 -0.8562 -1.2249  0.6975
12378TIP3    H258626   5.417   1.364   5.294  1.8290  0.3621  1.5967
12379TIP3   OH258627   3.925   2.969   0.140 -0.2764  0.8106  0.5320
12379TIP3    H158628   3.876   2.962   0.058 -0.5660  0.9842  0.6885
12379TIP3    H258629   3.982   3.045   0.128 -0.8091  1.2466  0.7458
12380TIP3   OH258630   6.743   1.337  14.488  0.0656 -0.1541  0.7643
12380TIP3    H158631   6.674   1.403  14.480  0.6048  0.3816  0.4923
12380TIP3    H258632   6.824   1.388  14.491  0.6588 -0.8893 -1.7575
12381TIP3   OH258633   0.167   3.339  11.322  0.3812 -0.1076  0.0267
12381TIP3    H158634   0.254   3.302  11.308 -0.2339 -1.1531 -1.0521
12381TIP3    H258635   0.114   3.304  11.251 -1.0238  0.2266  0.8913
12382TIP3   OH258636   1.049   5.968   0.161 -0.1882 -0.4761  0.0068
12382TIP3    H158637   1.003   5.996   0.240  0.5091 -1.4076  0.7539
12382TIP3    H258638   1.099   5.891   0.188  1.5586  0.3071 -0.8562
12383TIP3   OH258639   0.357   2.174  10.645  0.3308 -0.5050 -0.6959
12383TIP3    H158640   0.411   2.096  10.636  0.5132 -0.7156  1.8014
12383TIP3    H258641   0.373   2.204  10.735 -0.9238  1.5114 -1.1043
12384TIP3   OH258642   4.808   2.759   1.227 -0.0293  0.2607  0.4003
12384TIP3    H158643   4.736   2.703   1.197  1.1602 -0.3409 -1.3737
12384TIP3    H258644   4.788   2.775   1.319 -2.7988  0.6332 -0.2018
12385TIP3   OH258645   6.237   6.641   1.567 -0.0598 -0.4941 -0.7392
12385TIP3    H158646   6.297   6.596   1.508 -0.6396 -0.8693 -1.0480
12385TIP3    H258647   6.165   6.671   1.511  0.2878  0.7694 -0.5231
12386TIP3   OH258648   0.048   0.871   2.028 -0.6232  0.1929  0.2370
12386TIP3    H158649   0.005   0.910   1.952  0.4748 -1.2914 -1.1972
12386TIP3    H258650   0.141   0.884   2.012 -0.2546 -2.3497  0.0262
12387TIP3   OH258651   3.214   4.517   2.752 -0.3797 -0.1330  0.4981
12387TIP3    H158652   3.205   4.569   2.673  1.4529 -0.6046 -0.0472
12387TIP3    H258653   3.301   4.538   2.785 -0.6109 -0.9388  1.6648
12388TIP3   OH258654   0.092   6.000   3.096  0.0468 -0.1202  0.3160
12388TIP3    H158655   0.005   6.008   3.057  0.7705  3.4286 -0.7232
12388TIP3    H258656   0.144   5.953   3.030 -0.0226  1.4725 -0.8917
12389TIP3   OH258657   1.305   0.332   2.532  0.1451 -0.5261 -0.0653
12389TIP3    H158658   1.382   0.309   2.584  0.9683  0.3063 -0.9235
12389TIP3    H258659   1.319   0.292   2.447 -0.0990  0.1252 -0.4160
12390TIP3   OH258660   6.604   0.023  11.661  0.3033 -0.3954  0.0693
12390TIP3    H158661   6.551   0.014  11.582 -1.0310  3.4251  0.4144
12390TIP3    H258662   6.679  -0.034  11.647  0.0473  0.1456 -3.9364
12391TIP3   OH258663   1.287   0.047  16.177  0.0758  0.2852 -0.8197
12391TIP3    H158664   1.335   0.126  16.201  0.2342 -0.1723  0.4306
12391TIP3    H258665   1.239   0.071  16.098  0.9160  1.3156 -1.0247
12392TIP3   OH258666   4.204   1.075   1.848  0.3572  0.2055  0.1287
12392TIP3    H158667   4.176   0.983   1.858  1.5006 -0.2212 -0.5193
12392TIP3    H258668   4.156   1.122   1.916  0.9565 -1.1362  1.5080
12393TIP3   OH258669   3.521   2.735  16.973 -0.6263  0.4370 -0.3620
12393TIP3    H158670   3.572   2.811  16.944  2.3143 -0.9115  0.9949
12393TIP3    H258671   3.435   2.770  16.993 -0.1174  2.9315 -2.2997
12394TIP3   OH258672   5.300   5.916  14.184  0.2682  0.2141 -0.2417
12394TIP3    H158673   5.366   5.850  14.166  0.8956  0.4003  1.3209
12394TIP3    H258674   5.266   5.940  14.097  1.2606 -0.8734 -0.9473
12395TIP3   OH258675   3.854   3.940  14.748 -0.6293 -0.5078  0.7476
12395TIP3    H158676   3.881   3.896  14.667  0.3622 -1.3611  1.5222
12395TIP3    H258677   3.919   4.009  14.761 -0.7075 -0.4579  0.8731
12396TIP3   OH258678   0.970   1.460   0.540 -0.2297  0.2489 -0.1166
12396TIP3    H158679   1.024   1.390   0.505  0.9153  0.6078  0.8962
12396TIP3    H258680   0.954   1.436   0.631  1.2526  1.9017  0.6144
12397TIP3   OH258681   3.719   4.753  16.001 -0.0732 -0.1680 -0.3195
12397TIP3    H158682   3.759   4.744  16.087 -0.1199 -1.4041 -0.4181
12397TIP3    H258683   3.731   4.668  15.959 -1.1467  0.0194 -1.0594
12398TIP3   OH258684   1.648   3.430  12.585 -0.4181 -0.2796 -0.2229
12398TIP3    H158685   1.603   3.346  12.582 -1.7286  0.3579  0.5227
12398TIP3    H258686   1.740   3.408  12.596 -0.9072 -1.6242  1.5583
12399TIP3   OH258687   2.096   6.698  14.837  0.3308 -0.3249  0.1530
12399TIP3    H158688   2.096   6.670  14.929  0.6210 -1.7889 -0.2799
12399TIP3    H258689   2.186   6.685  14.808  0.0691 -0.5769 -0.5533
12400TIP3   OH258690   3.434   4.001  14.993 -0.1232  0.6753 -0.3442
12400TIP3    H158691   3.355   3.984  14.942 -0.6788  1.0145  0.3997
12400TIP3    H258692   3.473   3.914  15.005  0.2173  0.6381 -1.6671
12401TIP3   OH258693   4.164   3.599  13.684  0.5924  0.2487  0.0338
12401TIP3    H158694   4.167   3.685  13.725 -1.3845  0.4846 -0.2768
12401TIP3    H258695   4.141   3.617  13.593 -1.7416 -0.7262  0.4119
12402TIP3   OH258696   0.047   1.814   0.722  0.1206  0.1528  0.4736
12402TIP3    H158697   0.086   1.808   0.809  1.5111  0.7486 -0.0955
12402TIP3    H258698   0.099   1.881   0.677  0.8479 -1.7016 -1.5451
12403TIP3   OH258699   5.541   0.914   1.813  0.8264 -0.3494  0.0739
12403TIP3    H158700   5.590   0.945   1.889 -0.7431  1.0937  0.5140
12403TIP3    H258701   5.449   0.928   1.835  0.1269 -3.3483 -0.5875
12404TIP3   OH258702   0.886   4.823   5.149 -0.8119 -0.7236  0.6945
12404TIP3    H158703   0.894   4.796   5.058 -0.5169  0.2564  0.4243
12404TIP3    H258704   0.792   4.822   5.166 -1.1865  2.9143 -0.8246
12405TIP3   OH258705   5.320   1.160   1.385  0.6187 -0.3089  0.2215
12405TIP3    H158706   5.234   1.188   1.417 -0.0900 -1.0648 -0.9849
12405TIP3    H258707   5.307   1.069   1.358  1.4415  0.0007 -1.2685
12406TIP3   OH258708   0.274   5.468  14.635 -0.9312 -0.0595 -0.1131
12406TIP3    H158709   0.200   5.512  14.679  1.3138  2.1361  1.6146
12406TIP3    H258710   0.300   5.529  14.567 -0.1931 -0.4539 -0.1819
12407TIP3   OH258711   6.484   6.450   2.674  0.3284  0.6307 -0.2719
12407TIP3    H158712   6.525   6.481   2.594  1.2369  0.1579 -0.0002
12407TIP3    H258713   6.558   6.429   2.732 -0.3074  0.3966  0.4590
12408TIP3   OH258714   5.033   5.608   2.163  0.2565 -0.1711  0.0840
12408TIP3    H158715   5.086   5.584   2.239  1.2101 -0.9379 -0.8087
12408TIP3    H258716   5.020   5.526   2.116 -1.1769  0.1217 -0.0671
12409TIP3   OH258717   5.615   3.588  13.082 -0.2553  0.3528 -0.3034
12409TIP3    H158718   5.538   3.534  13.095 -0.9750  0.7532 -2.6394
12409TIP3    H258719   5.687   3.536  13.117 -1.4020 -0.6102  0.6487
12410TIP3   OH258720   0.008   6.492   5.141  0.0775 -0.0057 -0.2275
12410TIP3    H158721  -0.067   6.545   5.169  0.2717 -0.7582  1.8576
12410TIP3    H258722  -0.026   6.402   5.143  2.1967 -0.8954  5.3444
12411TIP3   OH258723   4.274   3.920  16.603  0.0724  0.1897 -0.3060
12411TIP3    H158724   4.313   4.004  16.579  0.2896 -0.1677 -1.2055
12411TIP3    H258725   4.205   3.943  16.665  0.8817  0.9344  0.3334
12412TIP3   OH258726   5.501   0.803  12.144  0.3207 -0.1295 -0.3101
12412TIP3    H158727   5.492   0.897  12.156  0.9696 -0.3791  2.4821
12412TIP3    H258728   5.585   0.781  12.185  0.8762 -1.7312 -2.2051
12413TIP3   OH258729   2.273   5.740   2.678  0.4292  0.0701  0.1279
12413TIP3    H158730   2.249   5.766   2.768 -0.5217 -0.1884 -0.0398
12413TIP3    H258731   2.368   5.732   2.680  0.3582 -0.6215  1.3064
12414TIP3   OH258732   4.126   0.187   1.136 -0.0467  0.0995  0.6637
12414TIP3    H158733   4.090   0.232   1.212 -1.2652 -1.4830  1.0571
12414TIP3    H258734   4.117   0.249   1.064 -1.3487  0.6432  1.2770
12415TIP3   OH258735   6.212   1.979   1.555 -0.3900 -0.0319  0.1585
12415TIP3    H158736   6.132   1.926   1.546 -0.1608 -0.3325 -0.1322
12415TIP3    H258737   6.181   2.069   1.555 -0.6352 -0.1077 -1.1380
12416TIP3   OH258738   0.038   0.713  16.727 -0.3542 -0.0950 -0.2908
12416TIP3    H158739   0.081   0.654  16.665 -1.8202 -2.0325  0.4943
12416TIP3    H258740  -0.014   0.772  16.672  1.1535  0.5449 -1.0775
12417TIP3   OH258741   1.131   5.173  11.228  0.0351 -0.4407 -0.0442
12417TIP3    H158742   1.118   5.232  11.154 -1.9269  1.4401  1.7582
12417TIP3    H258743   1.124   5.086  11.190 -0.1741  0.4781 -2.2025
12418TIP3   OH258744   0.721   1.334   4.771  0.1205  0.7804 -0.1291
12418TIP3    H158745   0.739   1.337   4.677 -0.6674 -1.0558 -0.3625
12418TIP3    H258746   0.637   1.289   4.777 -0.2905  1.7383  1.4148
12419TIP3   OH258747   1.694   4.942   0.854 -0.2858 -0.3200 -0.0512
12419TIP3    H158748   1.608   4.933   0.812  0.6933  2.3040 -2.8612
12419TIP3    H258749   1.755   4.905   0.791  0.7736 -0.8526  1.2870
12420TIP3   OH258750   3.820   0.727   2.416  0.6425  0.3282  0.2208
12420TIP3    H158751   3.740   0.768   2.384  0.2418  1.1154  2.1932
12420TIP3    H258752   3.795   0.686   2.499  2.3084  0.7361  0.9508
12421TIP3   OH258753   3.943   1.177   6.685 -0.7196 -0.6412  0.5002
12421TIP3    H158754   3.995   1.251   6.717 -2.0980  0.0328  1.1948
12421TIP3    H258755   3.901   1.210   6.606  0.1172 -1.2840 -0.2281
12422TIP3   OH258756   3.709   6.455   4.813  0.2976  0.5172 -0.4784
12422TIP3    H158757   3.634   6.417   4.860 -0.0358 -1.1276 -2.2627
12422TIP3    H258758   3.760   6.379   4.784  0.6970  1.5063 -2.4311
12423TIP3   OH258759   4.807   2.298  17.122 -0.2632  0.2758 -0.5715
12423TIP3    H158760   4.812   2.278  17.215 -1.0920  1.7600 -0.2020
12423TIP3    H258761   4.834   2.216  17.079 -0.7973 -0.7150  0.9353
12424TIP3   OH258762   4.040   3.132  16.654  0.4150  0.5273  0.1659
12424TIP3    H158763   4.059   3.225  16.642  0.3534  0.5781  0.4640
12424TIP3    H258764   3.977   3.112  16.584  0.5216  0.6775  0.0257
12425TIP3   OH258765   3.380   2.854   0.566  0.1993 -0.5360 -0.0155
12425TIP3    H158766   3.356   2.862   0.474 -2.8720 -0.4963  0.7633
12425TIP3    H258767   3.344   2.769   0.593 -0.1182  0.0613  1.4998
12426TIP3   OH258768   3.932   0.732  15.888 -0.2556 -0.2919 -0.1193
12426TIP3    H158769   3.939   0.683  15.970  2.1292 -0.3645 -0.3322
12426TIP3    H258770   4.023   0.744  15.859 -0.7833  3.2963 -0.6111
12427TIP3   OH258771   6.434   0.099  14.205  0.1843  0.6149  0.5475
12427TIP3    H158772   6.389   0.182  14.218  0.3665  0.4169  2.5993
12427TIP3    H258773   6.488   0.088  14.283  3.3360  0.5594 -1.5427
12428TIP3   OH258774   6.636   3.919   6.370 -0.3915 -0.0848  0.0449
12428TIP3    H158775   6.569   3.986   6.356  0.1631  1.4999  4.2154
12428TIP3    H258776   6.593   3.854   6.425  0.2224 -1.2728 -0.8542
12429TIP3   OH258777   4.862   2.450  13.690  0.0590  0.1530 -0.1145
12429TIP3    H158778   4.862   2.354  13.684  0.3890  0.1754 -0.5377
12429TIP3    H258779   4.879   2.479  13.600 -1.4530  0.6276 -0.2594
12430TIP3   OH258780   3.465   4.107   4.714  0.1118 -0.1072  0.7025
12430TIP3    H158781   3.379   4.098   4.755 -0.4057  0.0859 -0.3362
12430TIP3    H258782   3.527   4.095   4.787 -0.7964  0.6895  1.6212
12431TIP3   OH258783   5.422   0.209   0.095  0.6943 -0.4028 -0.1589
12431TIP3    H158784   5.491   0.232   0.033  0.0474 -2.2310 -1.5842
12431TIP3    H258785   5.439   0.118   0.118 -0.2192 -0.3328  0.8525
12432TIP3   OH258786   4.854   6.730   4.937  0.1394  0.1390  0.7999
12432TIP3    H158787   4.825   6.673   4.867 -0.7024 -0.1257  1.3637
12432TIP3    H258788   4.931   6.775   4.901 -0.7883  0.6387 -0.5806
12433TIP3   OH258789   2.933   2.597   5.861 -0.5336  0.0283 -0.0817
12433TIP3    H158790   2.915   2.691   5.863 -1.0470 -0.0636 -0.5212
12433TIP3    H258791   2.853   2.557   5.826  0.5452 -0.3715 -2.1254
12434TIP3   OH258792   2.382   0.514   3.202  0.3744  0.8332 -0.3694
12434TIP3    H158793   2.393   0.559   3.118 -1.8808 -1.7834 -2.1685
12434TIP3    H258794   2.296   0.541   3.233 -0.1895 -0.6871 -0.5429
12435TIP3   OH258795   6.708   6.463   5.801 -0.5652  0.2567 -0.4432
12435TIP3    H158796   6.739   6.506   5.721 -2.5592 -0.6688 -1.7607
12435TIP3    H258797   6.724   6.370   5.786  0.9216  0.2511  1.1171
12436TIP3   OH258798   0.171   2.373   1.279  0.5686 -0.1685 -0.5612
12436TIP3    H158799   0.194   2.429   1.205  1.3543  0.4843  0.1690
12436TIP3    H258800   0.137   2.293   1.239  1.3238  0.0331 -1.6336
12437TIP3   OH258801   1.808   6.285  10.990 -0.3854  0.1832 -0.6399
12437TIP3    H158802   1.716   6.262  10.997 -0.5354  0.5489 -1.4114
12437TIP3    H258803   1.850   6.206  10.953 -0.3413 -0.0780 -0.0417
12438TIP3   OH258804   1.067   1.961  17.208  0.1549 -0.0138 -0.0264
12438TIP3    H158805   1.009   1.917  17.145  0.5257 -1.2843  0.4953
12438TIP3    H258806   1.122   2.017  17.154  1.0915 -1.7870 -0.9812
12439TIP3   OH258807   0.218   2.085  10.926 -0.4280  0.5338 -0.2077
12439TIP3    H158808   0.201   2.088  11.020 -2.9173  1.8775 -0.6561
12439TIP3    H258809   0.265   2.166  10.907 -0.0259  0.3158 -0.1568
12440TIP3   OH258810   2.599   6.609   1.713  0.4060 -0.3639  0.5739
12440TIP3    H158811   2.523   6.552   1.698  0.4123 -0.7737  2.0534
12440TIP3    H258812   2.660   6.586   1.644 -0.2323 -1.0531  0.2305
12441TIP3   OH258813   5.681   1.236  11.369  0.2437 -0.1097 -0.2725
12441TIP3    H158814   5.642   1.160  11.326 -3.0599  1.1006  0.4266
12441TIP3    H258815   5.628   1.249  11.448 -0.2000  3.7162 -1.0919
12442TIP3   OH258816   2.650   1.936  15.197  0.5140 -0.1438  0.6692
12442TIP3    H158817   2.657   2.015  15.143  1.6180  0.2102  1.3195
12442TIP3    H258818   2.643   1.968  15.287 -2.0720 -0.7100  0.7062
12443TIP3   OH258819   4.783   5.137  12.326 -0.5237 -0.4615  0.2230
12443TIP3    H158820   4.768   5.124  12.419  0.2578 -0.6024  0.3300
12443TIP3    H258821   4.804   5.230  12.317 -0.3414 -0.5025  0.2224
12444TIP3   OH258822   2.915   0.254   2.343 -0.1677  0.1590  0.8707
12444TIP3    H158823   2.936   0.164   2.370 -1.8620 -0.2410  0.9481
12444TIP3    H258824   2.961   0.266   2.260  1.2809 -0.2571  1.6102
12445TIP3   OH258825   3.039   6.152  13.180 -0.2898 -0.3309  0.1384
12445TIP3    H158826   3.025   6.237  13.221 -1.2338 -1.4825  2.2428
12445TIP3    H258827   2.951   6.117  13.165  0.0742 -0.7266 -1.2208
12446TIP3   OH258828   0.354   6.480   2.049  0.3044 -0.7035 -0.0661
12446TIP3    H158829   0.375   6.521   1.965  0.3392 -2.4078 -0.9088
12446TIP3    H258830   0.352   6.386   2.030 -0.1145 -1.0786  1.7496
12447TIP3   OH258831   5.162   0.608   1.307  0.1250 -0.3869  0.1982
12447TIP3    H158832   5.130   0.537   1.252 -0.4909  1.0527 -1.3305
12447TIP3    H258833   5.115   0.596   1.390 -3.2693  0.6824 -1.4381
12448TIP3   OH258834   3.341   4.539   1.684 -0.0191 -0.3215 -0.5593
12448TIP3    H158835   3.353   4.471   1.618  1.4564  0.2771 -0.9244
12448TIP3    H258836   3.301   4.612   1.636 -1.1613 -0.7348 -0.2667
12449TIP3   OH258837   5.973   3.634  13.371  0.3979  0.4485  0.2279
12449TIP3    H158838   5.952   3.632  13.464  1.1523 -1.6787  0.3853
12449TIP3    H258839   6.059   3.593  13.365 -0.4310 -1.1359 -1.5616
12450TIP3   OH258840   2.386   2.093   5.516  0.0329 -0.0388 -0.0084
12450TIP3    H158841   2.305   2.102   5.467  1.1524 -0.0614 -1.8955
12450TIP3    H258842   2.396   1.999   5.530 -1.4022  0.0880  2.2497
12451TIP3   OH258843   0.525   5.938  15.282 -0.4004 -0.7215  0.0022
12451TIP3    H158844   0.591   5.998  15.319 -0.7693 -1.4368  1.8455
12451TIP3    H258845   0.510   5.874  15.351 -2.3227 -1.1373 -0.7848
12452TIP3   OH258846   0.810   5.726   2.011 -0.1532 -0.2527 -0.8157
12452TIP3    H158847   0.757   5.647   1.997 -1.7192  0.7780 -0.8353
12452TIP3    H258848   0.900   5.697   1.997 -0.5735 -2.3746  0.6261
12453TIP3   OH258849   0.375   2.744  17.280 -0.1381  0.7109 -0.3250
12453TIP3    H158850   0.295   2.697  17.259 -0.5512  2.0651 -1.7903
12453TIP3    H258851   0.434   2.726  17.207  0.9851 -0.4327  0.8279
12454TIP3   OH258852   3.639   0.013   3.605  0.1618  0.0205  0.0239
12454TIP3    H158853   3.718  -0.039   3.589  0.6050  1.3398 -2.4159
12454TIP3    H258854   3.600   0.024   3.518 -1.1395  1.8155  0.7938
12455TIP3   OH258855   1.392   4.739   4.759  0.5188  0.2443  0.5016
12455TIP3    H158856   1.466   4.787   4.794  0.4370  0.4048  0.4532
12455TIP3    H258857   1.319   4.801   4.760  0.7694  0.5671 -0.9300
12456TIP3   OH258858   4.135   3.569   2.868 -0.2585 -0.2145  0.0888
12456TIP3    H158859   4.114   3.646   2.921 -1.2145 -0.8269  0.5982
12456TIP3    H258860   4.211   3.530   2.912 -0.8364 -0.5264  0.8099
12457TIP3   OH258861   5.828   5.576  15.369  0.4416 -0.0418  0.2768
12457TIP3    H158862   5.813   5.510  15.437  0.9611 -0.2553  0.1878
12457TIP3    H258863   5.922   5.595  15.375 -0.1034  2.4010  1.8690
12458TIP3   OH258864   2.756   3.425   0.948  0.4689  0.3361 -0.4138
12458TIP3    H158865   2.746   3.340   0.905 -0.5242  1.0194 -1.5670
12458TIP3    H258866   2.690   3.424   1.018 -0.3569  0.6083 -1.1787
12459TIP3   OH258867   2.807   3.103  10.694 -0.4163  0.3630 -0.1749
12459TIP3    H158868   2.787   3.116  10.602 -0.0743 -1.3507 -0.5118
12459TIP3    H258869   2.893   3.145  10.706 -1.1738  1.9570 -0.2496
12460TIP3   OH258870   1.770   4.045   4.191  0.0158  0.1404 -0.1474
12460TIP3    H158871   1.845   4.085   4.147 -0.0011 -0.6297 -0.8838
12460TIP3    H258872   1.773   4.081   4.280  3.0742 -2.2211  0.7702
12461TIP3   OH258873   1.035   5.116   3.793  0.5015  0.2218  0.2547
12461TIP3    H158874   1.110   5.159   3.834 -0.7580  0.1679  2.7426
12461TIP3    H258875   1.053   5.022   3.804  0.3918  0.2039  0.2827
12462TIP3   OH258876   6.511   4.885  14.937 -0.1872  0.2791 -0.4473
12462TIP3    H158877   6.483   4.864  15.026  0.1796  1.7423  0.0355
12462TIP3    H258878   6.512   4.802  14.891 -0.0708 -0.5372  1.0145
12463TIP3   OH258879   1.921   5.754  14.410  0.3531  0.1898 -0.5172
12463TIP3    H158880   1.900   5.809  14.485  1.9497  1.3882 -0.9065
12463TIP3    H258881   1.855   5.776  14.344  0.3273  0.8389 -0.2752
12464TIP3   OH258882   6.518   6.133  15.863  0.2259 -0.3458 -0.4587
12464TIP3    H158883   6.607   6.164  15.875 -0.0573  0.5639 -0.6616
12464TIP3    H258884   6.526   6.059  15.804  0.7279  0.4842 -1.4434
12465TIP3   OH258885   3.519   3.148   2.766 -0.1571 -0.6228  0.0578
12465TIP3    H158886   3.602   3.179   2.802 -0.6531 -1.2223  1.7860
12465TIP3    H258887   3.464   3.132   2.843 -2.6878  1.9270 -1.1113
12466TIP3   OH258888   1.060   4.474  14.431  1.0436 -0.0264 -0.5271
12466TIP3    H158889   1.088   4.560  14.400  0.1343  0.0400 -1.1950
12466TIP3    H258890   1.140   4.422  14.433  1.5803  0.7950 -0.2344
12467TIP3   OH258891   4.219   1.475  13.427  0.5665 -0.1663 -0.4566
12467TIP3    H158892   4.187   1.494  13.515 -1.3929  1.1956 -1.4348
12467TIP3    H258893   4.250   1.384  13.432 -2.4996 -1.1939  0.8421
12468TIP3   OH258894   2.399   3.705  15.014 -0.0927  0.2966 -0.2592
12468TIP3    H158895   2.421   3.721  14.923  0.1370  1.2794 -0.0350
12468TIP3    H258896   2.357   3.786  15.044 -2.7853 -1.0259 -0.2878
12469TIP3   OH258897   1.303   6.560   0.019 -0.4375 -0.3335  0.6045
12469TIP3    H158898   1.215   6.535  -0.010 -0.3848 -1.3804  1.3428
12469TIP3    H258899   1.289   6.643   0.065 -1.4950 -1.8430  3.1469
12470TIP3   OH258900   6.176   6.552  15.209  0.0990  0.2577 -0.3935
12470TIP3    H158901   6.141   6.624  15.157  2.2368  1.9089  0.3779
12470TIP3    H258902   6.114   6.542  15.281  0.9320  2.8108  0.7017
12471TIP3   OH258903   5.733   6.267   4.603  0.3339 -0.0605 -0.8477
12471TIP3    H158904   5.678   6.286   4.527 -1.9747  0.4801  0.9093
12471TIP3    H258905   5.735   6.348   4.653  0.8121 -0.7726  0.3131
12472TIP3   OH258906   5.662   4.847  10.844  0.4760 -0.0661 -0.2836
12472TIP3    H158907   5.622   4.914  10.898 -1.4330 -2.2802  1.1525
12472TIP3    H258908   5.604   4.839  10.768  1.8683  1.3717 -1.5370
12473TIP3   OH258909   4.585   5.347  17.253  0.1511  0.4276 -0.5996
12473TIP3    H158910   4.498   5.316  17.276 -0.6056  0.9746 -2.6251
12473TIP3    H258911   4.588   5.437  17.286  0.9578 -0.4513  1.8527
12474TIP3   OH258912   6.506   4.208   3.094  0.0084 -0.2082 -0.0562
12474TIP3    H158913   6.555   4.129   3.070 -1.3871 -0.8931 -0.6796
12474TIP3    H258914   6.498   4.203   3.190 -0.0352 -0.7983 -0.0880
12475TIP3   OH258915   4.682   5.731  13.969  0.0378  0.3485  0.4662
12475TIP3    H158916   4.687   5.795  13.898 -0.8768  1.0570  1.0124
12475TIP3    H258917   4.763   5.681  13.963 -0.7562 -0.7055 -2.0939
12476TIP3   OH258918   2.158   3.788  12.726 -0.4676  0.3009 -0.4208
12476TIP3    H158919   2.157   3.830  12.640  0.5349  2.3384  0.5441
12476TIP3    H258920   2.078   3.818  12.768 -0.1989  0.5411 -0.0748
12477TIP3   OH258921   2.664   4.910  16.455 -0.2621 -0.8212  0.5478
12477TIP3    H158922   2.583   4.859  16.448 -1.1468  0.5455  0.6349
12477TIP3    H258923   2.660   4.972  16.383 -0.2200  0.5240  1.6787
12478TIP3   OH258924   5.130   0.715  16.884  0.5238 -0.6949  0.5702
12478TIP3    H158925   5.113   0.621  16.891 -1.0133 -0.4665  0.0820
12478TIP3    H258926   5.138   0.744  16.975  1.6382 -1.3925  0.7077
12479TIP3   OH258927   3.948   6.025  12.261  0.0897  0.3192  0.4119
12479TIP3    H158928   3.908   6.021  12.174 -2.3594  0.3312  1.4767
12479TIP3    H258929   4.030   6.071  12.248 -0.4365  0.6728 -1.8379
12480TIP3   OH258930   5.078   5.672   0.673  0.2381  0.4316  0.0047
12480TIP3    H158931   5.147   5.736   0.658  0.3322 -0.2960 -2.9184
12480TIP3    H258932   4.998   5.724   0.679  0.7135  1.0735  0.8651
12481TIP3   OH258933   4.979   6.142   3.631 -0.4351  0.5676  0.0433
12481TIP3    H158934   4.892   6.146   3.591  0.3159 -1.3844 -1.8426
12481TIP3    H258935   5.032   6.203   3.580 -0.5000  1.2502  0.7701
12482TIP3   OH258936   3.537   6.793  15.681  0.5012  0.2687  0.0930
12482TIP3    H158937   3.536   6.834  15.768  0.7028  0.2215  0.1186
12482TIP3    H258938   3.476   6.720  15.689  0.0554  0.6296  0.0154
12483TIP3   OH258939   2.098   5.687  15.303 -0.0227  0.5998  0.1641
12483TIP3    H158940   2.020   5.727  15.342 -0.2024  0.7103 -0.3072
12483TIP3    H258941   2.093   5.710  15.210  2.0499  3.0606  0.5844
12484TIP3   OH258942   6.325   3.839   6.342  0.2052  0.0518 -0.1293
12484TIP3    H158943   6.348   3.767   6.401  0.9036 -0.0227 -0.4905
12484TIP3    H258944   6.264   3.893   6.393  0.6799 -0.0983  0.6055
12485TIP3   OH258945   2.603   2.412  16.622 -0.3090  0.9746  0.2505
12485TIP3    H158946   2.588   2.320  16.600  1.7777  0.8294 -0.6930
12485TIP3    H258947   2.533   2.459  16.576 -0.7487 -0.0544 -0.1521
12486TIP3   OH258948   5.632   5.849   5.163  0.3901 -0.0585  0.3636
12486TIP3    H158949   5.547   5.889   5.142  0.9388  1.4361  0.9124
12486TIP3    H258950   5.619   5.808   5.248 -0.5511 -2.2244 -0.7888
12487TIP3   OH258951   2.936   4.993  12.161  0.2351 -0.6436  0.1081
12487TIP3    H158952   2.951   4.907  12.122 -0.2796 -1.2123  1.1496
12487TIP3    H258953   2.965   4.983  12.252 -2.3374 -0.5080  0.9875
12488TIP3   OH258954   3.621   3.516   6.085 -0.2870  0.2725 -0.1702
12488TIP3    H158955   3.613   3.444   6.021  1.7214 -0.2721  0.1301
12488TIP3    H258956   3.593   3.477   6.168 -0.0737  0.1037 -0.1759
12489TIP3   OH258957   1.820   3.771   0.833  0.0245 -0.2448  0.4097
12489TIP3    H158958   1.760   3.841   0.858  1.4438  1.3944 -0.6810
12489TIP3    H258959   1.906   3.804   0.858  0.4801 -2.6517  2.1446
12490TIP3   OH258960   1.634   0.074   0.513  0.0026 -0.1063 -0.2104
12490TIP3    H158961   1.646  -0.009   0.559 -0.2849  0.6038  1.2064
12490TIP3    H258962   1.548   0.067   0.472  0.9388 -1.3621 -1.9918
12491TIP3   OH258963   6.122   0.208   0.529  0.0308 -0.6628  0.0030
12491TIP3    H158964   6.185   0.281   0.531  1.3388 -1.8074  1.1664
12491TIP3    H258965   6.152   0.153   0.457  0.7408 -1.5387  0.9616
12492TIP3   OH258966   4.423   0.135   3.824 -0.6350 -0.2870 -0.1475
12492TIP3    H158967   4.431   0.221   3.782  0.6953  0.8514  2.3810
12492TIP3    H258968   4.505   0.090   3.803  0.2795  0.5058  1.7168
12493TIP3   OH258969   1.422   6.683  13.801 -0.4781 -0.2321 -0.0838
12493TIP3    H158970   1.355   6.648  13.860  0.0852 -1.7248 -0.3048
12493TIP3    H258971   1.459   6.758  13.847  1.2800 -2.5119  2.2909
12494TIP3   OH258972   2.463   2.828  14.169 -0.4260 -0.1848  0.3525
12494TIP3    H158973   2.484   2.836  14.076 -0.4359  0.2132  0.3844
12494TIP3    H258974   2.492   2.910  14.208 -2.4971  0.6165  0.2940
12495TIP3   OH258975   1.067   0.657   6.041 -0.0323 -0.0108 -0.5475
12495TIP3    H158976   1.046   0.570   6.006 -2.8155  0.2292  0.3688
12495TIP3    H258977   1.112   0.639   6.123 -1.8808 -0.6412  0.3678
12496TIP3   OH258978   4.880   6.270  15.974 -0.6265 -0.2101 -0.1088
12496TIP3    H158979   4.806   6.321  15.940  0.7992  1.4278 -0.8571
12496TIP3    H258980   4.936   6.256  15.898 -0.1502 -1.4252  0.4545
12497TIP3   OH258981   5.153   3.257  12.879 -0.2092 -0.2910  0.2890
12497TIP3    H158982   5.124   3.322  12.943 -1.1611 -0.3141 -0.1124
12497TIP3    H258983   5.106   3.178  12.902 -1.1907 -0.0807 -0.9354
12498TIP3   OH258984   2.859   5.064  10.560 -0.4852  0.0815 -0.7082
12498TIP3    H158985   2.801   4.990  10.579 -1.1668  0.7767 -0.0358
12498TIP3    H258986   2.822   5.104  10.481 -0.9168  0.5120 -0.2917
12499TIP3   OH258987   1.587   2.491   0.821 -0.3764 -0.6326  0.2307
12499TIP3    H158988   1.546   2.568   0.782 -1.5037 -1.5326 -0.3822
12499TIP3    H258989   1.515   2.430   0.835  0.4783 -1.4987  0.9151
12500TIP3   OH258990   4.561   0.101  14.199 -0.1297  0.6600  0.0513
12500TIP3    H158991   4.626   0.065  14.258  0.2451 -0.9161 -1.2858
12500TIP3    H258992   4.501   0.149  14.256  1.2805  0.7705  1.4785
12501TIP3   OH258993   2.500   6.063   1.662  0.3148 -0.2686 -0.4376
12501TIP3    H158994   2.457   6.148   1.657  1.3171  0.2331 -0.6198
12501TIP3    H258995   2.544   6.053   1.577  0.7491 -0.6684 -0.1726
12502TIP3   OH258996   0.298   0.900  10.938 -0.2475  0.1133 -0.0642
12502TIP3    H158997   0.246   0.879  10.860  1.8484 -1.5079 -1.0871
12502TIP3    H258998   0.249   0.861  11.010 -0.6378 -1.0892 -0.9606
12503TIP3   OH258999   5.058   6.252   5.990  0.5982 -0.4781 -0.4085
12503TIP3    H159000   5.064   6.165   6.031  1.8328 -0.7594 -1.1494
12503TIP3    H259001   5.059   6.313   6.064 -2.3025 -1.1419  0.2389
12504TIP3   OH259002   4.948   2.497   6.222 -0.2717 -0.4207  0.2468
12504TIP3    H159003   4.935   2.584   6.260 -1.5531 -0.9000  0.9343
12504TIP3    H259004   4.866   2.478   6.177  0.2920 -0.9576 -0.5670
12505TIP3   OH259005   1.741   5.840   0.419  0.2544  0.3317  0.4254
12505TIP3    H159006   1.809   5.804   0.361 -0.6283 -0.4352 -0.1423
12505TIP3    H259007   1.780   5.838   0.506  0.8538 -0.3931  0.1480
12506TIP3   OH259008   6.223   5.730   2.183 -0.7385  0.0294  0.1060
12506TIP3    H159009   6.186   5.815   2.160 -0.4598 -0.0431 -0.6160
12506TIP3    H259010   6.198   5.673   2.110  0.8122 -0.0220 -0.4027
12507TIP3   OH259011   1.662   6.112   0.358  0.2831  0.2563  0.4223
12507TIP3    H159012   1.573   6.087   0.334 -0.2876  1.2629  1.4065
12507TIP3    H259013   1.706   6.030   0.378 -1.2624 -0.0707  2.6456
12508TIP3   OH259014   5.131   0.902   0.896  0.1746 -0.2594  0.4962
12508TIP3    H159015   5.055   0.952   0.867  0.7188  1.0415  1.2707
12508TIP3    H259016   5.161   0.947   0.975  3.3927  0.9301 -1.3032
12509TIP3   OH259017   1.235   3.884  15.866 -0.0173 -0.2280 -0.0400
12509TIP3    H159018   1.217   3.884  15.960  0.7928 -2.3086  0.1394
12509TIP3    H259019   1.327   3.911  15.860 -0.1800  0.2808 -0.2713
12510TIP3   OH259020   3.280   0.762   0.219 -0.6135 -0.6120 -0.3099
12510TIP3    H159021   3.320   0.729   0.299 -0.2249 -1.4047 -0.8235
12510TIP3    H259022   3.350   0.812   0.175 -0.8382 -0.1404 -0.1348
12511TIP3   OH259023   3.845   2.142   3.762  0.1981  0.4925 -0.3749
12511TIP3    H159024   3.933   2.166   3.789 -0.3839  1.9362  0.3271
12511TIP3    H259025   3.828   2.197   3.685 -0.3729  0.8323 -0.0167
12512TIP3   OH259026   0.270   4.389   5.532  0.4662  0.3548  0.2786
12512TIP3    H159027   0.256   4.474   5.491  2.3256  1.6739  2.2644
12512TIP3    H259028   0.340   4.404   5.595 -1.4951 -1.8493  3.1275
12513TIP3   OH259029   3.158   6.326  12.389  0.1890 -0.1270 -0.4406
12513TIP3    H159030   3.195   6.283  12.466  0.1423  0.8631  0.1333
12513TIP3    H259031   3.090   6.384  12.423 -0.8865 -0.8173 -1.3628
12514TIP3   OH259032   4.548   1.062  15.734 -0.7924 -0.0448 -0.8125
12514TIP3    H159033   4.585   1.018  15.658  0.5919 -2.9576  1.4362
12514TIP3    H259034   4.453   1.055  15.722 -0.5896 -0.5008 -2.2349
12515TIP3   OH259035   1.145   3.800   0.410  0.2914  0.3937  0.2921
12515TIP3    H159036   1.230   3.756   0.408 -1.4102 -3.0781 -0.0145
12515TIP3    H259037   1.119   3.805   0.318 -1.0051 -1.0053  0.5725
12516TIP3   OH259038   1.949   0.703   4.081 -0.2038  0.1969  0.5408
12516TIP3    H159039   2.002   0.762   4.135 -0.1738  0.0855  0.6326
12516TIP3    H259040   1.905   0.761   4.019  1.0165  0.1458 -0.3753
12517TIP3   OH259041   2.118   3.139   6.284 -0.2838 -0.1578  0.7555
12517TIP3    H159042   2.094   3.216   6.336  1.3682 -0.6752  2.3257
12517TIP3    H259043   2.209   3.120   6.308 -0.7729 -2.8443  0.7301
12518TIP3   OH259044   0.964   6.548  16.956  0.1582  0.3509  0.0025
12518TIP3    H159045   0.879   6.529  16.917  0.0018  2.4219 -0.6909
12518TIP3    H259046   1.021   6.569  16.882  1.2268 -0.7338  0.4882
12519TIP3   OH259047   4.851   2.508   0.894  0.0943 -0.2628 -0.5907
12519TIP3    H159048   4.892   2.425   0.867 -0.3974 -0.6013 -0.3181
12519TIP3    H259049   4.758   2.486   0.904  0.3347 -0.2637  1.8661
12520TIP3   OH259050   4.718   5.302   0.261  0.2174 -0.4903 -0.2785
12520TIP3    H159051   4.722   5.392   0.228  0.1713 -0.9499 -1.5901
12520TIP3    H259052   4.786   5.298   0.329 -1.6955  1.3001  1.8155
12521TIP3   OH259053   3.020   0.677   5.429 -0.4316  0.0385 -0.2927
12521TIP3    H159054   3.100   0.627   5.415 -0.6189 -0.3472  0.0143
12521TIP3    H259055   3.006   0.725   5.347  0.7622  1.0168  0.0488
12522TIP3   OH259056   2.771   0.185   0.700 -0.0601 -0.2301 -0.1679
12522TIP3    H159057   2.865   0.166   0.700  0.1692  0.8898 -0.4245
12522TIP3    H259058   2.741   0.159   0.613  0.0192 -0.5633 -0.0949
12523TIP3   OH259059   0.188   1.859   2.574 -0.0911  0.0505 -0.4616
12523TIP3    H159060   0.121   1.845   2.506  1.1153  0.8468 -1.8439
12523TIP3    H259061   0.260   1.900   2.528  0.3195  1.6498  1.5503
12524TIP3   OH259062   5.323   3.707  14.409 -0.5558  0.2356 -0.3618
12524TIP3    H159063   5.336   3.745  14.496  0.1394 -2.6916  0.8465
12524TIP3    H259064   5.229   3.720  14.392 -0.6039  1.2562  0.5909
12525TIP3   OH259065   5.778   2.314   4.333  0.1878  0.0790 -0.3537
12525TIP3    H159066   5.810   2.289   4.246  2.4504 -1.1507  0.7793
12525TIP3    H259067   5.697   2.263   4.344  2.3116 -3.3930  0.0597
12526TIP3   OH259068   0.979   2.163   3.763 -0.3346 -0.4523  0.0942
12526TIP3    H159069   1.054   2.194   3.713 -0.2766 -2.2376 -0.9792
12526TIP3    H259070   0.921   2.239   3.768  0.1988  0.1032 -1.6685
12527TIP3   OH259071   1.683   6.256   1.121  0.1583  0.4666 -0.2401
12527TIP3    H159072   1.697   6.161   1.127  1.5733  0.7030  0.4293
12527TIP3    H259073   1.649   6.270   1.033 -0.8192 -0.7575 -0.0609
12528TIP3   OH259074   6.040   2.114   2.792  0.0116 -0.1444  0.0963
12528TIP3    H159075   6.127   2.154   2.797 -0.3542  0.4939  1.7901
12528TIP3    H259076   6.051   2.029   2.835 -0.2948  0.1148  0.6907
12529TIP3   OH259077   0.778   3.844   3.206  0.0233 -0.0352 -0.0305
12529TIP3    H159078   0.745   3.755   3.220 -2.7242  0.6923 -1.4693
12529TIP3    H259079   0.800   3.875   3.293 -1.1598 -1.3455  0.7621
12530TIP3   OH259080   5.063   0.155  15.711 -0.6562  0.0617 -0.5719
12530TIP3    H159081   5.156   0.145  15.694 -0.2707 -2.2105  2.3760
12530TIP3    H259082   5.050   0.114  15.797 -3.8980  2.6943  0.3096
12531TIP3   OH259083   4.184   2.492   2.737  0.0410  0.1464 -0.3919
12531TIP3    H159084   4.206   2.437   2.813 -1.8077 -0.3767 -0.2086
12531TIP3    H259085   4.263   2.543   2.721  1.0447 -0.9798  0.8164
12532TIP3   OH259086   3.493   0.235  11.698  0.0933 -0.0621  0.1860
12532TIP3    H159087   3.561   0.230  11.765  1.2308 -3.4070 -1.1089
12532TIP3    H259088   3.535   0.280  11.625  0.4291 -0.6737 -0.0074
12533TIP3   OH259089   0.702   3.528   0.127  0.4157  0.2379 -0.0492
12533TIP3    H159090   0.697   3.533   0.032 -0.5310  0.0462 -0.0138
12533TIP3    H259091   0.727   3.438   0.145  1.4602  0.4999 -0.1373
12534TIP3   OH259092   4.056   3.664  14.353  0.4085  0.1888  0.3944
12534TIP3    H159093   4.106   3.622  14.423  0.8567 -1.3724 -0.8238
12534TIP3    H259094   4.021   3.591  14.301 -0.2833  1.3078 -0.7551
12535TIP3   OH259095   2.225   2.273  16.295  0.2247 -0.0813  0.5361
12535TIP3    H159096   2.135   2.243  16.287  0.3081 -0.1754 -0.0827
12535TIP3    H259097   2.260   2.226  16.371  0.0684 -0.8296  0.1453
12536TIP3   OH259098   2.501   5.367  14.003  0.0350 -0.2788  0.1226
12536TIP3    H159099   2.452   5.447  14.022  2.2048  0.9613  0.6772
12536TIP3    H259100   2.460   5.300  14.056 -1.7123  0.4991 -0.2263
12537TIP3   OH259101   3.794   3.303   3.859 -0.0391  0.1509 -0.2011
12537TIP3    H159102   3.888   3.304   3.878 -0.2494  2.3409  0.8887
12537TIP3    H259103   3.756   3.256   3.933 -0.0149  1.4166  0.6449
12538TIP3   OH259104   2.303   0.399   5.368 -0.2145  0.0179 -0.2999
12538TIP3    H159105   2.327   0.369   5.456  0.0855 -1.4704 -0.8865
12538TIP3    H259106   2.213   0.431   5.378 -1.0205 -2.2744  0.0839
12539TIP3   OH259107   6.271   2.031  12.025  0.2922 -0.3406 -0.6156
12539TIP3    H159108   6.226   2.114  12.009  0.0674 -0.6123 -1.4106
12539TIP3    H259109   6.362   2.048  12.001  0.6510  0.2430  1.1055
12540TIP3   OH259110   4.076   5.367  16.293  0.1605  0.0028 -0.0694
12540TIP3    H159111   3.998   5.399  16.248  0.7372 -1.1064 -1.9136
12540TIP3    H259112   4.059   5.384  16.385 -1.3873  1.6096 -0.6215
12541TIP3   OH259113   5.132   4.848  16.296 -0.2109 -0.2172 -0.1015
12541TIP3    H159114   5.045   4.871  16.264  0.8685  1.3372 -2.0711
12541TIP3    H259115   5.139   4.892  16.381 -0.3597  2.0606 -1.2024
12542TIP3   OH259116   0.544   2.845   2.526 -0.2346 -0.0924 -0.8201
12542TIP3    H159117   0.520   2.925   2.480  0.7291  1.1338  0.7596
12542TIP3    H259118   0.627   2.818   2.487  0.0108  0.3161 -0.5829
12543TIP3   OH259119   6.493   0.360  15.608  0.0470 -0.3174 -0.5611
12543TIP3    H159120   6.565   0.305  15.576  0.1620  0.3619 -1.4620
12543TIP3    H259121   6.481   0.426  15.540 -2.0267 -0.9597 -0.8523
12544TIP3   OH259122   0.894   3.018  16.386  0.7165  0.1547  0.1601
12544TIP3    H159123   0.926   3.101  16.422  1.8252 -0.9237  1.7130
12544TIP3    H259124   0.818   2.996  16.438  1.1328 -0.4006  0.5381
12545TIP3   OH259125   3.965   5.140   4.066  0.5582 -0.2681 -0.1566
12545TIP3    H159126   4.044   5.109   4.111 -0.2062  0.7255  1.9747
12545TIP3    H259127   3.956   5.231   4.094 -1.2527 -0.3220 -0.5046
12546TIP3   OH259128   6.011   2.941   2.200 -0.4464 -0.0611 -0.2943
12546TIP3    H159129   5.953   2.867   2.184 -0.7730 -0.0485  0.8380
12546TIP3    H259130   6.057   2.954   2.116 -2.2151  0.0665 -1.2654
12547TIP3   OH259131   3.951   0.556   4.014 -0.5094  0.0064 -0.5849
12547TIP3    H159132   4.019   0.528   4.075  0.3033  0.4753 -1.2566
12547TIP3    H259133   3.959   0.496   3.940  0.2237  1.0405 -1.3526
12548TIP3   OH259134   1.030   0.318   4.454 -0.0312  0.7421 -0.2320
12548TIP3    H159135   1.112   0.366   4.456  0.4259 -0.0277 -0.3349
12548TIP3    H259136   1.055   0.227   4.434 -0.7864  0.2592  0.9550
12549TIP3   OH259137   5.429   2.852   5.600 -0.0070 -0.5699  0.4638
12549TIP3    H159138   5.466   2.812   5.679 -1.2708  0.9631  1.8759
12549TIP3    H259139   5.355   2.904   5.632 -0.0524  0.7285 -1.6534
12550TIP3   OH259140   4.023   5.112  11.995  0.9140 -0.4876  0.5206
12550TIP3    H159141   3.975   5.174  11.940  1.7311 -0.2414  0.0731
12550TIP3    H259142   4.058   5.166  12.066  1.2034 -0.5177  0.4047
12551TIP3   OH259143   3.439   1.448   0.445 -0.7040 -0.5847  0.1558
12551TIP3    H159144   3.512   1.449   0.383 -2.4078  0.9387 -1.8986
12551TIP3    H259145   3.403   1.360   0.437 -1.3419 -0.1877 -1.5735
12552TIP3   OH259146   4.396   5.374   3.450  0.2339  0.0840 -0.6425
12552TIP3    H159147   4.432   5.289   3.425  0.9331  0.1552  0.0909
12552TIP3    H259148   4.415   5.381   3.544  0.2167  1.0592 -0.7066
12553TIP3   OH259149   2.321   0.603  11.731 -0.4217  0.3516  0.3176
12553TIP3    H159150   2.382   0.620  11.803  1.0284 -1.2578 -0.4957
12553TIP3    H259151   2.295   0.512  11.743 -0.4763  0.1938 -0.9862
12554TIP3   OH259152   1.498   4.806   5.350 -0.6347 -0.0294 -0.3309
12554TIP3    H159153   1.489   4.902   5.349 -0.7869 -0.0041  1.4056
12554TIP3    H259154   1.442   4.778   5.423 -0.7475 -1.4637 -0.9612
12555TIP3   OH259155   2.576   1.080   1.581  1.0339  0.3026  0.3984
12555TIP3    H159156   2.649   1.059   1.523 -0.8854 -2.5938 -1.0889
12555TIP3    H259157   2.542   0.995   1.611 -1.7231  1.5360  1.0145
12556TIP3   OH259158   6.198   3.350   3.525  0.1955 -0.3366 -0.0731
12556TIP3    H159159   6.191   3.275   3.584  2.8897  0.0036  0.7492
12556TIP3    H259160   6.244   3.316   3.449 -1.1167 -0.1770 -0.9586
12557TIP3   OH259161   3.317   4.964   4.233 -0.5285 -0.7388 -0.8945
12557TIP3    H159162   3.231   4.922   4.223 -0.4537 -1.1320  0.0510
12557TIP3    H259163   3.379   4.900   4.197 -0.4169 -1.4641  0.5268
12558TIP3   OH259164   3.910   5.305   2.057  0.8439 -0.0841  0.0192
12558TIP3    H159165   3.878   5.312   1.967 -0.5270 -1.6507  0.3632
12558TIP3    H259166   3.849   5.358   2.108 -0.3463 -1.8141  0.4534
12559TIP3   OH259167   4.370   6.422  10.767  0.1697 -0.0791 -0.1564
12559TIP3    H159168   4.385   6.414  10.861 -1.5863 -0.7275  0.0716
12559TIP3    H259169   4.341   6.335  10.739 -0.4445  0.4212 -1.0976
12560TIP3   OH259170   6.440   3.583  16.087  0.8828  0.3753 -0.2501
12560TIP3    H159171   6.471   3.599  15.998 -1.3440  0.7803 -0.9757
12560TIP3    H259172   6.482   3.652  16.139  0.4237  1.5309 -1.3819
12561TIP3   OH259173   1.257   3.559   0.110 -0.5504  0.1143  0.2284
12561TIP3    H159174   1.286   3.560   0.201 -1.7383  0.7189  0.6070
12561TIP3    H259175   1.163   3.540   0.114 -0.4219 -0.8910 -0.9293
12562TIP3   OH259176   5.192   3.710   1.411  0.6217 -0.5474  0.3712
12562TIP3    H159177   5.260   3.737   1.472  2.0628 -1.2011 -0.9119
12562TIP3    H259178   5.180   3.616   1.427  1.8200 -0.9710 -1.0979
12563TIP3   OH259179   4.832   2.783   4.230  0.1384  0.0877 -0.9764
12563TIP3    H159180   4.900   2.827   4.178  1.4685  0.3491  0.9648
12563TIP3    H259181   4.758   2.844   4.228  1.1840  1.4044 -0.1929
12564TIP3   OH259182   5.202   1.973  14.841  0.2347  0.2992 -0.0927
12564TIP3    H159183   5.232   1.882  14.847  0.3604  0.1875 -1.9007
12564TIP3    H259184   5.280   2.025  14.861  0.0804  0.0071  1.2652
12565TIP3   OH259185   3.809   2.756   1.716 -0.4548 -0.0126  0.6756
12565TIP3    H159186   3.753   2.833   1.715 -1.7091 -0.8818 -2.1343
12565TIP3    H259187   3.756   2.689   1.760 -1.8471 -0.9151 -2.2314
12566TIP3   OH259188   5.518   3.364   3.841 -0.3676 -0.0922 -0.4005
12566TIP3    H159189   5.425   3.377   3.858 -0.3970 -1.5850  0.6453
12566TIP3    H259190   5.562   3.395   3.920  0.0330  0.5275 -0.8574
12567TIP3   OH259191   1.989   4.783  17.248 -0.2336 -0.5872  0.3575
12567TIP3    H159192   2.064   4.803  17.194  0.8112  0.3469  2.1087
12567TIP3    H259193   1.932   4.860  17.241 -0.6847 -0.9884 -0.3946
12568TIP3   OH259194   6.052   1.808  12.783 -0.4432  0.2158 -0.5283
12568TIP3    H159195   6.036   1.720  12.819  1.7102  0.1242  0.2643
12568TIP3    H259196   6.063   1.793  12.689  0.4942 -0.4438 -0.3183
12569TIP3   OH259197   4.946   3.310  12.082 -0.5574 -0.2290  0.4856
12569TIP3    H159198   4.879   3.375  12.066  0.9919  1.3037  0.1030
12569TIP3    H259199   4.938   3.290  12.175 -0.0201  1.6905  0.9668
12570TIP3   OH259200   0.362   4.182  13.812  0.0395  0.4351  0.4665
12570TIP3    H159201   0.432   4.237  13.846  1.3497 -1.0621  0.2391
12570TIP3    H259202   0.402   4.133  13.740 -1.0858 -0.8710  0.7058
12571TIP3   OH259203   3.163   4.287   2.899 -0.6793  0.4845  0.1933
12571TIP3    H159204   3.164   4.372   2.854  4.0617 -0.5753 -1.9943
12571TIP3    H259205   3.189   4.308   2.989 -0.2241  1.4512 -0.1503
12572TIP3   OH259206   1.306   1.548   3.660  0.0203  0.1948  0.2576
12572TIP3    H159207   1.316   1.554   3.565 -0.5102 -0.7393  0.1325
12572TIP3    H259208   1.258   1.628   3.684  3.5551  2.3866  0.2699
12573TIP3   OH259209   2.590   6.023   4.585 -0.7602  0.4122  0.3008
12573TIP3    H159210   2.495   6.025   4.578 -0.7793 -2.1686 -0.9392
12573TIP3    H259211   2.621   6.053   4.500 -0.4875  0.7878  0.5343
12574TIP3   OH259212   6.787   6.537  13.173  0.5984  0.2285  0.0754
12574TIP3    H159213   6.878   6.560  13.158  0.4029  0.4129 -0.8793
12574TIP3    H259214   6.789   6.471  13.243  1.1607  3.1840  2.9868
12575TIP3   OH259215   4.997   0.653   5.396  0.3444 -0.1563  0.0917
12575TIP3    H159216   5.080   0.648   5.443  0.1456  3.7106  1.0096
12575TIP3    H259217   4.934   0.611   5.455  0.8106  1.2040  1.5859
12576TIP3   OH259218   4.045   2.939  14.513 -0.2583  0.8290  0.1837
12576TIP3    H159219   4.134   2.939  14.477  0.1664  0.2952  1.1982
12576TIP3    H259220   4.014   2.850  14.501 -1.1020  1.2867 -1.1905
12577TIP3   OH259221   3.739   5.324  14.433 -0.3430  0.1341  0.4952
12577TIP3    H159222   3.657   5.276  14.447  0.7152 -2.0091 -0.2867
12577TIP3    H259223   3.755   5.317  14.339  0.2896  1.2808  0.5088
12578TIP3   OH259224   0.355   3.063  15.310 -0.4140 -0.2592 -0.1712
12578TIP3    H159225   0.342   3.133  15.246 -0.0136 -1.0067 -1.0751
12578TIP3    H259226   0.282   3.003  15.295 -0.1604 -0.5813 -0.1235
12579TIP3   OH259227   1.839   1.699   3.944 -0.1290 -0.0573 -0.8283
12579TIP3    H159228   1.765   1.754   3.916  0.8800  1.4834 -0.4980
12579TIP3    H259229   1.916   1.755   3.934  1.0203 -1.7003 -1.2770
12580TIP3   OH259230   5.747   3.050   3.187  0.0626 -0.0499 -0.2026
12580TIP3    H159231   5.700   3.108   3.247 -1.2057 -2.1373  0.9095
12580TIP3    H259232   5.825   3.023   3.236  1.0122  1.2048 -0.9804
12581TIP3   OH259233   3.033   1.503   3.116  0.4484  0.4095 -0.2797
12581TIP3    H159234   3.039   1.599   3.124  0.5151  0.4695 -1.0426
12581TIP3    H259235   3.117   1.477   3.078 -0.2299  0.2314 -1.6872
12582TIP3   OH259236   0.319   4.123  12.049 -0.5170 -0.2379 -0.3441
12582TIP3    H159237   0.302   4.200  12.104 -0.7120 -0.2570 -0.3764
12582TIP3    H259238   0.414   4.122  12.037 -0.7641  1.6016 -2.6838
12583TIP3   OH259239   5.591   2.269  15.630 -0.1622  0.0083  0.7692
12583TIP3    H159240   5.567   2.292  15.541 -2.0736  0.3064  1.3477
12583TIP3    H259241   5.604   2.174  15.628  2.3464  0.3237 -0.3716
12584TIP3   OH259242   2.483   0.631  13.459 -0.8222  0.7071  0.1235
12584TIP3    H159243   2.487   0.551  13.511 -1.6159 -0.2863 -1.3159
12584TIP3    H259244   2.570   0.670  13.467 -0.8936  0.4858  2.0461
12585TIP3   OH259245   4.989   1.594   2.052  0.1283 -0.0335 -0.0746
12585TIP3    H159246   4.911   1.637   2.088 -0.8320 -0.1639 -1.9331
12585TIP3    H259247   5.062   1.645   2.085 -0.7519  0.1903  1.5781
12586TIP3   OH259248   2.433   3.015  16.067  0.3184  0.0201 -0.1378
12586TIP3    H159249   2.378   2.937  16.068  0.9320 -0.4193  0.1886
12586TIP3    H259250   2.442   3.039  16.160  1.9029 -0.8014 -0.0651
12587TIP3   OH259251   5.014   1.466   0.328 -0.5626  0.4037  0.4897
12587TIP3    H159252   5.109   1.456   0.329 -0.6807 -0.8053 -0.2031
12587TIP3    H259253   5.000   1.560   0.315  0.5208  0.3352 -1.2129
12588TIP3   OH259254   3.008   5.910   0.575 -0.1255 -0.6217  0.0211
12588TIP3    H159255   2.925   5.953   0.591  0.1102  0.2462 -1.0149
12588TIP3    H259256   3.049   5.902   0.661 -1.7815 -2.1242  0.6890
12589TIP3   OH259257   3.711   1.569  15.812  0.0254  0.0011 -0.0814
12589TIP3    H159258   3.674   1.597  15.728 -1.4163 -1.1609  0.1601
12589TIP3    H259259   3.729   1.651  15.858 -2.7978  0.6374  0.0124
12590TIP3   OH259260   5.802   2.880  17.013  0.3192  0.2111  0.0777
12590TIP3    H159261   5.880   2.881  17.067  0.6572  1.6282 -0.4195
12590TIP3    H259262   5.732   2.913  17.069  0.7797  2.2000 -0.4954
12591TIP3   OH259263   0.697   5.092  13.900 -0.3751  0.1494 -0.1792
12591TIP3    H159264   0.709   5.072  13.807 -2.5556  1.1306 -0.6914
12591TIP3    H259265   0.602   5.089  13.913 -0.1166  0.4836  1.9186
12592TIP3   OH259266   1.304   6.118   3.493 -0.1354 -0.2245 -0.3162
12592TIP3    H159267   1.367   6.132   3.422 -0.7613  0.7866 -0.6818
12592TIP3    H259268   1.348   6.056   3.552 -0.4203 -2.6591 -2.5797
12593TIP3   OH259269   2.920   3.020  11.000  0.4704 -0.4175 -0.3973
12593TIP3    H159270   2.884   2.957  10.939  1.2740 -2.1575  0.8954
12593TIP3    H259271   2.844   3.049  11.051  0.0303  0.0078 -1.2768
12594TIP3   OH259272   4.732   0.303   5.272  0.0270 -0.1177  0.3556
12594TIP3    H159273   4.735   0.208   5.265  0.4244 -0.0640 -0.2397
12594TIP3    H259274   4.702   0.333   5.187 -0.1014  0.2939  0.5423
12595TIP3   OH259275   2.645   6.314   4.066 -0.1457  0.0595 -0.0962
12595TIP3    H159276   2.586   6.371   4.116  1.2659  0.5767  1.0236
12595TIP3    H259277   2.726   6.365   4.057  0.6309 -1.1821 -0.3606
12596TIP3   OH259278   0.115   1.789   5.980  0.7674 -0.6910  0.3109
12596TIP3    H159279   0.063   1.711   6.003 -1.2105  0.6724  0.5446
12596TIP3    H259280   0.089   1.811   5.891  0.8190  0.1228  0.4921
12597TIP3   OH259281   4.482   5.552  12.469 -0.5042 -0.3166 -0.3245
12597TIP3    H159282   4.421   5.576  12.400  1.2494  1.0330 -1.4544
12597TIP3    H259283   4.473   5.621  12.535 -2.2668 -1.6690  0.9044
12598TIP3   OH259284   5.138   3.426  13.180  0.4293  0.3723  0.4959
12598TIP3    H159285   5.064   3.474  13.217 -0.6693 -0.2372 -0.8484
12598TIP3    H259286   5.165   3.367  13.250 -0.3264  0.6462  1.0239
12599TIP3   OH259287   0.423   2.184   1.241 -0.1448 -0.1281  0.3002
12599TIP3    H159288   0.342   2.235   1.248 -1.3951 -2.3141  2.4514
12599TIP3    H259289   0.428   2.159   1.149 -0.8263  1.7113 -0.2629
12600TIP3   OH259290   4.192   5.323   3.879  0.1148  0.3649  0.2361
12600TIP3    H159291   4.248   5.290   3.949 -0.7607  0.7107  1.1098
12600TIP3    H259292   4.103   5.315   3.914 -0.3767 -0.1381 -1.1217
12601TIP3   OH259293   6.425   5.148   2.480  0.3500 -0.8669 -0.3552
12601TIP3    H159294   6.424   5.174   2.573  0.8408 -0.4713 -0.4600
12601TIP3    H259295   6.514   5.166   2.451  0.3824 -1.6267 -0.7286
12602TIP3   OH259296   5.775   3.699   5.040 -0.0614 -0.0167 -0.1723
12602TIP3    H159297   5.682   3.673   5.038 -0.2899  0.6184  1.6099
12602TIP3    H259298   5.816   3.636   5.099  0.2502  0.9821  0.6699
12603TIP3   OH259299   0.761   2.994   5.785  0.0813  0.1203 -0.2204
12603TIP3    H159300   0.801   3.012   5.700 -0.0611  0.3124 -0.2480
12603TIP3    H259301   0.723   3.078   5.812 -0.5693 -0.1312 -0.3377
12604TIP3   OH259302   1.369   0.820   5.869  0.2856 -0.3575  0.1327
12604TIP3    H159303   1.285   0.792   5.834  0.2976 -2.1077  1.4161
12604TIP3    H259304   1.426   0.827   5.792 -0.8665  0.2816 -0.6774
12605TIP3   OH259305   1.214   6.765   6.331  0.3024  0.4695 -0.0335
12605TIP3    H159306   1.180   6.795   6.416  0.5490  1.0038 -0.1223
12605TIP3    H259307   1.308   6.779   6.336  0.0317  3.1203 -1.4215
12606TIP3   OH259308   3.219   2.260  15.934  0.0044  0.4053  0.0235
12606TIP3    H159309   3.209   2.350  15.902 -1.2490 -0.1473 -1.2233
12606TIP3    H259310   3.129   2.228  15.943  0.4491 -0.9618 -0.2690
12607TIP3   OH259311   3.598   0.579  11.608  0.0006 -0.0067 -0.1694
12607TIP3    H159312   3.571   0.487  11.612 -0.4432  0.0646 -1.3008
12607TIP3    H259313   3.534   0.620  11.550  1.4361  0.5768 -1.3756
12608TIP3   OH259314   0.442   0.804   0.814  0.2942 -0.0888  0.0448
12608TIP3    H159315   0.366   0.860   0.797  0.3396 -0.3999 -1.2594
12608TIP3    H259316   0.432   0.778   0.906 -0.0507  1.5494  0.4952
12609TIP3   OH259317   4.973   1.343   3.977  0.2364  1.0809  0.6925
12609TIP3    H159318   4.885   1.381   3.984 -0.5460 -0.7991  1.4422
12609TIP3    H259319   5.032   1.417   3.983 -1.3300  2.4660 -0.5799
12610TIP3   OH259320   5.650   2.535   0.146 -0.4490 -0.6961  0.2265
12610TIP3    H159321   5.737   2.499   0.159 -1.2066 -2.6194  0.1529
12610TIP3    H259322   5.603   2.517   0.227 -1.9342 -3.2105 -1.0963
12611TIP3   OH259323   0.901   0.632   1.991 -0.4096 -0.2806  0.4284
12611TIP3    H159324   0.970   0.571   2.015 -1.0179 -1.0769  0.1669
12611TIP3    H259325   0.924   0.713   2.036  0.7684 -0.4982  0.2267
12612TIP3   OH259326   1.268   2.321  16.011 -0.3281  0.7246 -0.2211
12612TIP3    H159327   1.264   2.318  15.916  0.6153 -1.0964 -0.2145
12612TIP3    H259328   1.342   2.378  16.030 -0.2798  0.7811 -0.5788
12613TIP3   OH259329   0.040   0.200   1.737 -0.2665  0.9168 -0.2749
12613TIP3    H159330   0.048   0.105   1.730 -1.4288  0.9110 -2.0517
12613TIP3    H259331   0.128   0.231   1.758 -0.0774 -0.6121  1.3111
12614TIP3   OH259332   6.708   4.738  13.050 -0.0034 -0.4664 -0.2120
12614TIP3    H159333   6.666   4.772  13.130 -1.4237  3.7714 -2.5939
12614TIP3    H259334   6.802   4.749  13.066 -0.2534  0.0133  1.0110
12615TIP3   OH259335   2.839   4.494   4.687  0.0767 -0.4062  0.5456
12615TIP3    H159336   2.905   4.554   4.653 -0.6612  1.3788  2.1783
12615TIP3    H259337   2.870   4.469   4.774 -2.1690  1.8611  2.0875
12616TIP3   OH259338   6.296   3.339   3.243 -0.6401 -0.4323  0.1204
12616TIP3    H159339   6.358   3.304   3.180 -1.2723 -1.4609  0.0590
12616TIP3    H259340   6.214   3.293   3.225 -1.2232  0.3432  0.7106
12617TIP3   OH259341   5.827   5.757  14.495  0.1554 -0.5573 -0.4382
12617TIP3    H159342   5.733   5.745  14.507  0.3163 -1.1633  0.2035
12617TIP3    H259343   5.849   5.831  14.552  0.5578 -2.1588  1.5049
12618TIP3   OH259344   2.125   2.866  11.225  0.5408 -0.6869 -0.7559
12618TIP3    H159345   2.111   2.844  11.133 -0.1045 -1.5807 -0.4598
12618TIP3    H259346   2.039   2.851  11.266  0.6256  0.4333 -0.1558
12619TIP3   OH259347   5.683   3.334   5.367 -0.1400 -0.8986  0.5579
12619TIP3    H159348   5.716   3.282   5.440  2.1674 -0.0891  0.1169
12619TIP3    H259349   5.589   3.341   5.384  0.4465 -0.1816  3.8323
12620TIP3   OH259350   6.610   0.453  11.386 -0.4721 -0.1330 -0.0024
12620TIP3    H159351   6.539   0.494  11.336  0.3482  0.1840 -0.9377
12620TIP3    H259352   6.620   0.366  11.346  0.2631  0.1642 -0.4807
12621TIP3   OH259353   4.730   6.550   6.573  0.5295 -0.3507 -0.3104
12621TIP3    H159354   4.787   6.474   6.566  0.8563 -0.2902  1.5123
12621TIP3    H259355   4.783   6.616   6.619  0.3975  1.1256 -2.2330
12622TIP3   OH259356   4.601   0.567   5.312  0.1138 -0.4971 -0.0984
12622TIP3    H159357   4.580   0.476   5.330  1.6907 -0.7205  0.6806
12622TIP3    H259358   4.582   0.612   5.395  0.3657 -0.2960 -0.1504
12623TIP3   OH259359   0.650   6.203   4.634 -0.6462 -0.2369 -0.0513
12623TIP3    H159360   0.601   6.125   4.607 -1.5273  0.3186 -0.0806
12623TIP3    H259361   0.586   6.256   4.681 -0.0107  0.4022  0.1018
12624TIP3   OH259362   1.819   2.369   2.786 -0.0316 -0.2091 -0.0233
12624TIP3    H159363   1.740   2.334   2.747 -0.7701 -0.1811  1.4117
12624TIP3    H259364   1.876   2.293   2.798  0.2724 -0.1917 -1.2774
12625TIP3   OH259365   1.792   4.672  11.226 -0.7556  0.0890 -0.0725
12625TIP3    H159366   1.711   4.643  11.267  0.1514 -1.0788  0.9231
12625TIP3    H259367   1.834   4.592  11.194 -0.6334  0.8199 -1.7883
12626TIP3   OH259368   5.614   0.968   1.504 -0.4004 -0.2520 -0.3587
12626TIP3    H159369   5.547   0.932   1.446 -2.5276  0.8597  1.3103
12626TIP3    H259370   5.587   0.939   1.592  1.5394 -0.1057  0.3075
12627TIP3   OH259371   3.927   5.309   0.474 -0.1558 -0.6082  0.0552
12627TIP3    H159372   3.892   5.250   0.541 -1.1553  0.6286  0.6574
12627TIP3    H259373   3.986   5.368   0.522 -1.0048  0.3895 -0.1016
12628TIP3   OH259374   2.235   6.181   5.908  0.2656  0.0867  0.0125
12628TIP3    H159375   2.315   6.150   5.865 -1.3126 -1.6878 -1.7174
12628TIP3    H259376   2.193   6.237   5.843 -1.6491 -1.8129 -0.4291
12629TIP3   OH259377   3.811   5.500   4.562 -0.4455 -0.7950  0.4657
12629TIP3    H159378   3.848   5.412   4.553 -0.9433 -1.0471  0.8386
12629TIP3    H259379   3.731   5.496   4.509 -0.8070 -0.7661  1.0073
12630TIP3   OH259380   3.552   1.621  12.957 -0.0418  0.3823  0.3125
12630TIP3    H159381   3.567   1.538  12.914  0.8592  0.1849  0.9836
12630TIP3    H259382   3.469   1.653  12.921 -1.0378 -1.3961  0.9873
12631TIP3   OH259383   6.348   1.616  16.722  0.7634  0.1109  0.4919
12631TIP3    H159384   6.433   1.609  16.678  0.9907 -0.5613  1.0453
12631TIP3    H259385   6.346   1.706  16.754  0.5217  0.6710 -1.0396
12632TIP3   OH259386   3.080   3.409  14.880  0.3548 -0.3076  0.7308
12632TIP3    H159387   3.067   3.463  14.958  0.0049 -1.3976  1.4511
12632TIP3    H259388   3.033   3.327  14.900  2.6566 -1.7057  0.5571
12633TIP3   OH259389   1.199   5.458  12.151 -0.1130  0.3623 -0.6816
12633TIP3    H159390   1.201   5.529  12.087 -0.1034 -0.0182 -1.1046
12633TIP3    H259391   1.287   5.456  12.187 -0.5740  1.7016  0.5875
12634TIP3   OH259392   0.421   4.783  13.071 -0.3821 -0.1896  0.2422
12634TIP3    H159393   0.504   4.776  13.118 -0.7980 -1.2869  0.8434
12634TIP3    H259394   0.357   4.809  13.138 -0.6220  0.1252 -0.1061
12635TIP3   OH259395   1.168   5.500  14.493  0.3203  0.1411  0.4690
12635TIP3    H159396   1.079   5.536  14.485  0.9608  1.5458 -0.5358
12635TIP3    H259397   1.183   5.497  14.588 -0.9865 -0.6008  0.6688
12636TIP3   OH259398   4.840   3.107  12.751  0.3096  0.2829  0.0734
12636TIP3    H159399   4.886   3.191  12.760  2.2187 -0.6995 -0.1848
12636TIP3    H259400   4.902   3.052  12.702 -0.7304 -1.4170  0.6641
12637TIP3   OH259401   2.345   2.831   5.240 -0.0832  0.3553  0.2650
12637TIP3    H159402   2.420   2.886   5.262  0.0285 -0.3635  1.7451
12637TIP3    H259403   2.365   2.745   5.278 -0.5218 -0.5653 -1.4963
12638TIP3   OH259404   3.538   3.355   3.088 -0.2212 -0.7657 -0.2971
12638TIP3    H159405   3.609   3.328   3.030 -1.4424  0.1434 -2.2605
12638TIP3    H259406   3.581   3.382   3.169  1.9769  2.7166 -2.5035
12639TIP3   OH259407   4.529   1.450   3.474  0.2502 -0.2188  0.0735
12639TIP3    H159408   4.612   1.410   3.499  0.9672  1.2278  0.0955
12639TIP3    H259409   4.524   1.531   3.525 -0.4296  0.4878 -1.0612
12640TIP3   OH259410   5.256   5.795  11.430  0.1871 -0.6382 -0.3434
12640TIP3    H159411   5.246   5.700  11.421 -2.7679 -0.0876 -3.5273
12640TIP3    H259412   5.337   5.815  11.383  0.1806 -1.4278 -0.6941
12641TIP3   OH259413   0.192   2.290  13.061 -0.8116  0.3911  0.3833
12641TIP3    H159414   0.111   2.264  13.017 -1.4506  0.4107  1.5169
12641TIP3    H259415   0.175   2.379  13.093  0.1193  0.8894 -0.4566
12642TIP3   OH259416   2.799   1.628   4.543 -0.3464 -0.2066 -0.2370
12642TIP3    H159417   2.869   1.679   4.505 -0.1629 -0.0447  0.3118
12642TIP3    H259418   2.806   1.643   4.637 -1.2569 -0.0033 -0.1948
12643TIP3   OH259419   1.331   3.633   2.838 -0.3395  0.1128  0.0692
12643TIP3    H159420   1.313   3.727   2.840  0.7193  0.3333 -0.7297
12643TIP3    H259421   1.346   3.610   2.930 -1.1677  0.6008  0.3385
12644TIP3   OH259422   2.045   1.389  14.101 -0.1747 -0.1088  0.7963
12644TIP3    H159423   1.965   1.369  14.151 -1.7567  1.0892 -1.1791
12644TIP3    H259424   2.090   1.455  14.154  0.7020 -2.3584  3.0255
12645TIP3   OH259425   2.454   1.070  15.340 -0.4445  0.2823 -0.0839
12645TIP3    H159426   2.380   1.125  15.314 -0.7260  0.4253  0.9960
12645TIP3    H259427   2.458   1.079  15.435  1.3515  0.7501 -0.1943
12646TIP3   OH259428   1.334   2.881  11.895 -0.1116 -0.3267  0.5011
12646TIP3    H159429   1.319   2.962  11.944 -0.9208 -1.2136  1.7708
12646TIP3    H259430   1.404   2.837  11.943 -0.5556 -0.9661  0.5713
12647TIP3   OH259431   0.293   6.528  11.003  0.1002  0.9934 -0.1586
12647TIP3    H159432   0.267   6.515  11.095  1.2923 -0.0191  0.0510
12647TIP3    H259433   0.303   6.622  10.994 -0.3055  1.1230  0.6708
12648TIP3   OH259434   5.518   6.070  16.404  0.3455  0.0819 -0.0700
12648TIP3    H159435   5.579   6.126  16.356  1.6510 -0.2560  1.1411
12648TIP3    H259436   5.565   6.048  16.484 -0.9702 -1.0634  0.4023
12649TIP3   OH259437   4.107   1.302   6.230 -0.5109 -0.5637  0.5060
12649TIP3    H159438   4.163   1.349   6.168 -1.6551 -0.4787 -0.4882
12649TIP3    H259439   4.163   1.285   6.306  0.8661 -0.5171 -0.4877
12650TIP3   OH259440   3.556   3.153  15.042  0.0008  0.7792  0.1928
12650TIP3    H159441   3.495   3.194  15.104 -1.1926 -0.3890 -0.1900
12650TIP3    H259442   3.566   3.218  14.973  0.3529  1.5805  0.9797
12651TIP3   OH259443   5.709   6.301  13.613 -0.2305  0.3786 -0.4656
12651TIP3    H159444   5.760   6.273  13.538  1.3750  3.0936 -0.4513
12651TIP3    H259445   5.620   6.268  13.596  0.2191  0.5730 -3.3027
12652TIP3   OH259446   3.003   1.971  14.293  0.1499  0.1120  0.4132
12652TIP3    H159447   3.032   2.036  14.228 -0.4382  2.3014  2.2736
12652TIP3    H259448   2.989   1.891  14.242  1.6362  1.2267 -1.8237
12653TIP3   OH259449   1.030   0.940  14.124  0.5211 -0.2323 -0.5042
12653TIP3    H159450   0.999   0.900  14.205 -0.0544 -1.1709 -1.1736
12653TIP3    H259451   0.984   1.024  14.119  0.3423 -0.2979 -0.0148
12654TIP3   OH259452   3.190   4.232   1.511 -0.7621  0.1054  0.0335
12654TIP3    H159453   3.177   4.252   1.419  0.6234  1.2270  0.0531
12654TIP3    H259454   3.278   4.266   1.530 -0.6440 -0.9918  1.5111
12655TIP3   OH259455   6.279   3.388   1.301 -0.8451  0.1382  1.1847
12655TIP3    H159456   6.369   3.420   1.293 -1.4732  1.5070 -0.5640
12655TIP3    H259457   6.287   3.309   1.355  1.4448  0.0229  0.7351
12656TIP3   OH259458   6.034   3.993  12.659  0.0248 -0.3876 -0.6772
12656TIP3    H159459   6.078   3.964  12.739 -0.1491 -2.0660 -1.1707
12656TIP3    H259460   6.072   4.079  12.641 -0.0830  0.0989  1.3202
12657TIP3   OH259461   6.400   3.925   0.035 -0.0525  0.4117 -0.0034
12657TIP3    H159462   6.437   3.879  -0.040 -0.5337 -0.5315  0.3295
12657TIP3    H259463   6.413   4.017   0.015  0.8878  0.1402 -0.7010
12658TIP3   OH259464   3.041   6.127   1.165  0.2441  0.2182 -0.3973
12658TIP3    H159465   2.948   6.139   1.145 -0.3092 -1.3720  1.1325
12658TIP3    H259466   3.081   6.105   1.081 -1.2151 -1.5525 -0.6671
12659TIP3   OH259467   4.942   3.761  12.709  0.1020  1.2528  0.2957
12659TIP3    H159468   5.031   3.744  12.678  0.0822 -0.9666  1.3681
12659TIP3    H259469   4.896   3.793  12.631  1.1270 -0.1794 -0.9317
12660TIP3   OH259470   0.840   4.537   1.085 -0.2928 -0.4680 -0.6634
12660TIP3    H159471   0.921   4.520   1.134 -0.3338  1.2508  0.0220
12660TIP3    H259472   0.811   4.450   1.058  0.8380 -1.2697  0.5953
12661TIP3   OH259473   6.711   2.624   5.617  0.0593  0.4430 -0.0733
12661TIP3    H159474   6.644   2.561   5.589 -0.9534  0.6768  1.7369
12661TIP3    H259475   6.732   2.674   5.537 -0.6382 -0.7874 -1.0519
12662TIP3   OH259476   4.977   1.731  17.098 -0.0446 -0.5330  0.1719
12662TIP3    H159477   5.045   1.678  17.055  0.5227 -0.5600  1.0853
12662TIP3    H259478   4.930   1.669  17.153 -0.1804 -0.3253  0.2862
12663TIP3   OH259479   1.706   1.794  13.781 -0.0533  0.1213 -0.5550
12663TIP3    H159480   1.668   1.747  13.707 -0.4198  0.2715 -0.4664
12663TIP3    H259481   1.795   1.760  13.788 -0.3596 -0.6652 -0.3999
12664TIP3   OH259482   4.061   5.428  14.056  0.2856  0.2623  0.1722
12664TIP3    H159483   4.122   5.360  14.086 -0.2614  0.2948  1.3637
12664TIP3    H259484   4.081   5.504  14.110  0.0505  0.6734 -0.3132
12665TIP3   OH259485   0.948   0.679  16.782  0.5081 -0.0902  0.3169
12665TIP3    H159486   0.930   0.585  16.787 -0.0878  0.0403  0.5961
12665TIP3    H259487   0.990   0.690  16.696 -2.0544 -0.1790 -0.9834
12666TIP3   OH259488   2.946   6.485  14.777 -0.7564  0.0504 -0.8710
12666TIP3    H159489   2.966   6.556  14.716  1.7933 -0.0479 -0.2267
12666TIP3    H259490   2.941   6.406  14.722  0.2925  0.1540 -1.1348
12667TIP3   OH259491   2.548   3.076   3.756 -0.1310  0.4655 -0.6273
12667TIP3    H159492   2.553   3.133   3.679  1.2131  0.3881 -0.6003
12667TIP3    H259493   2.603   3.001   3.735 -0.3287  0.0959  0.1266
12668TIP3   OH259494   3.571   6.244  14.410  0.0330 -0.0556  0.2478
12668TIP3    H159495   3.515   6.180  14.453 -0.0914  0.3076  0.6253
12668TIP3    H259496   3.512   6.291  14.351 -0.7295  2.4581  2.9478
12669TIP3   OH259497   3.620   3.809   0.657 -0.2477  0.0592  0.1332
12669TIP3    H159498   3.710   3.780   0.641 -0.5757 -2.1654  2.1529
12669TIP3    H259499   3.572   3.784   0.578  0.7917  0.8796 -0.7771
12670TIP3   OH259500   6.623   5.932   2.041 -0.2439 -0.4115 -0.0893
12670TIP3    H159501   6.707   5.960   2.005 -0.2369 -0.4834 -0.1264
12670TIP3    H259502   6.592   5.864   1.980  1.0341 -2.5003  1.5264
12671TIP3   OH259503   5.365   2.454  14.329 -0.1147  0.2674  0.1825
12671TIP3    H159504   5.293   2.517  14.327  0.7379  1.2396 -0.3384
12671TIP3    H259505   5.335   2.386  14.389 -3.3891 -1.6900 -3.4317
12672TIP3   OH259506   6.414   6.334  11.835 -0.3028 -0.3665  1.3708
12672TIP3    H159507   6.432   6.398  11.903 -1.0859 -0.1294  1.3633
12672TIP3    H259508   6.402   6.252  11.882 -0.6612 -0.2381  1.5056
12673TIP3   OH259509   3.705   6.201   2.716  0.4609  0.3372 -0.0626
12673TIP3    H159510   3.772   6.255   2.674  0.1202  0.2429 -0.7356
12673TIP3    H259511   3.626   6.218   2.666  0.0050  0.3583  0.6601
12674TIP3   OH259512   6.033   1.151   5.085  0.0312 -0.9124  0.1326
12674TIP3    H159513   6.102   1.212   5.112 -1.8130  0.9287  0.8632
12674TIP3    H259514   6.006   1.181   4.998 -0.6068 -0.9014  0.3251
12675TIP3   OH259515   3.732   4.419  12.294 -0.2523 -0.3555 -0.1233
12675TIP3    H159516   3.810   4.366  12.309 -1.3537 -1.3034  2.5426
12675TIP3    H259517   3.759   4.484  12.229  2.4596 -1.2704  0.0301
12676TIP3   OH259518   2.692   6.096   3.690  0.1003  0.4966  0.2041
12676TIP3    H159519   2.712   6.075   3.781  0.0909  0.0658  0.1106
12676TIP3    H259520   2.665   6.188   3.691  0.0944  0.4880  0.6355
12677TIP3   OH259521   3.727   2.915   0.343 -0.1852 -0.0519  0.1084
12677TIP3    H159522   3.693   2.854   0.278  0.5920  0.6698 -0.9915
12677TIP3    H259523   3.783   2.974   0.293 -0.2598  1.0373  1.2942
12678TIP3   OH259524   3.059   6.550  13.035  0.3967 -0.2337 -0.6038
12678TIP3    H159525   3.003   6.606  12.982 -2.2401 -1.0506  1.2287
12678TIP3    H259526   3.145   6.593  13.033 -0.8742  2.3778 -1.4555
12679TIP3   OH259527   0.949   5.841   2.367  0.2304 -0.0483  0.8191
12679TIP3    H159528   1.009   5.817   2.438  0.7787 -3.6555 -0.7481
12679TIP3    H259529   0.872   5.786   2.383 -0.2156  0.1792 -0.5632
12680TIP3   OH259530   0.274   5.543   0.506  0.6936 -0.6714 -0.1424
12680TIP3    H159531   0.179   5.531   0.495  0.8690 -1.0395 -1.2936
12680TIP3    H259532   0.312   5.500   0.430  1.7980 -0.5924  0.3654
12681TIP3   OH259533   5.941   0.547  14.144  0.2295  0.5225  0.2585
12681TIP3    H159534   5.963   0.619  14.086 -1.2621  0.2534 -0.6700
12681TIP3    H259535   5.898   0.483  14.088  0.2806 -0.4786  1.3361
12682TIP3   OH259536   3.308   0.500  12.141 -0.2924  0.4224 -0.1597
12682TIP3    H159537   3.353   0.492  12.225 -1.2573 -0.3418  0.3071
12682TIP3    H259538   3.222   0.460  12.157 -0.3998  0.0779 -1.5706
12683TIP3   OH259539   5.172   1.229   2.136 -0.0237 -0.0639 -0.4897
12683TIP3    H159540   5.175   1.154   2.196  0.9176 -0.1976 -0.6860
12683TIP3    H259541   5.231   1.205   2.064  1.5539  1.5086  0.2280
12684TIP3   OH259542   3.821   6.130   2.967  0.0403 -0.2985 -0.4024
12684TIP3    H159543   3.782   6.147   2.881 -0.8901 -0.1070  0.0465
12684TIP3    H259544   3.884   6.061   2.952 -0.7248 -0.8536 -1.0958
12685TIP3   OH259545   0.533   4.174   3.791  0.5616  0.1669  0.7948
12685TIP3    H159546   0.537   4.148   3.699  0.2330  1.6353  0.3593
12685TIP3    H259547   0.622   4.162   3.823  0.4240 -1.4896  0.6164
12686TIP3   OH259548   5.190   5.879   2.632  0.0185  0.1878  0.7714
12686TIP3    H159549   5.186   5.802   2.575  0.6990  0.3940  0.4341
12686TIP3    H259550   5.208   5.843   2.719 -2.1136 -0.2096  1.0749
12687TIP3   OH259551   3.883   4.323   2.902 -0.2540 -0.0919  0.3512
12687TIP3    H159552   3.891   4.410   2.863 -0.2839  0.4435  1.5376
12687TIP3    H259553   3.899   4.263   2.829  0.6528  0.9067 -0.2864
12688TIP3   OH259554   1.868   2.829   2.715  0.1861  0.0349 -0.2250
12688TIP3    H159555   1.940   2.774   2.685  1.2096  1.5050 -0.5590
12688TIP3    H259556   1.874   2.827   2.811 -0.2579 -1.0271 -0.2137
12689TIP3   OH259557   0.514   3.030   5.429 -0.1207  0.3771  0.2392
12689TIP3    H159558   0.457   3.005   5.356 -2.2984  0.0151  2.0069
12689TIP3    H259559   0.520   3.125   5.423 -0.0788  0.3302 -0.5554
12690TIP3   OH259560   6.187   4.195   5.452 -0.2687  0.3814 -0.9377
12690TIP3    H159561   6.236   4.144   5.516 -3.4020 -1.4055  0.1658
12690TIP3    H259562   6.205   4.153   5.368  1.2460  0.6832 -0.7649
12691TIP3   OH259563   5.200   0.515   6.174  0.3505 -0.0967  0.2365
12691TIP3    H159564   5.220   0.572   6.248 -0.8825  1.2463 -0.4541
12691TIP3    H259565   5.244   0.433   6.195 -0.0874  0.2254  2.5229
12692TIP3   OH259566   6.249   3.815   3.408  0.3347 -0.2117  0.1260
12692TIP3    H159567   6.255   3.737   3.353  0.2869 -0.3882  0.3725
12692TIP3    H259568   6.196   3.788   3.483  1.4085 -0.3203  0.8580
12693TIP3   OH259569   1.176   6.745  13.129  0.0518  0.2896  0.4850
12693TIP3    H159570   1.114   6.776  13.063 -0.4776  0.4195  1.0415
12693TIP3    H259571   1.253   6.801  13.118  0.0300  0.2009 -0.1304
12694TIP3   OH259572   5.501   4.153  13.010 -0.0789  0.1231 -0.5999
12694TIP3    H159573   5.486   4.154  12.915 -3.7560 -1.0227 -0.1050
12694TIP3    H259574   5.482   4.063  13.036  1.2192  0.3486  1.2109
12695TIP3   OH259575   4.141   2.090   4.674  0.3426  0.4571 -0.0310
12695TIP3    H159576   4.075   2.088   4.743  1.0701 -2.6843  0.6496
12695TIP3    H259577   4.222   2.114   4.718  0.6464 -0.7320  0.0603
12696TIP3   OH259578   4.715   5.394  13.612 -0.0935  0.0973  0.0660
12696TIP3    H159579   4.662   5.348  13.677 -1.0059  0.8950 -0.1060
12696TIP3    H259580   4.702   5.343  13.532 -0.6926  0.3458 -0.0002
12697TIP3   OH259581   6.625   3.915  14.201 -0.1204  0.1956  0.0590
12697TIP3    H159582   6.530   3.923  14.203 -0.2920 -1.6582  0.2339
12697TIP3    H259583   6.644   3.876  14.115  0.6837  2.7707 -0.9690
12698TIP3   OH259584   6.484   2.844  13.746  0.2985 -0.2972  0.6114
12698TIP3    H159585   6.550   2.818  13.682 -1.0520 -1.3052 -0.4273
12698TIP3    H259586   6.503   2.936  13.765  2.2655 -0.7153  0.7033
12699TIP3   OH259587   4.691   2.548  15.507  0.2809  0.4792 -0.0231
12699TIP3    H159588   4.672   2.457  15.529  0.2599  0.2653 -0.8966
12699TIP3    H259589   4.765   2.544  15.447 -0.6002  0.9352 -1.1708
12700TIP3   OH259590   0.463   4.452  13.466  0.3289  0.7975 -0.1872
12700TIP3    H159591   0.470   4.471  13.560 -0.5923  2.2321 -0.3869
12700TIP3    H259592   0.492   4.533  13.423  1.4784 -0.1147 -1.1563
12701TIP3   OH259593   2.398   3.121   0.850  0.5898  0.6090 -0.1251
12701TIP3    H159594   2.333   3.167   0.798  1.3021 -0.5522 -2.0612
12701TIP3    H259595   2.347   3.071   0.914 -0.3245  1.0383 -0.5133
12702TIP3   OH259596   2.959   5.778  15.688  0.4455  0.0134 -0.1180
12702TIP3    H159597   2.911   5.858  15.709 -1.7786 -1.1474 -0.5524
12702TIP3    H259598   2.951   5.769  15.593  0.7794 -0.6551 -0.0870
12703TIP3   OH259599   1.389   3.243   3.284  0.1670 -0.0905  0.1487
12703TIP3    H159600   1.423   3.175   3.225 -0.6059  3.6961 -5.0273
12703TIP3    H259601   1.465   3.298   3.301 -0.0568 -0.1035  1.1994
12704TIP3   OH259602   4.907   5.142   0.801 -0.1829  0.2420 -0.2560
12704TIP3    H159603   4.971   5.154   0.871  0.1793  0.5699 -0.6415
12704TIP3    H259604   4.904   5.226   0.756 -0.4472  0.0484 -0.6033
12705TIP3   OH259605   4.539   1.104   0.181  0.4431 -0.3094 -0.2189
12705TIP3    H159606   4.545   1.175   0.118 -0.7346  0.9979  1.1095
12705TIP3    H259607   4.629   1.077   0.195  1.0746  2.0629  0.5241
12706TIP3   OH259608   4.190   0.435  17.116 -0.0174  0.5481 -0.2214
12706TIP3    H159609   4.192   0.522  17.155 -1.2658  1.0774 -1.2933
12706TIP3    H259610   4.204   0.375  17.189 -2.1225  1.5323  1.0211
12707TIP3   OH259611   2.132   2.843   3.498  0.3220  0.2418 -0.8334
12707TIP3    H159612   2.084   2.824   3.417  0.0570 -2.7172 -0.0357
12707TIP3    H259613   2.215   2.796   3.489 -1.0050 -2.8894  1.8833
12708TIP3   OH259614   1.744   0.762   0.676 -0.0626  0.1631 -0.5807
12708TIP3    H159615   1.704   0.781   0.761 -0.6156  0.0214 -0.8072
12708TIP3    H259616   1.759   0.848   0.637  1.3065  0.2808  0.1619
12709TIP3   OH259617   1.771   5.298  16.600 -0.0825 -0.0164  0.3476
12709TIP3    H159618   1.693   5.308  16.654 -0.5657 -2.4172  0.1222
12709TIP3    H259619   1.770   5.207  16.572 -0.0745  1.1699 -4.0239
12710TIP3   OH259620   2.417   4.699   1.804 -0.3021 -0.0260  0.2159
12710TIP3    H159621   2.476   4.636   1.762 -1.3453  0.0840 -1.4520
12710TIP3    H259622   2.352   4.645   1.848  0.2672 -0.1313  0.9424
12711TIP3   OH259623   5.852   1.023   2.747  0.2693 -0.4365 -0.4679
12711TIP3    H159624   5.765   0.993   2.773  0.2168  0.7778  0.8028
12711TIP3    H259625   5.835   1.104   2.698  0.7391  0.2381  0.4917
12712TIP3   OH259626   0.482   3.280  12.676 -0.0833 -0.7589 -0.2207
12712TIP3    H159627   0.494   3.374  12.668  0.2402 -0.7877 -0.0537
12712TIP3    H259628   0.395   3.264  12.637 -0.5232 -0.2772  0.5592
12713TIP3   OH259629   5.153   4.581  14.313 -0.4215  0.5188  0.5623
12713TIP3    H159630   5.146   4.629  14.231 -1.1975  0.9975  0.9037
12713TIP3    H259631   5.244   4.551  14.316  0.0590  1.9066  0.3085
12714TIP3   OH259632   2.272   5.272  11.260  0.1183  0.0649  0.7307
12714TIP3    H159633   2.315   5.268  11.175 -0.8859  1.2317  0.1483
12714TIP3    H259634   2.180   5.252  11.241  0.1921 -1.4179  1.8120
12715TIP3   OH259635   5.341   2.995   2.827  0.4095  0.2265  0.0465
12715TIP3    H159636   5.435   3.000   2.843  0.3573 -1.2187  0.9198
12715TIP3    H259637   5.330   2.915   2.776 -0.0036  2.1146 -2.9727
12716TIP3   OH259638   5.966   5.896  12.607  0.0204 -0.2256 -0.3717
12716TIP3    H159639   5.997   5.847  12.683  0.9561 -0.3075 -0.7962
12716TIP3    H259640   5.945   5.829  12.543 -0.3597 -0.1388 -0.3408
12717TIP3   OH259641   2.209   1.275  14.456  0.5028 -0.3020 -0.4060
12717TIP3    H159642   2.148   1.349  14.459  2.2594  1.1978 -0.4927
12717TIP3    H259643   2.230   1.257  14.548  1.5810  0.5910 -0.4784
12718TIP3   OH259644   3.371   4.965  15.410  0.0077 -0.4209 -0.6417
12718TIP3    H159645   3.384   5.054  15.378  1.7394 -1.1069 -1.9424
12718TIP3    H259646   3.415   4.963  15.495  1.6128 -0.5513 -1.4704
12719TIP3   OH259647   5.958   4.384   2.182 -0.2257 -0.1230  0.1851
12719TIP3    H159648   5.922   4.311   2.131  0.3062 -0.1871 -0.1012
12719TIP3    H259649   6.045   4.354   2.208  0.1748  0.5891 -0.3168
12720TIP3   OH259650   4.365   4.182  16.564 -1.0076  0.7567 -0.2037
12720TIP3    H159651   4.413   4.214  16.487 -1.2149  2.4561  0.3626
12720TIP3    H259652   4.433   4.155  16.625 -0.8011  1.7035 -0.0154
12721TIP3   OH259653   6.502   2.165  16.066 -0.0649  0.4293  0.9709
12721TIP3    H159654   6.581   2.219  16.056 -1.4997  2.0126 -3.0795
12721TIP3    H259655   6.535   2.076  16.075  2.2396  0.7502 -3.0659
12722TIP3   OH259656   6.237   4.446  15.973 -0.3582  0.4217 -0.3484
12722TIP3    H159657   6.166   4.505  15.998 -0.5709 -0.7478  2.0374
12722TIP3    H259658   6.239   4.381  16.044  2.6057  0.0062 -0.7481
12723TIP3   OH259659   2.827   3.149   1.477  0.1193 -0.2496 -0.1263
12723TIP3    H159660   2.791   3.177   1.394  0.1806  1.9607  0.5677
12723TIP3    H259661   2.920   3.170   1.472  0.2970 -0.9187  0.1814
12724TIP3   OH259662   3.636   5.148  16.680  0.5196  0.2784 -0.3920
12724TIP3    H159663   3.662   5.059  16.703  0.5090  0.1745 -0.7874
12724TIP3    H259664   3.595   5.141  16.594  1.2855  0.7868 -0.8093
12725TIP3   OH259665   1.037   0.419   5.732 -0.1964 -0.0158  0.1184
12725TIP3    H159666   1.089   0.369   5.671 -1.7395 -0.0139 -1.2427
12725TIP3    H259667   1.054   0.511   5.709  0.1482  0.0106  0.4807
12726TIP3   OH259668   2.726   3.390  15.012  0.1274 -0.2169  0.0970
12726TIP3    H159669   2.684   3.323  15.065  0.6407 -1.6641 -1.2838
12726TIP3    H259670   2.744   3.347  14.928 -0.1221  1.8288 -1.0548
12727TIP3   OH259671   2.777   0.853   1.834  0.4227  0.0956  0.0485
12727TIP3    H159672   2.713   0.784   1.814  0.6366  0.1836 -0.9556
12727TIP3    H259673   2.828   0.863   1.753  1.2388  0.5264  0.6107
12728TIP3   OH259674   5.043   0.203  12.962  0.0134 -0.0411  0.3871
12728TIP3    H159675   4.948   0.194  12.968  0.1759 -0.1674  2.9682
12728TIP3    H259676   5.077   0.120  12.995  1.0628  0.7098  1.2207
12729TIP3   OH259677   4.613   6.677   5.618 -0.2567 -0.2898  0.1332
12729TIP3    H159678   4.518   6.690   5.628 -0.1893  0.2334  0.1109
12729TIP3    H259679   4.638   6.627   5.696 -0.9730 -2.6999 -1.1090
12730TIP3   OH259680   6.196   1.322   4.469  0.0042 -0.1899 -0.0351
12730TIP3    H159681   6.104   1.316   4.497 -0.6583  1.9141 -1.6133
12730TIP3    H259682   6.239   1.372   4.538 -1.0556  2.7316 -1.4282
12731TIP3   OH259683   5.314   5.510   0.729  0.3814  0.0743 -0.6440
12731TIP3    H159684   5.306   5.533   0.822 -0.5379 -4.1804  0.4256
12731TIP3    H259685   5.240   5.556   0.687 -1.0584 -0.4213  1.2616
12732TIP3   OH259686   2.770   2.855   4.567 -0.1206 -0.4934  0.1831
12732TIP3    H159687   2.747   2.864   4.660  0.4893 -0.7122  0.3605
12732TIP3    H259688   2.852   2.904   4.558 -0.6087  0.2203 -0.4235
12733TIP3   OH259689   2.223   1.923   2.458  0.1279  0.3179 -0.6694
12733TIP3    H159690   2.201   1.986   2.389  0.3783 -1.4946 -2.4592
12733TIP3    H259691   2.246   1.977   2.533 -2.0921  2.3431 -1.3597
12734TIP3   OH259692   4.578   2.974  15.466 -0.6463  0.3478 -0.6011
12734TIP3    H159693   4.594   2.950  15.375 -2.0998 -0.5066 -0.6384
12734TIP3    H259694   4.515   2.909  15.498 -2.9333  2.7550 -0.0480
12735TIP3   OH259695   2.981   0.765   4.750 -0.0421  0.2714 -0.0761
12735TIP3    H159696   2.964   0.709   4.675 -0.0551  0.8789 -0.5361
12735TIP3    H259697   3.057   0.726   4.793 -1.6231 -1.5904  1.1122
12736TIP3   OH259698   5.897   5.700   2.865  0.4735  0.1689  0.3542
12736TIP3    H159699   5.886   5.661   2.951  0.5558  0.4797  0.5049
12736TIP3    H259700   5.825   5.764   2.858  1.3223  1.1762  0.7667
12737TIP3   OH259701   4.104   4.030   3.617  0.1856 -0.1293 -0.2321
12737TIP3    H159702   4.027   4.053   3.669  1.1264  1.8541  0.3398
12737TIP3    H259703   4.069   4.001   3.533 -1.2008  1.1469 -0.1189
12738TIP3   OH259704   0.944   2.613  16.860  0.2318  0.6530 -0.2277
12738TIP3    H159705   0.899   2.663  16.927  0.4391  0.9758 -0.3288
12738TIP3    H259706   1.036   2.613  16.886  0.1894  0.0723 -0.0700
12739TIP3   OH259707   0.635   3.378   5.719 -0.2389 -0.1995  0.6656
12739TIP3    H159708   0.692   3.371   5.795 -0.0357  2.3464  0.8009
12739TIP3    H259709   0.574   3.305   5.727  1.3060 -1.3732  1.9526
12740TIP3   OH259710   3.343   5.573   5.434 -0.3441 -0.2495  0.5207
12740TIP3    H159711   3.268   5.561   5.492 -0.0421 -0.7724  0.8100
12740TIP3    H259712   3.317   5.532   5.352 -0.0159 -1.2969  0.9271
12741TIP3   OH259713   6.630   5.930  14.011  0.1190  0.4731 -0.2013
12741TIP3    H159714   6.701   5.995  14.021 -0.1875  0.8127 -0.2203
12741TIP3    H259715   6.578   5.963  13.939  0.7470 -0.5317 -1.1268
12742TIP3   OH259716   0.758   4.992   6.201 -0.0566 -0.1194 -0.2469
12742TIP3    H159717   0.778   4.965   6.111 -1.3851  1.0472 -0.9233
12742TIP3    H259718   0.697   4.925   6.233  1.8946 -1.5866  0.4806
12743TIP3   OH259719   1.966   3.078  14.727 -0.2166 -0.1979 -0.4295
12743TIP3    H159720   2.003   3.161  14.695  1.4171 -0.8699 -0.3528
12743TIP3    H259721   1.984   3.080  14.821 -3.2000  0.8604  0.1644
12744TIP3   OH259722   3.990   6.006  16.785  0.1454  0.6233  0.2615
12744TIP3    H159723   3.924   6.009  16.716 -1.6551  1.5060  1.9745
12744TIP3    H259724   4.038   5.924  16.769 -1.2684  0.0339 -1.0828
12745TIP3   OH259725   1.395   6.668   0.599  0.2532  0.2042  0.5350
12745TIP3    H159726   1.361   6.728   0.534 -0.5022  0.3148  1.0219
12745TIP3    H259727   1.325   6.604   0.613  1.1387 -0.9470 -0.1606
12746TIP3   OH259728   5.729   6.372  11.025  0.5423 -0.2384  0.1256
12746TIP3    H159729   5.660   6.334  11.080  0.7709 -0.5754  0.1757
12746TIP3    H259730   5.799   6.307  11.025  0.1358 -0.6890 -1.3900
12747TIP3   OH259731   1.149   4.487   5.235  0.1717  0.2388  0.0849
12747TIP3    H159732   1.080   4.420   5.235  1.1354 -0.7572 -0.9364
12747TIP3    H259733   1.109   4.561   5.281 -1.9429  0.0575 -1.3662
12748TIP3   OH259734   4.932   6.758  12.251  0.1247  0.2498  0.0415
12748TIP3    H159735   5.000   6.822  12.272  2.6844 -1.7235 -1.9237
12748TIP3    H259736   4.860   6.810  12.214 -0.1300  2.5384  3.5722
12749TIP3   OH259737   2.983   0.451  11.863 -0.2952 -0.1558  0.1199
12749TIP3    H159738   2.913   0.513  11.884 -1.0929 -0.8823 -0.3867
12749TIP3    H259739   2.974   0.382  11.929  0.0377 -0.1813  0.1377
12750TIP3   OH259740   0.097   2.272  17.193  0.4454  0.0005 -0.2293
12750TIP3    H159741   0.105   2.321  17.111  2.4863  0.1506  0.0374
12750TIP3    H259742   0.166   2.206  17.187 -0.3211 -0.8963  0.7555
12751TIP3   OH259743   5.353   4.223  11.806 -0.4760 -0.3082  0.0988
12751TIP3    H159744   5.286   4.171  11.760 -0.8180 -0.6435  0.9708
12751TIP3    H259745   5.422   4.235  11.741 -0.9478 -0.7999 -0.5020
12752TIP3   OH259746   3.548   4.609   4.592  0.0510 -0.1315  0.1708
12752TIP3    H159747   3.574   4.693   4.556  0.5873 -0.0374  0.7757
12752TIP3    H259748   3.457   4.621   4.618  0.1316  0.2659  0.2669
12753TIP3   OH259749   5.564   0.228  14.651 -0.0900  0.2186 -0.0089
12753TIP3    H159750   5.469   0.225  14.647 -0.1184  1.0772 -0.1312
12753TIP3    H259751   5.590   0.142  14.683 -0.7910 -0.9407 -2.3988
12754TIP3   OH259752   5.685   4.825  12.193  0.2011 -0.8482  0.4316
12754TIP3    H159753   5.760   4.768  12.212 -0.3395 -0.9390  2.4918
12754TIP3    H259754   5.640   4.784  12.120  1.0144 -1.9010  0.5141
12755TIP3   OH259755   5.302   0.341   0.474  0.5731  0.1702  0.7254
12755TIP3    H159756   5.288   0.377   0.561  0.0446  0.2660  0.5986
12755TIP3    H259757   5.236   0.383   0.419  1.5246  0.8228  0.0807
12756TIP3   OH259758   4.657   3.645   2.450 -0.5325  0.0078 -0.5309
12756TIP3    H159759   4.708   3.644   2.530 -1.5704  1.6599  0.1662
12756TIP3    H259760   4.704   3.704   2.392  0.5058 -1.5950 -1.3564
12757TIP3   OH259761   3.309   6.309   6.293  0.4358 -0.3404 -0.1462
12757TIP3    H159762   3.275   6.365   6.223 -0.4355  0.4557  0.9107
12757TIP3    H259763   3.402   6.331   6.298  0.4124 -0.0876 -0.7657
12758TIP3   OH259764   1.638   2.725   1.864  0.4340  0.4260  0.1026
12758TIP3    H159765   1.671   2.765   1.784  0.3592  0.6137  0.1632
12758TIP3    H259766   1.693   2.763   1.933  0.4123  0.3659  0.1528
12759TIP3   OH259767   3.967   3.424  10.803  0.2022  0.2767 -0.3439
12759TIP3    H159768   4.050   3.391  10.838  0.1186 -0.0831 -0.4829
12759TIP3    H259769   3.993   3.480  10.730  0.2040 -2.4426 -2.5131
12760TIP3   OH259770   0.378   6.731  12.143 -0.2150 -0.1309  0.0818
12760TIP3    H159771   0.438   6.683  12.200  0.7478 -0.0063 -0.8297
12760TIP3    H259772   0.352   6.667  12.077 -1.3099 -0.2640  0.6164
12761TIP3   OH259773   5.648   6.021  11.135 -0.8700 -0.0932  0.2488
12761TIP3    H159774   5.617   6.108  11.159  0.1842  1.0130 -2.1683
12761TIP3    H259775   5.736   6.016  11.173 -1.4970 -0.6770  1.6230
12762TIP3   OH259776   1.012   4.139   3.395 -0.2010  0.2265 -0.2202
12762TIP3    H159777   1.093   4.093   3.418 -0.4284 -1.3180 -2.3190
12762TIP3    H259778   1.041   4.224   3.363  0.5542 -0.0849 -0.3817
12763TIP3   OH259779   4.805   1.693   2.216 -0.2237 -0.4851 -0.2890
12763TIP3    H159780   4.736   1.758   2.231  1.1252  1.2981 -1.6239
12763TIP3    H259781   4.858   1.696   2.295 -2.4351 -2.9046  1.3707
12764TIP3   OH259782   5.438   5.877  15.291  0.2284  0.0715 -0.3374
12764TIP3    H159783   5.473   5.880  15.202  0.7396  2.8693 -0.0855
12764TIP3    H259784   5.492   5.813  15.336  1.4825  0.3353 -1.4330
12765TIP3   OH259785   2.514   2.886   6.139  0.0282  0.0550 -0.2486
12765TIP3    H159786   2.441   2.832   6.168 -0.6004  1.3626  0.6616
12765TIP3    H259787   2.568   2.898   6.217 -0.4903  1.7276 -0.1048
12766TIP3   OH259788   2.565   0.861  17.257 -0.4789  0.5102  0.1613
12766TIP3    H159789   2.506   0.937  17.250 -0.6847  0.4863  1.5193
12766TIP3    H259790   2.571   0.827  17.168 -1.8042  1.0657 -0.1527
12767TIP3   OH259791   1.657   4.238   3.593 -0.6352 -0.5052 -0.5034
12767TIP3    H159792   1.620   4.303   3.653 -0.2262 -1.8020  1.1895
12767TIP3    H259793   1.654   4.281   3.507  1.0733  2.3618  0.8022
12768TIP3   OH259794   5.155   5.071  15.433  0.8801 -0.5273  0.6686
12768TIP3    H159795   5.182   5.036  15.348 -0.9996  1.2213 -0.6813
12768TIP3    H259796   5.204   5.019  15.496  1.2116 -2.8573 -1.4165
12769TIP3   OH259797   5.038   0.953   4.877  0.8740 -0.2305  0.0713
12769TIP3    H159798   5.080   0.875   4.913  2.1246 -0.2424 -1.3689
12769TIP3    H259799   5.082   1.026   4.920  0.1832 -0.2798  0.8934
12770TIP3   OH259800   4.024   3.034   2.540  0.8254  0.0671 -0.3712
12770TIP3    H159801   3.987   3.015   2.454 -0.1987  0.7338 -0.0751
12770TIP3    H259802   4.004   3.126   2.555  0.9656 -0.0608  0.6084
12771TIP3   OH259803   3.319   1.770   3.027  0.5754 -0.3864 -0.1092
12771TIP3    H159804   3.230   1.786   3.060  1.2022  0.3044  1.2959
12771TIP3    H259805   3.325   1.823   2.948  0.4271  1.2428  0.9521
12772TIP3   OH259806   1.675   0.655   5.332  0.4167 -0.2456 -0.6084
12772TIP3    H159807   1.611   0.647   5.261  0.0096 -0.6522 -0.2003
12772TIP3    H259808   1.662   0.577   5.385  0.7957 -0.0007 -0.1471
12773TIP3   OH259809   6.214   3.088   4.445 -0.2855  0.5737  0.3854
12773TIP3    H159810   6.206   3.182   4.432  1.8237  0.6427 -0.6125
12773TIP3    H259811   6.152   3.050   4.382 -2.4698  1.2830  2.0262
12774TIP3   OH259812   1.361   2.436   2.684 -0.3636  0.3082  0.1449
12774TIP3    H159813   1.412   2.444   2.764 -0.1752 -1.5368  0.2107
12774TIP3    H259814   1.279   2.482   2.704 -0.2986 -0.0940  1.3711
12775TIP3   OH259815   4.799   2.068  14.031  0.2281 -0.2702  0.1022
12775TIP3    H159816   4.723   2.115  14.066 -0.1736 -0.0326 -1.0889
12775TIP3    H259817   4.866   2.080  14.098 -0.0693  1.4576  0.1164
12776TIP3   OH259818   1.819   3.772   4.113 -0.2141 -0.0407 -0.4805
12776TIP3    H159819   1.801   3.862   4.143 -3.9575  0.0371 -2.5785
12776TIP3    H259820   1.743   3.722   4.142  0.7630 -2.0575 -1.3098
12777TIP3   OH259821   3.146   6.499   2.752  0.0679 -0.0126 -0.2202
12777TIP3    H159822   3.202   6.565   2.712 -1.0517  1.1700  0.1299
12777TIP3    H259823   3.126   6.534   2.839  1.2173 -1.8214  0.8304
12778TIP3   OH259824   3.897   2.448   1.951 -0.2819  0.1239 -0.0101
12778TIP3    H159825   3.814   2.418   1.914  1.2268 -0.3579 -3.2203
12778TIP3    H259826   3.951   2.369   1.956  1.0076  0.9185 -0.9472
12779TIP3   OH259827   5.900   6.628   3.830  0.7893  0.4018 -0.0641
12779TIP3    H159828   5.897   6.547   3.779 -1.4080  0.3834  0.0151
12779TIP3    H259829   5.865   6.695   3.771 -2.1057  0.3169  1.4227
12780TIP3   OH259830   4.171   2.668  15.559 -0.1394 -0.2294 -0.9834
12780TIP3    H159831   4.103   2.735  15.568 -0.9472 -1.0144 -1.2011
12780TIP3    H259832   4.149   2.623  15.477  0.0841 -1.1095 -0.5623
12781TIP3   OH259833   0.295   3.614  11.743 -0.3534  0.4355  0.1721
12781TIP3    H159834   0.207   3.603  11.706 -0.0635  1.9450 -1.0061
12781TIP3    H259835   0.339   3.674  11.684  0.9132  1.0670  1.7105
12782TIP3   OH259836   1.502   5.843  16.716  0.2109 -0.3404  0.4886
12782TIP3    H159837   1.415   5.862  16.752  1.0488  0.1258  2.3133
12782TIP3    H259838   1.485   5.815  16.626 -1.9489 -1.4977  1.2250
12783TIP3   OH259839   4.535   4.198   5.518 -0.1730 -0.1833 -0.0363
12783TIP3    H159840   4.518   4.105   5.509 -2.4479  0.1180  0.7818
12783TIP3    H259841   4.603   4.204   5.584  0.3719 -1.2849 -0.4876
12784TIP3   OH259842   0.170   3.822  11.937 -0.0606  0.0404  0.5156
12784TIP3    H159843   0.168   3.753  11.870 -0.3105  0.0649  0.4952
12784TIP3    H259844   0.150   3.777  12.019  1.1601 -0.1398  0.7116
12785TIP3   OH259845   1.028   2.005  15.904 -0.4543 -0.0949  0.2551
12785TIP3    H159846   0.982   2.069  15.849  0.6799  1.4739  1.1097
12785TIP3    H259847   0.958   1.963  15.954 -1.1375  1.1993  0.4253
12786TIP3   OH259848   4.005   5.171  15.285 -0.6151 -0.2444  0.6973
12786TIP3    H159849   4.011   5.257  15.326  0.1551  1.1363 -2.2182
12786TIP3    H259850   4.033   5.110  15.354 -1.2813  1.7814  2.8307
12787TIP3   OH259851   4.880   1.655  12.897  0.3887  0.4876  0.7072
12787TIP3    H159852   4.975   1.651  12.883  0.2012  0.1036 -0.5478
12787TIP3    H259853   4.860   1.749  12.893  0.7942  0.6083  1.5237
12788TIP3   OH259854   4.107   4.372   5.406 -0.0769  0.2761  0.1119
12788TIP3    H159855   4.114   4.412   5.492 -1.0424  0.6401  0.0298
12788TIP3    H259856   4.027   4.410   5.368  1.4051  1.6424 -1.7342
12789TIP3   OH259857   5.644   5.890   0.528  0.1647 -0.2654  0.1441
12789TIP3    H159858   5.666   5.861   0.616  0.3991  2.2460  0.9609
12789TIP3    H259859   5.729   5.912   0.488  0.0686 -1.4815 -0.7503
12790TIP3   OH259860   2.776   0.873  12.419  0.2411 -0.4805  0.1733
12790TIP3    H159861   2.726   0.896  12.497 -0.6786 -0.4330 -0.4239
12790TIP3    H259862   2.806   0.784  12.435  0.8667 -0.1326  0.9867
12791TIP3   OH259863   3.410   6.605   6.913  0.5720  0.0305 -0.3702
12791TIP3    H159864   3.375   6.674   6.969 -1.4371 -0.2306 -1.2294
12791TIP3    H259865   3.446   6.652   6.837  0.0201  0.1967 -0.5341
12792TIP3   OH259866   0.555   4.846  15.280 -0.0632 -0.1052  0.0685
12792TIP3    H159867   0.572   4.938  15.262 -1.4926  0.4907  1.6090
12792TIP3    H259868   0.524   4.811  15.196 -2.4133  1.5697  0.1762
12793TIP3   OH259869   4.805   3.213   5.465 -0.4188 -0.1484 -0.0309
12793TIP3    H159870   4.801   3.247   5.555 -0.1557  2.2727 -0.8958
12793TIP3    H259871   4.898   3.210   5.445 -0.5586  1.8926 -1.1268
12794TIP3   OH259872   2.150   2.464  11.051 -0.6704 -0.7305  0.4996
12794TIP3    H159873   2.172   2.463  10.958 -1.0605 -0.8245  0.4061
12794TIP3    H259874   2.181   2.380  11.084 -0.3231 -0.5995  0.5041
12795TIP3   OH259875   0.795   4.985  11.669 -0.4712  0.8650 -0.4340
12795TIP3    H159876   0.873   4.974  11.615 -0.1536 -0.6343  0.3006
12795TIP3    H259877   0.784   4.900  11.712 -0.5148  2.1136  2.1111
12796TIP3   OH259878   3.888   2.455  14.428 -0.0124 -0.0934  0.2326
12796TIP3    H159879   3.922   2.514  14.360 -2.0256  1.8594  0.8713
12796TIP3    H259880   3.881   2.510  14.506 -1.3513 -1.3313  1.0119
12797TIP3   OH259881   1.161   5.828   2.543  0.1176 -0.1954 -0.4013
12797TIP3    H159882   1.201   5.764   2.484  0.5950 -0.4379  0.1818
12797TIP3    H259883   1.210   5.909   2.529  0.1485 -0.2183 -0.4226
12798TIP3   OH259884   5.969   6.391   3.142  0.2486 -0.4100  0.1400
12798TIP3    H159885   6.006   6.304   3.132  3.4835  0.7664  1.1315
12798TIP3    H259886   5.897   6.395   3.079  2.3899 -2.5187 -2.5110
12799TIP3   OH259887   4.429   6.438   1.830 -0.2211 -0.3985  0.0375
12799TIP3    H159888   4.424   6.517   1.775 -0.7352 -0.0312  0.6065
12799TIP3    H259889   4.507   6.450   1.883 -0.9846  0.3198  1.0180
12800TIP3   OH259890   3.957   6.266  14.733 -0.1680  0.3081 -0.1085
12800TIP3    H159891   4.026   6.331  14.744  0.0784  0.2841 -1.4238
12800TIP3    H259892   3.892   6.288  14.799  0.3486  1.3251  0.0612
12801TIP3   OH259893   2.746   1.736   3.930 -0.7123  0.0357 -0.7854
12801TIP3    H159894   2.749   1.818   3.881 -0.9301  1.6328  1.7829
12801TIP3    H259895   2.834   1.699   3.920 -0.1998  1.2525 -0.8818
12802TIP3   OH259896   0.570   2.551  16.450 -0.8682 -0.0895 -0.5348
12802TIP3    H159897   0.646   2.545  16.508 -2.1756 -0.8411  1.1346
12802TIP3    H259898   0.527   2.466  16.458 -1.7365  0.2326 -1.6846
12803TIP3   OH259899   4.621   4.316   4.373 -0.0243 -0.1635  0.2546
12803TIP3    H159900   4.715   4.298   4.372 -0.0334 -0.2007 -1.5878
12803TIP3    H259901   4.615   4.407   4.402  0.6092 -0.0756  0.1178
12804TIP3   OH259902   6.645   0.325  13.471 -0.5036  0.3684 -0.3339
12804TIP3    H159903   6.567   0.344  13.523  0.6386 -0.2332  1.6374
12804TIP3    H259904   6.642   0.230  13.457  0.1081  0.2789  0.1322
12805TIP3   OH259905   4.927   2.228  15.026 -0.4833  0.1963 -0.7142
12805TIP3    H159906   5.016   2.260  15.041 -1.3632  2.3244  0.1935
12805TIP3    H259907   4.934   2.133  15.035  2.1570  0.0791 -3.2119
12806TIP3   OH259908   0.217   1.954   3.646  0.8186  0.1328 -0.4014
12806TIP3    H159909   0.176   1.873   3.675 -1.4640  0.5573 -2.2664
12806TIP3    H259910   0.307   1.949   3.678  0.9198 -3.4462 -1.0732
12807TIP3   OH259911   0.835   4.154  16.688 -0.1327 -0.2945 -0.2438
12807TIP3    H159912   0.782   4.209  16.631  0.8390  0.3996 -0.4908
12807TIP3    H259913   0.874   4.215  16.751 -2.1077 -1.1932  1.9052
12808TIP3   OH259914   6.681   1.773   1.828  0.0153  0.3262 -0.6898
12808TIP3    H159915   6.628   1.737   1.757  2.9695  0.3116 -2.9566
12808TIP3    H259916   6.770   1.747   1.808  0.8881 -0.0401  3.3143
12809TIP3   OH259917   4.127   6.318  15.641 -0.3947  0.2368 -0.4456
12809TIP3    H159918   4.134   6.318  15.737  0.4038  2.4247 -0.4665
12809TIP3    H259919   4.190   6.252  15.613  0.6140  0.7626  0.5014
12810TIP3   OH259920   5.802   5.473  16.820  0.4252  0.0951  0.0817
12810TIP3    H159921   5.791   5.378  16.817 -2.2831  0.3752  0.2855
12810TIP3    H259922   5.873   5.487  16.882  1.9332 -1.8602 -1.1515
12811TIP3   OH259923   3.080   1.365  14.710 -0.8119  0.2960 -1.2173
12811TIP3    H159924   3.035   1.450  14.712 -0.7285  0.3402 -1.2146
12811TIP3    H259925   3.163   1.383  14.667 -0.8742  0.1761 -1.3869
12812TIP3   OH259926   2.152   6.558  13.007  0.7453  0.1806  0.2276
12812TIP3    H159927   2.066   6.570  13.047  0.5739  1.9496 -0.6109
12812TIP3    H259928   2.138   6.581  12.915  1.9162 -0.4059 -0.1029
12813TIP3   OH259929   1.292   1.931   3.721 -0.4569  0.1020  0.0657
12813TIP3    H159930   1.248   1.992   3.780  0.1752 -3.3406  4.4123
12813TIP3    H259931   1.384   1.934   3.747 -0.2530 -1.9051 -0.2951
12814TIP3   OH259932   2.737   2.430  12.575  0.2635  0.2307  0.3360
12814TIP3    H159933   2.739   2.432  12.671  1.0500  1.1804  0.3106
12814TIP3    H259934   2.645   2.414  12.553  0.2378 -0.9360  1.2582
12815TIP3   OH259935   0.037   4.790   4.079  0.0960 -0.0097  0.0301
12815TIP3    H159936  -0.026   4.778   4.151  0.8729 -0.5782  0.6233
12815TIP3    H259937   0.097   4.717   4.088  0.1720 -0.1027 -1.2446
12816TIP3   OH259938   2.823   5.660   5.210 -0.5215  0.0270  0.6703
12816TIP3    H159939   2.781   5.746   5.204  0.9406  0.8716  2.1758
12816TIP3    H259940   2.833   5.632   5.119 -2.6015  0.6542  0.2234
12817TIP3   OH259941   3.787   3.400  17.088  0.0848  0.2702  0.2729
12817TIP3    H159942   3.775   3.308  17.064 -0.6435 -0.3477  2.8124
12817TIP3    H259943   3.698   3.433  17.101  0.4528  0.0070  3.9060
12818TIP3   OH259944   2.066   6.127  16.585  0.4106  0.0340 -0.4371
12818TIP3    H159945   2.070   6.086  16.499  1.1724 -1.1853  0.1584
12818TIP3    H259946   2.110   6.065  16.643  1.1344  1.4847  0.5865
12819TIP3   OH259947   1.619   0.806  13.073  0.3845  0.4127 -0.5237
12819TIP3    H159948   1.644   0.898  13.082  1.6080 -0.1105  1.6726
12819TIP3    H259949   1.527   0.804  13.097  0.3674  1.0595 -0.5189
12820TIP3   OH259950   5.596   4.592  13.491 -0.5201  0.2017 -0.6369
12820TIP3    H159951   5.518   4.639  13.519  0.5834  2.4924 -1.2544
12820TIP3    H259952   5.658   4.604  13.563  0.1838  0.7679 -1.3268
12821TIP3   OH259953   1.831   4.448  12.746 -0.0843  0.1906  0.2162
12821TIP3    H159954   1.790   4.450  12.659  1.8141  0.0153 -0.7194
12821TIP3    H259955   1.768   4.404  12.802 -0.9402 -0.5517 -1.3026
12822TIP3   OH259956   1.613   0.933  14.465 -0.5813 -0.5858  0.0894
12822TIP3    H159957   1.624   0.901  14.554  1.7988  0.4838  0.2124
12822TIP3    H259958   1.696   0.915  14.422 -0.2545  2.4839 -0.7275
12823TIP3   OH259959   3.919   0.537  16.570 -0.1371 -0.0934 -0.1035
12823TIP3    H159960   3.859   0.575  16.634 -3.1821 -2.5966 -1.3286
12823TIP3    H259961   3.968   0.471  16.619 -0.4987 -0.0921  0.2591
12824TIP3   OH259962   6.801   1.365  16.826 -0.5711  0.1711 -0.1562
12824TIP3    H159963   6.763   1.383  16.912 -0.3192  0.1760 -0.0461
12824TIP3    H259964   6.873   1.305  16.844 -0.0052  0.8224 -0.2792
12825TIP3   OH259965   4.513   4.475  10.889  0.2223  0.1846  0.1252
12825TIP3    H159966   4.565   4.555  10.879  0.3151  0.6390  3.4183
12825TIP3    H259967   4.573   4.404  10.870  0.1171  0.8506 -2.9485
12826TIP3   OH259968   3.400   5.729   2.115  0.1775 -0.1338 -0.1907
12826TIP3    H159969   3.454   5.650   2.106  0.7240  0.1162  0.8969
12826TIP3    H259970   3.323   5.700   2.164  0.7269  0.1643  0.8615
12827TIP3   OH259971   6.524   3.741  14.698  0.2350 -0.0576  0.3457
12827TIP3    H159972   6.560   3.659  14.666 -1.2272 -0.4300 -0.3835
12827TIP3    H259973   6.533   3.736  14.793  2.8179  0.2145  0.1560
12828TIP3   OH259974   6.810   5.205  11.278  0.3749  0.4519  0.0772
12828TIP3    H159975   6.869   5.269  11.317  1.0151 -0.2677  0.3123
12828TIP3    H259976   6.861   5.124  11.277  0.5823  0.5767 -2.7575
12829TIP3   OH259977   2.184   0.759   1.914  0.2643  0.2277 -0.1369
12829TIP3    H159978   2.096   0.789   1.891  0.6479  1.7491  0.3083
12829TIP3    H259979   2.169   0.691   1.981 -0.5682  0.5819  0.0485
12830TIP3   OH259980   0.554   1.955   1.743  0.1409  0.5409 -0.2134
12830TIP3    H159981   0.510   2.037   1.723  1.1861  0.4918 -2.8770
12830TIP3    H259982   0.505   1.889   1.694  0.2768 -0.1945  0.6307
12831TIP3   OH259983   0.786   4.482   4.668  0.1871  0.3710 -0.0934
12831TIP3    H159984   0.850   4.428   4.714 -1.2854 -0.7938  0.6173
12831TIP3    H259985   0.726   4.512   4.737 -0.1708  1.2573 -0.7820
12832TIP3   OH259986   2.185   0.592  17.006  0.2771 -0.4100 -0.4116
12832TIP3    H159987   2.142   0.546  17.078 -0.9978  0.6020 -0.5033
12832TIP3    H259988   2.137   0.566  16.928  0.2211  0.2288 -0.5967
12833TIP3   OH259989   5.194   4.315  12.871 -0.4208 -0.6410 -0.0969
12833TIP3    H159990   5.263   4.249  12.858  1.9292  1.6051  0.5938
12833TIP3    H259991   5.193   4.365  12.789 -1.0872 -0.4904 -0.0020
12834TIP3   OH259992   6.243   2.556  12.299 -0.0029  0.1285 -0.3679
12834TIP3    H159993   6.169   2.522  12.348  0.4392  0.2482  0.3904
12834TIP3    H259994   6.287   2.616  12.360 -0.1816  1.2684 -1.3334
12835TIP3   OH259995   2.461   3.993   2.038  0.3080 -0.3124 -0.1768
12835TIP3    H159996   2.432   3.995   2.129  2.7983 -1.7123  0.6774
12835TIP3    H259997   2.380   3.979   1.988 -1.1967  1.3315  1.7137
12836TIP3   OH259998   5.547   5.636   1.270  0.8090  0.1275  0.2465
12836TIP3    H159999   5.583   5.724   1.286  0.5932  0.1698  0.5011
12836TIP3    H260000   5.454   5.644   1.292  0.9887 -0.4177  1.2503
12837TIP3   OH260001   0.562   5.423   4.730  0.1886  0.3228  0.3274
12837TIP3    H160002   0.547   5.337   4.690  0.8145  0.7879 -0.9215
12837TIP3    H260003   0.490   5.433   4.793 -0.7928 -0.4246 -0.6661
12838TIP3   OH260004   4.489   2.398   6.388  0.0244 -0.1290  0.4214
12838TIP3    H160005   4.468   2.305   6.395 -2.4086  0.3836  0.2507
12838TIP3    H260006   4.527   2.420   6.473 -0.7027 -0.9629  0.9726
12839TIP3   OH260007   0.364   3.139  17.166 -0.3324  0.5851  0.7979
12839TIP3    H160008   0.341   3.132  17.073 -1.3839  1.6558  0.9684
12839TIP3    H260009   0.294   3.093  17.212 -0.1301  0.5813  1.1050
12840TIP3   OH260010   2.023   6.286   0.274  0.7063  0.2940 -0.0438
12840TIP3    H160011   1.991   6.258   0.188  3.1072 -1.6047 -0.3350
12840TIP3    H260012   1.992   6.377   0.281  1.3019  0.8451 -3.3428
12841TIP3   OH260013   0.136   1.986  14.622 -0.4412  0.0561  0.2528
12841TIP3    H160014   0.201   1.968  14.554 -1.5709  0.0446 -0.8292
12841TIP3    H260015   0.114   2.079  14.611 -0.7543  0.0127  0.4965
12842TIP3   OH260016   2.701   0.988  11.136 -0.1752  0.3487 -0.0977
12842TIP3    H160017   2.643   0.920  11.102 -1.3170  1.7913 -1.1004
12842TIP3    H260018   2.789   0.957  11.114 -0.8098  0.6261 -3.3566
12843TIP3   OH260019   3.659   1.240  13.651  0.1352  0.1097  0.2289
12843TIP3    H160020   3.742   1.249  13.604 -0.6509 -2.0961 -1.6460
12843TIP3    H260021   3.593   1.274  13.590 -0.5852 -0.1666  0.8461
12844TIP3   OH260022   6.416   5.113  12.007  0.4016  0.3767  0.4009
12844TIP3    H160023   6.428   5.056  12.082 -0.4454  2.0078  1.8111
12844TIP3    H260024   6.495   5.169  12.007  2.3506 -2.2242 -2.3274
12845TIP3   OH260025   1.700   5.212   3.324  0.2151  0.2176 -0.2436
12845TIP3    H160026   1.668   5.125   3.349  0.1042 -0.0373 -1.2472
12845TIP3    H260027   1.695   5.213   3.228 -3.5066  2.7493 -0.0995
12846TIP3   OH260028   2.732   6.756   2.711  0.4017  0.4014 -0.3236
12846TIP3    H160029   2.750   6.687   2.775 -0.1010  1.6507  1.2279
12846TIP3    H260030   2.798   6.823   2.729 -0.1007  1.0137 -0.7297
12847TIP3   OH260031   2.077   1.914  16.225 -0.2991 -0.2647  0.1935
12847TIP3    H160032   2.055   1.870  16.307  1.1485 -1.6865 -0.1424
12847TIP3    H260033   2.161   1.876  16.200 -0.6251  0.2960 -1.8482
12848TIP3   OH260034   0.347   0.467  13.576  0.0272  0.2341 -0.2279
12848TIP3    H160035   0.255   0.440  13.575  0.5886 -1.9771  2.2883
12848TIP3    H260036   0.348   0.547  13.630 -0.6269  1.2194 -1.6535
12849TIP3   OH260037   3.435   4.086  14.694  0.2193 -0.0842 -0.2975
12849TIP3    H160038   3.434   4.002  14.739  2.0138 -0.6444 -1.2549
12849TIP3    H260039   3.368   4.077  14.626 -0.0413 -0.4903  0.0071
12850TIP3   OH260040   1.720   5.857   1.648 -0.8276 -0.2539  0.1784
12850TIP3    H160041   1.677   5.882   1.566  0.7955 -1.8469 -1.2170
12850TIP3    H260042   1.717   5.762   1.648  2.4016 -0.4335  0.1278
12851TIP3   OH260043   6.178   2.127  14.789 -0.4477 -0.0499 -0.1595
12851TIP3    H160044   6.268   2.143  14.819 -0.0929  0.9939 -1.6915
12851TIP3    H260045   6.146   2.213  14.763 -1.3273 -0.6579 -1.1393
12852TIP3   OH260046   4.582   1.971  12.926  0.0541 -0.2703  0.5443
12852TIP3    H160047   4.551   1.920  12.851 -0.9530 -1.2400  1.6017
12852TIP3    H260048   4.542   1.929  13.002  0.5484  1.0918  1.5806
12853TIP3   OH260049   2.009   5.649   3.180  0.4527  0.4291  0.3615
12853TIP3    H160050   2.057   5.614   3.105  1.4884 -1.1881  1.7644
12853TIP3    H260051   2.076   5.666   3.246 -0.4318  2.0243  0.8761
12854TIP3   OH260052   1.582   1.615  17.267 -0.3980  0.6749 -0.3278
12854TIP3    H160053   1.659   1.605  17.322 -0.0626 -0.9610 -1.0795
12854TIP3    H260054   1.508   1.598  17.326 -0.1165  0.6438  0.0155
12855TIP3   OH260055   5.095   4.969   5.665 -1.2516  0.7465 -0.2171
12855TIP3    H160056   5.172   4.959   5.722 -1.1072  0.1130 -0.5243
12855TIP3    H260057   5.057   4.882   5.659 -2.5944  1.2506  0.7595
12856TIP3   OH260058   1.564   4.015  12.783 -0.1836 -0.1582 -0.1789
12856TIP3    H160059   1.474   4.024  12.752  0.0484  0.2541 -0.7407
12856TIP3    H260060   1.612   3.983  12.707  0.4465  1.1466 -0.3468
12857TIP3   OH260061   0.601   5.166   1.157  0.6223 -0.2405  0.3128
12857TIP3    H160062   0.620   5.095   1.218 -0.2734 -1.6299 -1.0078
12857TIP3    H260063   0.685   5.212   1.147  1.0030 -0.5817  1.8093
12858TIP3   OH260064   4.701   4.366   3.112  0.5553 -0.0441 -0.5654
12858TIP3    H160065   4.697   4.390   3.019  0.9745 -0.8583 -0.7957
12858TIP3    H260066   4.703   4.450   3.158 -0.8571  0.3741 -1.2290
12859TIP3   OH260067   1.728   3.641   5.000  0.4202  0.0918  1.0743
12859TIP3    H160068   1.758   3.558   5.038 -1.8539 -0.3213  2.0490
12859TIP3    H260069   1.661   3.616   4.937  1.0600  1.0837 -0.0062
12860TIP3   OH260070   3.104   5.947  17.154  0.3011 -0.0259  0.0724
12860TIP3    H160071   3.140   5.981  17.236  0.2261 -0.1904  0.1732
12860TIP3    H260072   3.009   5.953  17.166  0.2876  0.9639 -0.4127
12861TIP3   OH260073   6.652   1.848   0.207  0.0999 -0.4111 -0.5324
12861TIP3    H160074   6.702   1.795   0.269 -0.6319  0.3143  0.6896
12861TIP3    H260075   6.708   1.854   0.129  2.1326  0.8437  0.9978
12862TIP3   OH260076   3.509   6.307  15.934  0.5184 -0.1298  0.0494
12862TIP3    H160077   3.564   6.385  15.931  0.1890  0.2406  2.9807
12862TIP3    H260078   3.570   6.235  15.951  0.5711 -0.2563 -0.6562
12863TIP3   OH260079   5.630   5.594   4.452  0.0351  0.5176  0.7598
12863TIP3    H160080   5.693   5.620   4.384 -0.5863  0.4486  0.1594
12863TIP3    H260081   5.681   5.539   4.511  0.6412  0.7797  0.4895
12864TIP3   OH260082   3.532   2.897   2.355  0.1759  0.0284  0.2348
12864TIP3    H160083   3.609   2.941   2.319  0.2482  0.2487  0.6513
12864TIP3    H260084   3.529   2.926   2.447  1.2972 -2.2741  1.0273
12865TIP3   OH260085   3.554   2.129   0.322  0.0257 -0.2500 -0.1658
12865TIP3    H160086   3.552   2.140   0.417  0.4196  0.6658 -0.2607
12865TIP3    H260087   3.607   2.202   0.290  0.6918 -1.0814 -1.0092
12866TIP3   OH260088   6.538   0.214  11.867 -0.2938 -0.7548 -0.4235
12866TIP3    H160089   6.540   0.168  11.951 -0.6624 -0.9416 -0.5187
12866TIP3    H260090   6.557   0.146  11.802  0.7601 -0.4654 -0.4261
12867TIP3   OH260091   5.454   6.327  16.642 -0.2591  0.0758  0.5582
12867TIP3    H160092   5.523   6.262  16.632 -1.6860 -1.2545 -0.8693
12867TIP3    H260093   5.438   6.331  16.737  1.9372  0.6015  0.9227
12868TIP3   OH260094   4.655   3.579  17.211  0.1835  0.6870 -0.7394
12868TIP3    H160095   4.588   3.511  17.222 -1.3144  2.0990 -0.8614
12868TIP3    H260096   4.737   3.531  17.205 -0.6815 -1.0458  0.5975
12869TIP3   OH260097   2.455   0.074   4.972 -0.8211  0.0608 -0.2707
12869TIP3    H160098   2.401   0.152   4.981 -0.3994  0.4051 -0.7292
12869TIP3    H260099   2.457   0.036   5.060  1.4219  2.1719  0.6434
12870TIP3   OH260100   4.873   0.468   6.370  0.7538  0.1966 -0.0688
12870TIP3    H160101   4.830   0.382   6.372 -0.6221  0.8913  1.8873
12870TIP3    H260102   4.877   0.491   6.278  0.1696 -1.4886 -0.5398
12871TIP3   OH260103   6.346   3.974  11.454 -0.1164 -1.1888 -0.0610
12871TIP3    H160104   6.305   4.003  11.536  0.7844 -0.2168  0.0662
12871TIP3    H260105   6.355   4.055  11.403 -2.1565 -2.0353 -1.7938
12872TIP3   OH260106   4.354   1.871  16.707 -0.1330  0.9077 -0.0245
12872TIP3    H160107   4.338   1.881  16.800 -0.3624  0.3478 -0.0048
12872TIP3    H260108   4.314   1.788  16.684  1.1826  0.3462 -0.3374
12873TIP3   OH260109   6.614   1.818  16.907 -0.0743 -0.2814  0.3571
12873TIP3    H160110   6.540   1.877  16.922  2.1435  2.6844  0.1944
12873TIP3    H260111   6.648   1.801  16.995  0.0527 -0.2727  0.3081
12874TIP3   OH260112   5.249   2.416   0.975  0.1507  0.3625 -0.2524
12874TIP3    H160113   5.319   2.384   1.031 -1.9119 -0.8625  1.6906
12874TIP3    H260114   5.230   2.344   0.916  0.1637  0.4979 -0.4225
12875TIP3   OH260115   2.367   4.050  17.151  0.3100 -0.1255  0.0135
12875TIP3    H160116   2.387   4.057  17.245 -0.0980  0.3044  0.0707
12875TIP3    H260117   2.290   3.993  17.147  0.2932 -0.0984 -0.0572
12876TIP3   OH260118   0.110   0.825  11.131 -0.1106 -0.1439 -0.1502
12876TIP3    H160119   0.023   0.787  11.133 -0.2519  0.2491  1.6462
12876TIP3    H260120   0.120   0.869  11.215  2.0528 -0.6993 -0.0718
12877TIP3   OH260121   2.867   0.177  16.856  0.2941  0.1588  0.4846
12877TIP3    H160122   2.935   0.128  16.810 -0.2824 -0.4810  0.3100
12877TIP3    H260123   2.877   0.267  16.823  0.5259 -0.0933 -0.1484
12878TIP3   OH260124   4.665   1.024  13.279  0.0898  0.1991 -0.7323
12878TIP3    H160125   4.679   0.936  13.315 -0.5154  0.1903 -0.5110
12878TIP3    H260126   4.608   1.067  13.343  0.4732  0.7916 -0.7863
12879TIP3   OH260127   4.820   3.152   3.990  0.1905 -0.3206  0.0583
12879TIP3    H160128   4.746   3.185   3.940 -0.1043 -0.5555  0.3420
12879TIP3    H260129   4.891   3.147   3.926 -0.0978 -0.3148 -0.2640
12880TIP3   OH260130   0.801   1.937   0.449 -0.1831 -0.3073  0.2929
12880TIP3    H160131   0.836   1.882   0.380  0.8793  0.7984 -0.0670
12880TIP3    H260132   0.751   2.004   0.403 -0.0781  0.0070  0.6331
12881TIP3   OH260133   0.466   4.756   4.526  0.3238 -0.2147  0.8415
12881TIP3    H160134   0.450   4.690   4.459 -0.4560  0.5555  0.2619
12881TIP3    H260135   0.383   4.761   4.575 -0.0582  1.2316  0.0831
12882TIP3   OH260136   6.211   5.340  16.111 -0.3289  0.0704  0.5250
12882TIP3    H160137   6.213   5.256  16.157 -1.5323  0.5962  1.5631
12882TIP3    H260138   6.118   5.357  16.096 -0.0059  0.3021 -1.4159
12883TIP3   OH260139   1.986   0.786  11.336 -0.2310 -0.1157 -0.3114
12883TIP3    H160140   2.061   0.736  11.304 -0.0990  0.5834 -1.0986
12883TIP3    H260141   1.972   0.753  11.425  1.0568 -0.1915 -0.1273
12884TIP3   OH260142   2.632   4.277  13.995 -0.4974 -0.5687  0.4509
12884TIP3    H160143   2.649   4.340  13.924  0.0923 -2.3537 -1.0338
12884TIP3    H260144   2.711   4.279  14.048 -0.1007 -0.7203 -0.1227
12885TIP3   OH260145   3.086   3.944   3.168  0.1776  0.1799  0.2472
12885TIP3    H160146   3.020   3.965   3.234  1.0539 -0.7562  1.4435
12885TIP3    H260147   3.043   3.881   3.110  0.6705 -1.9792  2.1963
12886TIP3   OH260148   0.279   0.631  16.876 -0.1649  0.7864  0.3583
12886TIP3    H160149   0.231   0.558  16.913  0.1197  0.3651 -0.1016
12886TIP3    H260150   0.214   0.681  16.827 -0.0531 -0.0183 -0.6221
12887TIP3   OH260151   3.656   2.354   5.680  0.3370  0.3074  1.3231
12887TIP3    H160152   3.612   2.273   5.653 -0.2044  0.4364  1.7998
12887TIP3    H260153   3.638   2.361   5.774  0.8183  0.7106  1.3868
12888TIP3   OH260154   1.138   0.716   3.225  0.3714  0.2698 -0.1597
12888TIP3    H160155   1.179   0.784   3.279  0.0834 -0.3902  0.8886
12888TIP3    H260156   1.202   0.699   3.155  2.5437 -1.7531  2.2401
12889TIP3   OH260157   2.317   5.722   5.927 -0.2465 -0.0046  0.2454
12889TIP3    H160158   2.298   5.658   5.995  1.5578 -1.0569 -0.2062
12889TIP3    H260159   2.390   5.774   5.961 -0.8021  0.9297  0.0417
12890TIP3   OH260160   0.894   1.318   3.250 -0.1998 -0.5009 -0.2142
12890TIP3    H160161   0.949   1.331   3.327 -0.3634 -2.0243  0.1761
12890TIP3    H260162   0.856   1.231   3.262 -0.8457 -0.4313 -1.6363
12891TIP3   OH260163   6.104   3.852  14.925  0.0616 -0.1515  0.1594
12891TIP3    H160164   6.152   3.775  14.894  0.1487  0.3414 -0.9729
12891TIP3    H260165   6.161   3.926  14.902 -0.3160  0.2959  0.6601
12892TIP3   OH260166   3.116   2.096  10.992 -0.1933 -0.3460 -0.3816
12892TIP3    H160167   3.176   2.105  10.919  1.7441  1.1958  1.3417
12892TIP3    H260168   3.135   2.009  11.029  0.1305 -0.3589 -0.5806
12893TIP3   OH260169   3.004   0.060  12.673  0.4028 -0.1059  1.6688
12893TIP3    H160170   3.079   0.054  12.732  0.3506  1.0086  1.8699
12893TIP3    H260171   3.040   0.094  12.591  0.1222  0.4943  1.7874
12894TIP3   OH260172   2.270   2.947   1.071  0.0894 -0.3038 -0.3556
12894TIP3    H160173   2.274   2.883   1.000 -2.0719 -0.8386 -0.0391
12894TIP3    H260174   2.227   2.901   1.143  0.8295  0.7215  0.7653
12895TIP3   OH260175   5.455   1.044  16.611  0.2043  0.3384  0.0591
12895TIP3    H160176   5.443   1.051  16.516  1.0542  0.5771 -0.0343
12895TIP3    H260177   5.483   0.954  16.625 -2.3455 -0.4489  0.3614
12896TIP3   OH260178   2.058   1.146   5.450  0.7571 -0.0650  0.0330
12896TIP3    H160179   2.100   1.145   5.536  2.1918 -1.9097 -0.6685
12896TIP3    H260180   2.031   1.055   5.436 -1.0595  0.5628 -0.7233
12897TIP3   OH260181   5.357   1.466   1.349 -0.2645  0.4032 -0.2478
12897TIP3    H160182   5.341   1.376   1.379  0.7242  0.1094 -0.5898
12897TIP3    H260183   5.333   1.521   1.423  0.6318 -0.2281  0.5158
12898TIP3   OH260184   4.958   2.311  16.229 -0.4379 -0.6019  0.0398
12898TIP3    H160185   4.876   2.329  16.182 -0.3656  0.2628  0.2286
12898TIP3    H260186   4.935   2.242  16.291 -1.1827  0.0278  0.4873
12899TIP3   OH260187   4.804   2.664   5.990 -0.1616  0.0311  0.4802
12899TIP3    H160188   4.753   2.744   5.999  0.1837  0.0413  2.3799
12899TIP3    H260189   4.889   2.684   6.029  0.4521 -0.7944 -0.3872
12900TIP3   OH260190   2.641   2.510  17.098 -0.0363 -0.0625 -0.1290
12900TIP3    H160191   2.616   2.478  17.011 -0.2630  0.0675 -0.1149
12900TIP3    H260192   2.628   2.436  17.156 -0.3959  0.0042 -0.1224
12901TIP3   OH260193   3.413   3.125  11.868 -0.0099 -0.6832 -0.5194
12901TIP3    H160194   3.355   3.183  11.917 -0.0668 -1.7168  0.6544
12901TIP3    H260195   3.485   3.181  11.840 -0.8781  0.3025 -0.7785
12902TIP3   OH260196   4.171   3.760   0.702  0.3472  0.3831 -0.3422
12902TIP3    H160197   4.079   3.784   0.692 -0.7045 -2.9218  0.6644
12902TIP3    H260198   4.210   3.775   0.616 -1.3768  0.8520 -1.0527
12903TIP3   OH260199   6.744   6.559   3.250  0.6507 -0.2210 -0.2006
12903TIP3    H160200   6.795   6.640   3.240 -0.9198  0.6773 -1.1361
12903TIP3    H260201   6.808   6.489   3.238  1.6560  0.8788 -1.4017
12904TIP3   OH260202   0.756   0.954   2.207  0.9110 -0.4549  0.0384
12904TIP3    H160203   0.740   0.960   2.302  1.0852  2.4012 -0.0717
12904TIP3    H260204   0.746   0.861   2.187 -1.7892 -0.7402  2.3897
12905TIP3   OH260205   2.427   0.092  16.426  0.0109 -0.0610 -0.8010
12905TIP3    H160206   2.507   0.049  16.396 -0.1575 -1.4716  0.6926
12905TIP3    H260207   2.440   0.184  16.404  1.3784 -0.5033 -1.9680
12906TIP3   OH260208   0.056   2.278   6.483  0.7751 -0.6262  0.0131
12906TIP3    H160209   0.105   2.340   6.430  0.3209 -1.4465 -1.3970
12906TIP3    H260210  -0.036   2.296   6.461  0.6255 -1.5266 -0.0919
12907TIP3   OH260211   2.683   3.951  16.989 -0.4667 -0.0892  0.5766
12907TIP3    H160212   2.666   3.983  17.078  1.8963  1.7157  0.4171
12907TIP3    H260213   2.629   4.007  16.933  1.0945  1.4374  0.5727
12908TIP3   OH260214   0.503   0.254   1.115  0.7740 -0.0690 -0.6887
12908TIP3    H160215   0.588   0.246   1.159  0.8583 -0.7690 -0.9800
12908TIP3    H260216   0.479   0.346   1.128  1.1764 -0.0685  0.1316
12909TIP3   OH260217   4.973   3.938  11.584 -0.5043  0.0316  0.1728
12909TIP3    H160218   4.970   3.920  11.490  2.5685  0.1661 -0.0227
12909TIP3    H260219   4.979   3.851  11.625 -0.1589  0.0278  0.1196
12910TIP3   OH260220   0.165   3.483   4.161 -0.1565  0.1266  0.4674
12910TIP3    H160221   0.159   3.577   4.178  0.5085 -0.0317  1.5827
12910TIP3    H260222   0.089   3.464   4.106 -0.6796  1.1926  0.8132
12911TIP3   OH260223   3.608   2.571  10.953  0.1437 -0.5319 -0.0078
12911TIP3    H160224   3.694   2.536  10.932  0.3060 -0.2574  0.2043
12911TIP3    H260225   3.611   2.589  11.047  0.1637  0.3249 -0.1657
12912TIP3   OH260226   4.543   6.564   3.876 -0.3805 -0.4907  0.0925
12912TIP3    H160227   4.537   6.619   3.954  0.1080 -0.1925 -0.0768
12912TIP3    H260228   4.465   6.588   3.825  0.0847  0.4243 -0.2127
12913TIP3   OH260229   4.250   1.612   3.083  0.5691 -0.0598 -0.3856
12913TIP3    H160230   4.192   1.550   3.127 -0.6606  2.1483  1.2067
12913TIP3    H260231   4.285   1.563   3.008  0.1213 -2.8339  1.1484
12914TIP3   OH260232   5.577   1.976   1.322  0.5334 -0.1032  0.0984
12914TIP3    H160233   5.514   1.940   1.384 -0.4314 -1.0080 -1.3485
12914TIP3    H260234   5.615   1.899   1.279  2.1617  0.4587  0.4985
12915TIP3   OH260235   2.706   6.583  10.909 -0.1279  0.0881  0.3874
12915TIP3    H160236   2.622   6.538  10.917  0.6689 -1.1169  2.3629
12915TIP3    H260237   2.772   6.514  10.914  1.0007  0.8889 -2.3207
12916TIP3   OH260238   0.458   4.596  11.347 -0.1381 -0.0817  0.2342
12916TIP3    H160239   0.426   4.652  11.418 -0.2330  0.1856 -0.0231
12916TIP3    H260240   0.513   4.653  11.294  2.0312 -0.9103  1.5283
12917TIP3   OH260241   3.119   1.704  16.764  0.1803 -0.3030 -0.2134
12917TIP3    H160242   3.105   1.796  16.744 -1.2433 -0.3308  0.6098
12917TIP3    H260243   3.032   1.670  16.785  1.1560 -0.9877  2.9473
12918TIP3   OH260244   3.047   0.435   5.135  0.5601 -0.6788 -0.1006
12918TIP3    H160245   3.025   0.365   5.073 -0.6744  0.4878 -1.0043
12918TIP3    H260246   3.036   0.395   5.221  2.0757 -2.2554 -0.6272
12919TIP3   OH260247   1.263   3.562   4.068 -0.3001  0.1923 -0.3583
12919TIP3    H160248   1.213   3.508   4.129  1.8013 -0.1460  1.0888
12919TIP3    H260249   1.295   3.501   4.002  1.7398 -0.2994  1.0575
12920TIP3   OH260250   0.011   4.136  15.359 -0.6603 -0.2043  0.5108
12920TIP3    H160251   0.103   4.158  15.374 -0.6643  0.3181 -0.1726
12920TIP3    H260252  -0.002   4.054  15.405  0.2157 -0.4097  0.4086
12921TIP3   OH260253   4.041   4.752  13.225  0.0425 -0.0092 -0.2100
12921TIP3    H160254   3.965   4.697  13.203  0.1893 -0.3286  0.0698
12921TIP3    H260255   4.105   4.690  13.259  0.1057  0.3830  0.3737
12922TIP3   OH260256   2.635   0.638  15.500  0.2835 -0.4681  0.2493
12922TIP3    H160257   2.637   0.680  15.585 -2.8093  0.1629  0.0883
12922TIP3    H260258   2.661   0.706  15.438  0.5251 -0.3335  0.5023
12923TIP3   OH260259   6.231   6.639  11.758 -0.0203  0.2895  0.8082
12923TIP3    H160260   6.138   6.653  11.771 -0.3628 -1.2770  0.2018
12923TIP3    H260261   6.240   6.621  11.664  0.9174  0.6111  0.8277
12924TIP3   OH260262   4.250   3.837  16.930 -0.0041 -0.1933 -0.0396
12924TIP3    H160263   4.290   3.821  16.844  1.9119 -1.4728  1.0643
12924TIP3    H260264   4.296   3.913  16.965  0.2731 -0.6074  0.4980
12925TIP3   OH260265   4.826   3.611   4.059 -0.0030  0.7870  0.3945
12925TIP3    H160266   4.735   3.629   4.036 -0.4002 -0.2580  1.1205
12925TIP3    H260267   4.822   3.531   4.111  1.6854 -1.3805 -2.6405
12926TIP3   OH260268   5.405   0.308   2.680 -0.2011 -0.5304  0.1846
12926TIP3    H160269   5.364   0.373   2.738 -0.2894 -1.7178  1.4534
12926TIP3    H260270   5.332   0.254   2.650 -0.0341 -0.4559 -0.3646
12927TIP3   OH260271   3.326   4.466   0.139  0.1324 -0.1395 -0.4469
12927TIP3    H160272   3.393   4.482   0.205 -0.5516  0.5972  0.0784
12927TIP3    H260273   3.322   4.548   0.089 -2.3716  0.9051  1.3404
12928TIP3   OH260274   3.895   1.967  13.088  0.3338 -0.2730  0.1650
12928TIP3    H160275   3.948   1.988  13.011 -1.6465  0.2105 -1.1056
12928TIP3    H260276   3.939   1.892  13.128  1.1581 -0.8073 -1.7046
12929TIP3   OH260277   2.564   0.274  16.750  0.6576 -0.8324 -0.5441
12929TIP3    H160278   2.629   0.209  16.725  1.8323 -0.3447  1.1346
12929TIP3    H260279   2.530   0.308  16.667  1.6799 -1.9539 -1.4311
12930TIP3   OH260280   5.815   3.195  16.727  0.0013  0.2038  0.1399
12930TIP3    H160281   5.796   3.251  16.652  1.2130  0.3056 -0.1010
12930TIP3    H260282   5.911   3.189  16.729  0.0003  0.4494  1.8562
12931TIP3   OH260283   2.837   0.577   1.226  0.8462  0.2059  0.4752
12931TIP3    H160284   2.773   0.566   1.297 -0.7851  0.0488 -1.0103
12931TIP3    H260285   2.903   0.636   1.263  0.5378 -0.6691  2.4735
12932TIP3   OH260286   3.801   3.497   1.223  0.3906  0.4950 -0.2526
12932TIP3    H160287   3.868   3.483   1.156  0.4390  2.2324 -0.6005
12932TIP3    H260288   3.814   3.587   1.251 -1.1700  0.5391  0.3922
12933TIP3   OH260289   5.719   5.835   5.795 -0.8545 -0.2327  0.0662
12933TIP3    H160290   5.809   5.805   5.787 -1.1002 -1.0102  0.1990
12933TIP3    H260291   5.679   5.778   5.861 -1.5107 -0.0506 -0.1606
12934TIP3   OH260292   2.120   4.774   2.803  0.0335  0.4888 -0.0260
12934TIP3    H160293   2.028   4.765   2.779 -0.1485  1.3815  0.3095
12934TIP3    H260294   2.144   4.689   2.841 -0.8569  0.4915  0.5596
12935TIP3   OH260295   5.535   1.443  11.983  0.4730 -0.0239 -0.2397
12935TIP3    H160296   5.583   1.396  12.051  0.6077  1.0479  0.4144
12935TIP3    H260297   5.600   1.502  11.944 -0.2443  1.3062  0.5237
12936TIP3   OH260298   4.262   0.340  16.447  0.2393 -0.1223  0.4149
12936TIP3    H160299   4.214   0.386  16.378  2.4527  3.0078  0.8374
12936TIP3    H260300   4.195   0.320  16.513 -0.9669  1.7193 -0.1942
12937TIP3   OH260301   5.617   3.895   0.544 -0.8509 -0.2177 -0.1564
12937TIP3    H160302   5.569   3.844   0.479 -0.9840 -0.1317 -0.1247
12937TIP3    H260303   5.708   3.872   0.529 -0.7544  0.8338 -1.2616
12938TIP3   OH260304   0.024   4.987   2.303 -0.0116  0.5820 -0.1984
12938TIP3    H160305  -0.040   4.917   2.317  0.7576  0.2304  1.5800
12938TIP3    H260306   0.053   4.974   2.213  0.3357 -1.5634  0.1882
12939TIP3   OH260307   2.941   2.400   2.750 -0.0237  0.2382  0.6249
12939TIP3    H160308   2.870   2.457   2.719 -0.8069 -0.4073  1.2025
12939TIP3    H260309   3.012   2.414   2.687 -0.9050  0.3808 -0.3518
12940TIP3   OH260310   5.082   0.048   1.272 -0.5467  0.0117 -0.1954
12940TIP3    H160311   5.062   0.123   1.327 -1.0193 -2.5742  3.3898
12940TIP3    H260312   5.176   0.035   1.283 -0.6803 -0.6422  0.2079
12941TIP3   OH260313   3.278   2.549  13.833  0.1413 -0.4098  0.0311
12941TIP3    H160314   3.362   2.513  13.861  0.3045  0.9144  1.2912
12941TIP3    H260315   3.289   2.566  13.740  2.1243  2.0214  0.6644
12942TIP3   OH260316   2.701   4.700   2.836 -0.2786 -0.4661 -0.6071
12942TIP3    H160317   2.759   4.741   2.901 -2.3357  0.4265  0.6932
12942TIP3    H260318   2.745   4.618   2.814  0.7750 -0.4794  1.4368
12943TIP3   OH260319   0.250   5.464  12.914  0.0146  0.3130  0.0247
12943TIP3    H160320   0.220   5.373  12.917  1.7027 -0.3040 -1.1897
12943TIP3    H260321   0.275   5.483  13.005  0.9486 -0.9048  0.0440
12944TIP3   OH260322   3.649   0.992   5.872 -0.0742 -0.4279  0.3197
12944TIP3    H160323   3.678   0.931   5.805 -0.1050  0.3527 -0.4168
12944TIP3    H260324   3.606   0.937   5.937  0.3826 -1.2469 -0.0615
12945TIP3   OH260325   4.809   2.928   5.739 -0.2621 -0.6245 -0.1143
12945TIP3    H160326   4.768   2.841   5.735 -1.7529 -0.0520  2.2627
12945TIP3    H260327   4.803   2.954   5.830  2.6419  0.8497 -0.2948
12946TIP3   OH260328   2.094   5.175   0.223 -0.3802  0.3773  0.1780
12946TIP3    H160329   2.165   5.111   0.216 -0.6513  0.0454  0.4288
12946TIP3    H260330   2.060   5.163   0.312 -1.6803 -0.4524 -0.4196
12947TIP3   OH260331   3.108   5.341  13.281 -0.3593 -0.0228  0.2723
12947TIP3    H160332   3.047   5.386  13.339  0.1379  0.8989  0.0919
12947TIP3    H260333   3.074   5.252  13.274 -1.5228  0.4067  0.3936
12948TIP3   OH260334   5.624   6.720  10.948 -0.0443  0.1101 -0.2760
12948TIP3    H160335   5.558   6.757  10.890  0.6532  0.1318 -1.0618
12948TIP3    H260336   5.707   6.729  10.900  1.1199  3.5118  2.2041
12949TIP3   OH260337   1.046   0.652   4.489 -0.5293 -0.6323  0.2651
12949TIP3    H160338   1.039   0.638   4.395  2.0793 -0.6398  0.0376
12949TIP3    H260339   1.032   0.746   4.501  2.9439  0.0758 -0.6223
12950TIP3   OH260340   3.428   3.965  14.174  0.0914 -0.6596  0.4281
12950TIP3    H160341   3.470   4.034  14.124  0.7365 -0.7275  0.8776
12950TIP3    H260342   3.499   3.905  14.197 -0.2163 -0.6833  1.3306
12951TIP3   OH260343   4.694   3.176   1.421 -0.1735 -0.2235 -0.3106
12951TIP3    H160344   4.691   3.093   1.468 -1.4450 -0.2789 -0.4551
12951TIP3    H260345   4.786   3.202   1.422  0.1901 -1.5056 -0.0431
12952TIP3   OH260346   6.176   6.630  12.644  0.0375  0.5702  0.6039
12952TIP3    H160347   6.181   6.535  12.641  0.8260  0.6382 -0.5596
12952TIP3    H260348   6.092   6.648  12.687 -1.6895 -0.6555 -2.1264
12953TIP3   OH260349   5.737   3.604   4.613  0.4042 -0.9133  0.0017
12953TIP3    H160350   5.683   3.682   4.619 -0.2140 -1.2506 -1.0274
12953TIP3    H260351   5.822   3.630   4.647 -0.3363 -0.3087  1.3934
12954TIP3   OH260352   2.127   1.000   1.510 -0.1519  0.3997  0.3369
12954TIP3    H160353   2.102   0.948   1.434 -0.7780  2.0951 -0.6610
12954TIP3    H260354   2.213   1.036   1.487 -0.1062  0.4944  0.6513
12955TIP3   OH260355   6.509   1.335   0.452 -0.9449 -0.0093  0.4091
12955TIP3    H160356   6.501   1.364   0.543  1.2003 -0.1326  0.6596
12955TIP3    H260357   6.419   1.320   0.424 -1.6148 -0.6221  2.7371
12956TIP3   OH260358   2.261   4.251  12.177  0.2554  0.0267 -0.0030
12956TIP3    H160359   2.232   4.288  12.093  0.0769 -1.3369 -0.5535
12956TIP3    H260360   2.256   4.325  12.238 -2.5788  0.3157 -0.4909
12957TIP3   OH260361   4.030   6.368  16.314 -0.3404  0.4590  0.4537
12957TIP3    H160362   4.000   6.330  16.396 -0.4944  0.9819  0.6398
12957TIP3    H260363   4.125   6.375  16.324 -0.6359  3.2162  1.7375
12958TIP3   OH260364   5.635   2.470  12.696 -0.3387  0.0095  0.5888
12958TIP3    H160365   5.568   2.451  12.762  1.4153 -3.9640  1.3861
12958TIP3    H260366   5.694   2.533  12.738 -0.2571 -1.0756  2.1405
12959TIP3   OH260367   5.099   3.674  11.390 -0.0510 -0.2871  0.3700
12959TIP3    H160368   5.030   3.727  11.349 -0.3933 -0.6593  0.4591
12959TIP3    H260369   5.165   3.737  11.417 -0.4258  0.0924  0.4103
12960TIP3   OH260370   4.891   0.085  11.490  0.4252 -0.3141 -0.5261
12960TIP3    H160371   4.902  -0.002  11.451 -0.8652 -0.9550  0.5088
12960TIP3    H260372   4.849   0.137  11.421  0.6959 -0.6619 -0.9536
12961TIP3   OH260373   6.694   1.814  14.945 -0.1620 -0.6954 -0.5515
12961TIP3    H160374   6.667   1.767  15.024  0.2747 -0.4994 -0.2780
12961TIP3    H260375   6.703   1.746  14.878 -1.7797 -0.7052 -0.7854
12962TIP3   OH260376   0.566   6.738  16.217  0.0109  0.5061 -0.3511
12962TIP3    H160377   0.599   6.748  16.128 -1.0164  0.2360 -0.7664
12962TIP3    H260378   0.483   6.786  16.218 -1.1522 -1.4508 -0.2060
12963TIP3   OH260379   5.221   2.610  15.475 -0.0250  0.7964  0.3409
12963TIP3    H160380   5.178   2.695  15.485 -1.6830 -0.2104  1.9699
12963TIP3    H260381   5.313   2.628  15.496 -0.3199  2.2108  0.4839
12964TIP3   OH260382   0.013   5.718   0.442 -0.0392  0.5686 -0.1238
12964TIP3    H160383  -0.058   5.697   0.381  0.4367 -0.3211 -0.3705
12964TIP3    H260384   0.066   5.783   0.396 -0.1996  0.5871 -0.2817
12965TIP3   OH260385   0.650   1.971  15.680  0.5375  0.1952 -0.1563
12965TIP3    H160386   0.717   1.916  15.638  0.1396  0.3061 -0.9345
12965TIP3    H260387   0.633   2.041  15.617  1.1209  1.2976  0.8658
12966TIP3   OH260388   6.738   0.841   2.272 -0.1521 -0.1108  0.0290
12966TIP3    H160389   6.799   0.828   2.199  0.7533  0.3060  0.6969
12966TIP3    H260390   6.757   0.929   2.303  0.1515 -0.6492  1.3983
12967TIP3   OH260391   0.326   2.050  12.130  0.4233 -0.0646 -0.1534
12967TIP3    H160392   0.288   2.073  12.214  1.8954  0.8476  0.2775
12967TIP3    H260393   0.420   2.052  12.144  0.7013  0.4985 -1.9178
12968TIP3   OH260394   1.632   2.745  12.583  0.5177 -0.7303  0.3820
12968TIP3    H160395   1.722   2.776  12.588  0.3178 -0.3109  1.6546
12968TIP3    H260396   1.593   2.794  12.511  1.4203 -1.2483 -0.4755
12969TIP3   OH260397   0.948   5.509   2.401  0.0446  0.0706  0.1448
12969TIP3    H160398   0.866   5.514   2.450 -0.6790 -1.2325 -0.9113
12969TIP3    H260399   1.012   5.476   2.465 -0.5257 -0.0975  0.6302
12970TIP3   OH260400   6.548   3.662   3.949  0.0419  0.3094 -0.8585
12970TIP3    H160401   6.463   3.624   3.926  0.8028 -2.5060  0.7694
12970TIP3    H260402   6.561   3.732   3.886 -1.8286 -1.5889 -3.4454
12971TIP3   OH260403   5.419   2.061  17.166  0.0269  0.0018  0.3133
12971TIP3    H160404   5.443   2.065  17.258 -1.3500 -1.1646  0.7293
12971TIP3    H260405   5.326   2.039  17.165  0.1245 -0.4577 -1.3485
12972TIP3   OH260406   6.195   1.449   4.239 -0.5905 -0.6086  0.2124
12972TIP3    H160407   6.178   1.419   4.329 -1.7299 -1.5853 -0.3236
12972TIP3    H260408   6.138   1.395   4.184 -0.9935  0.9967 -0.9795
12973TIP3   OH260409   6.074   3.849   5.219 -0.0084  0.0038  0.5824
12973TIP3    H160410   6.066   3.869   5.125  0.1062 -1.6818  0.1942
12973TIP3    H260411   5.994   3.802   5.241 -0.0339  0.3945  1.3333
12974TIP3   OH260412   0.924   0.524   4.984  0.3044  0.0970  0.1379
12974TIP3    H160413   0.969   0.441   5.004 -1.2342 -0.4640  1.3923
12974TIP3    H260414   0.950   0.544   4.894 -0.4371 -2.5204 -0.6977
12975TIP3   OH260415   0.784   0.752   0.537  0.1195  0.4136  0.1726
12975TIP3    H160416   0.768   0.669   0.493 -1.3634  0.1065  1.2480
12975TIP3    H260417   0.701   0.799   0.531  0.2679  0.8826  1.5039
12976TIP3   OH260418   3.251   3.851  15.985 -0.1167  0.3547  0.0790
12976TIP3    H160419   3.305   3.772  15.985 -0.5176  0.0625 -0.8557
12976TIP3    H260420   3.161   3.818  15.977 -0.4477  0.8339  1.6656
12977TIP3   OH260421   0.021   3.255  11.106  0.3766 -0.3088  0.2731
12977TIP3    H160422   0.020   3.332  11.049  1.3549 -0.0477  0.5852
12977TIP3    H260423   0.053   3.185  11.050 -0.8946 -0.5892 -0.1189
12978TIP3   OH260424   0.200   1.407   0.660 -0.4492  0.0384 -0.2084
12978TIP3    H160425   0.271   1.465   0.632 -1.3543  1.5049  0.4788
12978TIP3    H260426   0.244   1.339   0.711  0.7787 -0.6315 -2.0912
12979TIP3   OH260427   4.677   6.177   3.842  0.0727 -0.1939 -0.5453
12979TIP3    H160428   4.749   6.126   3.880 -0.8285 -0.4214  0.9375
12979TIP3    H260429   4.599   6.122   3.857 -0.5708  0.5598 -1.0911
12980TIP3   OH260430   6.666   5.662  16.789 -0.1657 -0.7134  0.0106
12980TIP3    H160431   6.754   5.700  16.791  0.5849 -2.3631 -0.1534
12980TIP3    H260432   6.607   5.737  16.793  1.2471  0.4091  0.4095
12981TIP3   OH260433   3.494   1.284   2.161 -0.2155 -0.6561  0.0058
12981TIP3    H160434   3.579   1.284   2.116 -0.5502  1.5404 -0.6864
12981TIP3    H260435   3.430   1.286   2.090 -0.7524  2.4670  0.5110
12982TIP3   OH260436   3.655   3.350  10.769 -0.0380  0.3014 -0.4228
12982TIP3    H160437   3.627   3.262  10.795  0.3083  0.2604 -0.1843
12982TIP3    H260438   3.742   3.360  10.808  0.4805  0.2416 -1.5650
12983TIP3   OH260439   6.183   5.344   1.093 -0.5650  0.0030  0.0548
12983TIP3    H160440   6.176   5.416   1.031  0.2117 -1.4541 -1.7610
12983TIP3    H260441   6.186   5.387   1.179  1.3635  2.2411 -1.0652
12984TIP3   OH260442   2.508   1.050  16.064 -0.6758  0.1145 -0.9671
12984TIP3    H160443   2.504   0.958  16.091  2.2048  0.3195  0.3037
12984TIP3    H260444   2.549   1.049  15.978  3.1233  0.4496  0.7736
12985TIP3   OH260445   4.239   2.801   0.391  0.2916 -0.4536  0.2378
12985TIP3    H160446   4.284   2.723   0.360  1.3314 -0.0260  0.6048
12985TIP3    H260447   4.255   2.867   0.323 -1.0282 -0.6967 -0.3238
12986TIP3   OH260448   2.770   5.093   2.797 -0.2785 -0.0823  0.0122
12986TIP3    H160449   2.702   5.064   2.736 -1.6894 -0.7599  1.8660
12986TIP3    H260450   2.733   5.077   2.883  1.1055  2.1934  1.0851
12987TIP3   OH260451   0.721   6.678   4.047 -0.6534 -0.3971 -0.0097
12987TIP3    H160452   0.723   6.658   3.953 -2.4960  1.9703 -0.5964
12987TIP3    H260453   0.660   6.614   4.084 -0.0844 -1.2041 -0.4630
12988TIP3   OH260454   4.756   4.664  10.895  0.3931  0.3462  0.1139
12988TIP3    H160455   4.764   4.643  10.988 -0.5625 -0.1035  0.0970
12988TIP3    H260456   4.704   4.744  10.893 -0.0517  0.0503 -0.0654
12989TIP3   OH260457   0.597   1.574   2.915 -0.3028 -0.4133 -0.3732
12989TIP3    H160458   0.620   1.507   2.980 -1.7129 -2.0067 -1.4338
12989TIP3    H260459   0.535   1.631   2.961  0.6701 -0.0217  0.4544
12990TIP3   OH260460   3.949   4.254  14.078 -0.1085 -0.1765 -0.9258
12990TIP3    H160461   3.968   4.263  13.984 -2.9307  0.2613 -1.4954
12990TIP3    H260462   3.908   4.336  14.102 -2.4646 -1.5483 -0.1106
12991TIP3   OH260463   2.278   2.715  12.886 -0.4815  0.4687 -0.1117
12991TIP3    H160464   2.310   2.762  12.809  0.7045  1.0108  0.6920
12991TIP3    H260465   2.342   2.645  12.899 -1.1090 -0.1016 -0.0818
12992TIP3   OH260466   1.164   4.517  13.721  0.1514 -0.2440 -0.3579
12992TIP3    H160467   1.168   4.447  13.786  1.4371  0.9029  0.8495
12992TIP3    H260468   1.251   4.518  13.681 -0.4635 -0.5812 -1.7349
12993TIP3   OH260469   6.028   2.282   3.282  0.2458  0.3530  0.1387
12993TIP3    H160470   6.035   2.204   3.227 -1.0611 -0.8304  1.6272
12993TIP3    H260471   5.934   2.299   3.287  0.4178  1.0271  1.2283
12994TIP3   OH260472   4.108   5.702   2.119  0.5659 -0.9683  0.2645
12994TIP3    H160473   4.142   5.787   2.090  0.3143 -0.8988  0.1745
12994TIP3    H260474   4.170   5.673   2.186  1.0014 -1.0099 -0.1553
12995TIP3   OH260475   4.812   5.905  10.743  0.0704  0.0924 -0.4465
12995TIP3    H160476   4.784   5.993  10.770 -0.2532  0.3199 -1.4838
12995TIP3    H260477   4.880   5.921  10.677  1.4289 -0.4570  0.7976
12996TIP3   OH260478   4.726   3.993  15.323 -0.1241 -0.3595 -0.2992
12996TIP3    H160479   4.712   4.012  15.230 -1.3687 -1.5693 -0.3800
12996TIP3    H260480   4.646   3.950  15.351  0.0862  0.3353  1.4513
12997TIP3   OH260481   3.368   5.354  16.899  0.1208  0.3142 -0.3668
12997TIP3    H160482   3.286   5.392  16.930 -0.3669 -0.4795 -0.6635
12997TIP3    H260483   3.361   5.356  16.803  0.3290 -0.0188 -0.3894
12998TIP3   OH260484   2.530   4.035  11.360  0.3192 -0.3808 -0.6993
12998TIP3    H160485   2.497   3.946  11.352 -0.4051 -0.1023 -0.8060
12998TIP3    H260486   2.617   4.032  11.319 -0.4413 -0.6285 -2.3299
12999TIP3   OH260487   6.147   2.250  12.340 -0.1532  0.8373 -0.0555
12999TIP3    H160488   6.198   2.224  12.264 -0.3818  1.7388 -0.5208
12999TIP3    H260489   6.055   2.241  12.313 -0.2464  0.2057  0.4423
13000TIP3   OH260490   1.073   0.262   2.738  0.3188  0.0646  0.0742
13000TIP3    H160491   1.062   0.329   2.806 -1.0450 -0.4125  0.3498
13000TIP3    H260492   1.105   0.311   2.662 -0.1325  0.9448  0.4337
13001TIP3   OH260493   6.498   1.570   4.176  0.0442  0.3336  0.4394
13001TIP3    H160494   6.441   1.571   4.253 -0.1752 -0.3577  0.2944
13001TIP3    H260495   6.574   1.623   4.200 -1.0093  1.9244  0.3704
13002TIP3   OH260496   0.295   2.450   2.126 -0.0953 -0.1654 -0.4750
13002TIP3    H160497   0.306   2.356   2.107  2.2503  0.1635 -0.8243
13002TIP3    H260498   0.255   2.452   2.213 -0.3121 -1.4904 -0.5301
13003TIP3   OH260499   0.750   4.119  13.830 -0.3932 -0.6373 -0.0515
13003TIP3    H160500   0.690   4.123  13.756 -0.0361 -3.2374 -0.5539
13003TIP3    H260501   0.783   4.028  13.829  1.5493 -0.0025  1.7525
13004TIP3   OH260502   0.397   2.419   1.489  0.3207 -0.3428  0.0290
13004TIP3    H160503   0.380   2.331   1.521  0.7804 -0.9645 -1.4062
13004TIP3    H260504   0.317   2.445   1.444  0.7265 -0.6146 -0.8501
13005TIP3   OH260505   0.652   3.783   0.247 -0.2025  0.1853 -0.2192
13005TIP3    H160506   0.684   3.697   0.219  0.6831  0.0664  1.0740
13005TIP3    H260507   0.560   3.784   0.222 -0.2648 -1.2138 -0.1075
13006TIP3   OH260508   3.137   5.104   4.454  0.2019 -0.2778 -0.3646
13006TIP3    H160509   3.097   5.150   4.528  0.1528 -1.8003  0.5936
13006TIP3    H260510   3.221   5.148   4.441 -0.0955  0.4548  0.1405
13007TIP3   OH260511   0.216   1.166   3.196 -0.4530 -0.6497 -0.2836
13007TIP3    H160512   0.177   1.213   3.122  0.0815  0.4673  0.1364
13007TIP3    H260513   0.310   1.179   3.186 -0.4715  1.6975  1.9831
13008TIP3   OH260514   4.510   1.861   4.416  0.2688  0.1257  0.0609
13008TIP3    H160515   4.599   1.875   4.383  0.3180 -1.0578 -0.3364
13008TIP3    H260516   4.523   1.829   4.505  0.1879  1.4907  0.5756
13009TIP3   OH260517   2.497   5.605  12.382  1.0241 -0.3349 -0.3899
13009TIP3    H160518   2.551   5.663  12.328  0.0947  1.3353  0.4644
13009TIP3    H260519   2.466   5.660  12.454 -0.2144 -1.7804  0.2097
13010TIP3   OH260520   1.452   1.851  13.579  0.2650 -0.0854 -0.0572
13010TIP3    H160521   1.489   1.937  13.559 -0.1601  0.2456  0.5346
13010TIP3    H260522   1.359   1.859  13.556  0.3648 -0.6129 -0.6614
13011TIP3   OH260523   0.908   1.641  11.807 -0.2614 -0.4508 -0.1841
13011TIP3    H160524   0.957   1.717  11.776 -0.4990 -0.3303 -0.2677
13011TIP3    H260525   0.829   1.678  11.846  0.1724 -0.5829  0.8278
13012TIP3   OH260526   0.337   5.553  13.164  0.3633 -0.0396  0.3010
13012TIP3    H160527   0.297   5.599  13.238 -0.3312  0.4479 -0.3674
13012TIP3    H260528   0.429   5.581  13.166  0.3634 -0.0823  1.0191
13013TIP3   OH260529   5.058   0.498   5.944 -0.3973  0.1904 -0.2579
13013TIP3    H160530   5.093   0.517   6.031 -0.3297  0.3876 -0.3280
13013TIP3    H260531   5.039   0.583   5.906 -1.1504  0.0697 -0.1441
13014TIP3   OH260532   6.057   5.586  11.133 -0.4372  0.4488 -0.2377
13014TIP3    H160533   6.016   5.506  11.101  0.9586 -0.4489  0.1537
13014TIP3    H260534   5.985   5.648  11.143 -1.6217 -0.9434  0.0087
13015TIP3   OH260535   4.177   1.033  14.097 -0.0830 -0.0774  0.2110
13015TIP3    H160536   4.127   0.968  14.147 -0.3964 -1.0890 -1.3795
13015TIP3    H260537   4.124   1.113  14.103 -0.5244 -0.4057  0.7909
13016TIP3   OH260538   1.936   1.060  14.989 -0.3659  0.4458  0.6332
13016TIP3    H160539   1.974   0.997  15.051  0.8079 -0.1943 -0.6917
13016TIP3    H260540   1.845   1.031  14.978  0.4505 -1.7196 -0.7885
13017TIP3   OH260541   2.585   3.036   4.114 -0.1033 -0.9537  0.6959
13017TIP3    H160542   2.505   3.031   4.062  0.7436  1.2168 -0.9203
13017TIP3    H260543   2.578   3.119   4.161  2.2249  0.5343 -1.3891
13018TIP3   OH260544   3.635   2.845   0.101  0.8855 -0.1528  0.1738
13018TIP3    H160545   3.599   2.925   0.063  1.6514 -0.2893 -0.8618
13018TIP3    H260546   3.594   2.775   0.051  0.5093 -0.4058  0.8262
13019TIP3   OH260547   3.301   1.484   3.035 -0.0300 -0.4759  0.1059
13019TIP3    H160548   3.281   1.556   2.975  0.2726  0.9974  1.7296
13019TIP3    H260549   3.393   1.497   3.058  0.0900 -1.5212  0.2331
13020TIP3   OH260550   0.755   5.177   4.523 -0.3823  0.0783  0.6052
13020TIP3    H160551   0.684   5.126   4.483 -0.4032  0.8136 -0.3142
13020TIP3    H260552   0.777   5.243   4.457  0.3748  0.5808  1.3535
13021TIP3   OH260553   2.171   5.007   5.570  0.4643 -0.1038 -0.2965
13021TIP3    H160554   2.160   5.076   5.506 -3.6585 -0.2164  0.1217
13021TIP3    H260555   2.161   4.926   5.520  1.2968 -0.2853 -0.1652
13022TIP3   OH260556   2.465   5.430   2.848 -0.3197  0.0508  0.2421
13022TIP3    H160557   2.472   5.337   2.872 -2.0528  0.5024  2.7186
13022TIP3    H260558   2.519   5.475   2.912 -0.9924  0.9011  0.2181
13023TIP3   OH260559   4.685   3.407  13.401 -0.0353 -0.3305 -0.0071
13023TIP3    H160560   4.701   3.484  13.347 -1.1248  1.3810  2.0159
13023TIP3    H260561   4.645   3.442  13.481  0.7217 -2.8539  1.5294
13024TIP3   OH260562   5.195   3.083   0.977  0.1093  0.5869 -0.2888
13024TIP3    H160563   5.121   3.052   1.029  0.5626  0.5092  0.3187
13024TIP3    H260564   5.221   3.165   1.019  0.5868  0.4359 -0.2857
13025TIP3   OH260565   3.339   2.496  14.207  0.2936 -0.2690  0.2939
13025TIP3    H160566   3.392   2.496  14.128 -0.6706  0.1944 -0.3655
13025TIP3    H260567   3.250   2.516  14.177 -0.2393 -0.8980  1.3885
13026TIP3   OH260568   1.553   0.012  16.401  0.6338 -0.2537  0.1358
13026TIP3    H160569   1.543   0.082  16.466  1.0225 -0.9708  0.9695
13026TIP3    H260570   1.606   0.051  16.332 -0.6428  0.8459 -0.2457
13027TIP3   OH260571   1.173   1.870  13.603 -0.7782  0.0354 -0.6972
13027TIP3    H160572   1.163   1.886  13.697 -0.5737 -0.1944 -0.6365
13027TIP3    H260573   1.093   1.905  13.564 -0.0920  1.7527 -0.6309
13028TIP3   OH260574   6.727   4.825   1.338  0.2415  0.5689  0.3156
13028TIP3    H160575   6.821   4.833   1.353  0.3868  2.1678 -1.2074
13028TIP3    H260576   6.696   4.915   1.330 -0.8104  0.0318 -2.5150
13029TIP3   OH260577   4.843   4.595   0.031  0.2920 -0.0048 -0.4454
13029TIP3    H160578   4.926   4.626   0.069  0.5092 -1.5694  0.3959
13029TIP3    H260579   4.868   4.564  -0.056  0.5794 -0.3844 -0.2316
13030TIP3   OH260580   3.892   4.888   1.906  0.1961  0.1486 -0.0230
13030TIP3    H160581   3.873   4.950   1.835 -1.9110  0.0796  0.4437
13030TIP3    H260582   3.806   4.861   1.938  1.0975 -1.8943  0.7726
13031TIP3   OH260583   2.694   1.918  13.927 -0.3967  0.2317  0.1342
13031TIP3    H160584   2.640   1.966  13.990 -0.9089 -0.1769  0.0082
13031TIP3    H260585   2.727   1.843  13.976 -2.4408 -1.1925 -0.6377
13032TIP3   OH260586   5.256   6.718  11.499 -0.1016 -0.0226  0.1344
13032TIP3    H160587   5.218   6.772  11.430  2.3077 -0.2154 -1.3815
13032TIP3    H260588   5.306   6.651  11.453 -0.8054 -1.9186  2.0255
13033TIP3   OH260589   6.454   1.925  12.444 -0.1452  0.0126  0.2431
13033TIP3    H160590   6.486   2.007  12.482  0.8248 -0.3874  0.3072
13033TIP3    H260591   6.518   1.859  12.473  0.5776 -0.3069 -2.0323
13034TIP3   OH260592   1.161   5.455   0.505  0.1869 -0.6111  0.0612
13034TIP3    H160593   1.111   5.523   0.549 -0.6535 -1.2011  0.0411
13034TIP3    H260594   1.116   5.373   0.530  1.8465 -1.2589  1.0132
13035TIP3   OH260595   1.241   1.207   5.618 -0.3350 -0.3021 -1.0161
13035TIP3    H160596   1.186   1.276   5.654 -0.2022 -0.2962 -0.8289
13035TIP3    H260597   1.324   1.214   5.665 -0.1476 -0.2679 -1.3455
13036TIP3   OH260598   5.824   6.361  17.255 -0.2740 -0.4913  0.3698
13036TIP3    H160599   5.847   6.292  17.318 -1.9713  0.0112  1.5978
13036TIP3    H260600   5.886   6.432  17.273  1.4769 -1.6778 -0.8980
13037TIP3   OH260601   5.377   4.444  16.764 -0.0830 -0.0286  0.1479
13037TIP3    H160602   5.344   4.462  16.852  1.1519  1.3176  0.3590
13037TIP3    H260603   5.472   4.436  16.775  0.0231 -0.4581 -0.9671
13038TIP3   OH260604   3.298   4.177   5.049  0.2227 -0.3006  0.4524
13038TIP3    H160605   3.225   4.191   4.989  0.5798  0.7052  0.2426
13038TIP3    H260606   3.261   4.121   5.118  0.0197 -2.1368 -1.0764
13039TIP3   OH260607   0.828   2.405  15.755  0.7055  0.2657 -0.1445
13039TIP3    H160608   0.887   2.363  15.692  2.0341  1.2476  0.4143
13039TIP3    H260609   0.873   2.397  15.839  0.8979  2.5894  0.0155
13040TIP3   OH260610   6.543   2.281   0.296  0.7830 -0.3315 -0.6541
13040TIP3    H160611   6.564   2.374   0.286  1.7627 -0.6046 -1.1647
13040TIP3    H260612   6.471   2.266   0.235  0.5471  0.1089 -0.4894
13041TIP3   OH260613   2.998   6.471  16.706  0.6300 -0.7622 -0.1343
13041TIP3    H160614   3.071   6.416  16.735  0.4704 -0.6164  0.5590
13041TIP3    H260615   3.036   6.559  16.701  0.1764 -0.4606  1.5161
13042TIP3   OH260616   5.972   1.944   4.433  0.3066  0.0268  0.2512
13042TIP3    H160617   5.971   1.892   4.353 -0.8441  1.0649 -0.4148
13042TIP3    H260618   5.997   1.881   4.501  0.2194 -1.1063 -0.7355
13043TIP3   OH260619   2.865   5.076  14.089 -0.3708  0.1434  0.5878
13043TIP3    H160620   2.938   5.124  14.050 -0.6779 -0.3650 -0.6262
13043TIP3    H260621   2.899   5.044  14.173  0.3402  1.1203  0.6730
13044TIP3   OH260622   5.946   3.440   4.195 -0.3574 -0.5038 -1.0250
13044TIP3    H160623   5.936   3.520   4.143 -0.0932 -0.2722 -0.7147
13044TIP3    H260624   5.876   3.445   4.260  1.3209  0.7954  0.7261
13045TIP3   OH260625   1.759   5.469   0.509  0.0932  0.0719 -0.4223
13045TIP3    H160626   1.701   5.398   0.482 -1.8317  0.9815  1.1726
13045TIP3    H260627   1.799   5.500   0.428 -2.6071  0.2429 -1.7465
13046TIP3   OH260628   1.112   4.646  16.996 -0.0341  0.0361  0.7749
13046TIP3    H160629   1.099   4.586  17.069  0.5871  0.7869  1.5208
13046TIP3    H260630   1.206   4.639  16.976 -0.5495 -1.6687 -1.2909
13047TIP3   OH260631   4.265   5.767   1.161 -0.5962 -0.3980  0.4427
13047TIP3    H160632   4.302   5.706   1.097 -0.4281 -1.1897  1.2837
13047TIP3    H260633   4.175   5.737   1.174 -1.0352  0.5449 -0.3846
13048TIP3   OH260634   3.557   1.584   3.048  0.4693 -0.0518 -0.0436
13048TIP3    H160635   3.605   1.606   2.968 -0.9684 -0.0389 -0.9267
13048TIP3    H260636   3.534   1.669   3.086 -0.7686 -0.0093 -0.8233
13049TIP3   OH260637   5.537   2.851  13.281 -0.3890 -0.1051 -0.1644
13049TIP3    H160638   5.475   2.787  13.246  0.9619 -2.1243  1.0344
13049TIP3    H260639   5.525   2.929  13.227 -0.9618 -1.9083 -2.6965
13050TIP3   OH260640   4.744   5.089  12.925 -0.2638  0.4095  0.5866
13050TIP3    H160641   4.659   5.061  12.960 -0.2287  1.9162  1.9147
13050TIP3    H260642   4.748   5.183  12.944  1.4466  0.4700 -0.0201
13051TIP3   OH260643   4.101   0.569   6.204  0.5869  0.1828  0.1844
13051TIP3    H160644   4.081   0.562   6.297 -0.3739  0.3545  0.0003
13051TIP3    H260645   4.190   0.533   6.195  1.0338  1.0082  1.2870
13052TIP3   OH260646   3.863   6.120  13.020 -0.1121  0.1039  0.3222
13052TIP3    H160647   3.809   6.041  13.017  0.3634 -0.1979 -0.2052
13052TIP3    H260648   3.801   6.191  13.006 -0.1746 -0.3242 -1.7000
13053TIP3   OH260649   0.998   5.370  12.466 -0.1857 -0.4645 -0.2873
13053TIP3    H160650   0.974   5.393  12.376 -1.2723 -0.4144  0.0041
13053TIP3    H260651   1.020   5.453  12.507 -0.6451 -0.3677 -0.2347
13054TIP3   OH260652   2.781   0.827  16.112 -0.2130  0.0761 -0.3677
13054TIP3    H160653   2.687   0.823  16.095 -0.7110  2.9820  1.3731
13054TIP3    H260654   2.800   0.920  16.122  2.9620 -0.4197 -1.1687
13055TIP3   OH260655   0.270   5.809   0.631  0.3575  0.3218 -0.6799
13055TIP3    H160656   0.254   5.726   0.586  0.6695 -1.1610  1.8550
13055TIP3    H260657   0.331   5.788   0.701  0.2325  2.6341  0.1841
13056TIP3   OH260658   4.947   2.265  16.798 -0.6961  0.2305 -0.3495
13056TIP3    H160659   4.924   2.178  16.765  0.0221  0.7428 -2.2178
13056TIP3    H260660   5.043   2.264  16.801 -0.7196  0.4396  1.0912
13057TIP3   OH260661   3.383   5.789  11.275  0.0905  0.0667  0.2953
13057TIP3    H160662   3.299   5.832  11.259  0.2267 -0.4027 -1.8209
13057TIP3    H260663   3.369   5.698  11.249  1.0406 -0.1929  0.6534
13058TIP3   OH260664   5.739   5.382  11.874  0.2781 -0.1036  0.1435
13058TIP3    H160665   5.667   5.341  11.923  1.1177 -1.1391  0.5375
13058TIP3    H260666   5.771   5.451  11.932 -0.7780  0.7665 -0.2823
13059TIP3   OH260667   1.483   4.653  13.890  0.0026 -0.0787  0.5190
13059TIP3    H160668   1.394   4.678  13.915  0.6590  0.8794  1.9447
13059TIP3    H260669   1.485   4.558  13.899 -0.9211 -0.1230  0.3117
13060TIP3   OH260670   4.609   6.682  12.083  0.0662  0.7248 -0.5455
13060TIP3    H160671   4.646   6.738  12.015 -0.3581  1.2500 -0.3409
13060TIP3    H260672   4.515   6.681  12.065 -0.0852  1.1037  0.2057
13061TIP3   OH260673   2.136   0.838   0.066  1.0156 -0.1739 -0.4432
13061TIP3    H160674   2.207   0.855   0.129 -0.2909 -0.8344  1.2389
13061TIP3    H260675   2.059   0.879   0.106  0.4101  0.4086 -2.1888
13062TIP3   OH260676   3.912   2.694   0.217 -0.1756 -0.5057  0.0830
13062TIP3    H160677   3.924   2.688   0.312  4.7419  1.9187 -0.2026
13062TIP3    H260678   3.916   2.787   0.198 -2.9407 -0.8434 -2.3974
13063TIP3   OH260679   4.059   1.389  12.024 -0.5550 -0.9611  0.2573
13063TIP3    H160680   3.970   1.407  11.994  0.0851  0.5259 -0.7821
13063TIP3    H260681   4.115   1.417  11.953  0.8403 -0.1631  1.6358
13064TIP3   OH260682   0.877   2.353  11.039 -0.0480  0.3579  0.2514
13064TIP3    H160683   0.796   2.342  11.088  1.0446 -1.4927  1.7055
13064TIP3    H260684   0.881   2.275  10.982  0.5688  0.5869 -0.0241
13065TIP3   OH260685   1.061   3.641   0.798 -0.4532  0.5010  0.3128
13065TIP3    H160686   1.065   3.600   0.712 -0.0758 -0.5213  0.8068
13065TIP3    H260687   1.137   3.607   0.844 -1.4261 -0.0711  1.5310
13066TIP3   OH260688   0.728   4.903   2.758  0.0605 -0.3683  0.3482
13066TIP3    H160689   0.773   4.964   2.700  0.5479 -1.7191 -0.7098
13066TIP3    H260690   0.748   4.816   2.723 -1.2686 -1.1144  1.3688
13067TIP3   OH260691   5.890   6.392  12.693  0.8390  0.2068  0.9773
13067TIP3    H160692   5.824   6.342  12.741  0.1738  1.1356  1.0446
13067TIP3    H260693   5.889   6.479  12.733  0.3229  0.9808 -0.6542
13068TIP3   OH260694   5.159   0.747  16.613  0.3252 -0.4439 -0.1037
13068TIP3    H160695   5.131   0.835  16.590 -1.0558 -0.9339 -0.3460
13068TIP3    H260696   5.140   0.740  16.707 -3.3672 -1.8033 -0.8344
13069TIP3   OH260697   3.846   0.886   0.048 -0.2985 -0.3122 -0.6669
13069TIP3    H160698   3.870   0.803   0.090  2.1368  0.0458 -1.2629
13069TIP3    H260699   3.811   0.860  -0.037 -0.0993 -0.7609 -0.6148
13070TIP3   OH260700   1.133   0.794  12.958 -0.5594  0.1252 -0.2305
13070TIP3    H160701   1.122   0.769  12.866 -1.0120 -0.1498 -0.1022
13070TIP3    H260702   1.142   0.710  13.004  1.7720  0.2945 -0.2827
13071TIP3   OH260703   1.837   4.318  13.817 -0.1339  0.2283 -0.1948
13071TIP3    H160704   1.847   4.402  13.862 -0.2461  1.1361 -1.7933
13071TIP3    H260705   1.923   4.300  13.779 -0.5201  0.4435 -1.2040
13072TIP3   OH260706   2.754   0.342   3.883  0.5697 -0.4853 -0.0721
13072TIP3    H160707   2.815   0.270   3.867  0.4436 -0.0268 -2.8674
13072TIP3    H260708   2.811   0.417   3.902  0.7871 -0.6070 -0.2387
13073TIP3   OH260709   4.900   5.114   4.246  0.0949 -0.0359 -0.0754
13073TIP3    H160710   4.821   5.118   4.193 -0.2953  0.4500  0.5339
13073TIP3    H260711   4.928   5.205   4.255  2.1321 -0.3919 -2.3499
13074TIP3   OH260712   3.420   5.896   2.506 -0.4070  0.2544  0.0082
13074TIP3    H160713   3.334   5.855   2.510  0.0465 -0.8208 -1.0842
13074TIP3    H260714   3.451   5.880   2.416  0.9328  0.6233  0.3856
13075TIP3   OH260715   2.127   5.916   4.104 -0.9226  0.5746  0.6825
13075TIP3    H160716   2.072   5.840   4.119 -1.4270  0.3315 -2.1864
13075TIP3    H260717   2.069   5.991   4.118 -1.2791  0.3610  0.3745
13076TIP3   OH260718   3.521   2.122   5.403  0.2095  0.0528  0.6489
13076TIP3    H160719   3.482   2.042   5.438 -0.7226 -0.0954 -0.7108
13076TIP3    H260720   3.606   2.095   5.369  0.0597 -0.2757  0.5392
13077TIP3   OH260721   4.310   6.263   5.962 -0.5859 -0.2413 -0.4597
13077TIP3    H160722   4.389   6.288   6.010 -0.3209 -1.6607 -0.1364
13077TIP3    H260723   4.266   6.199   6.018 -1.7532  0.2141 -0.8282
13078TIP3   OH260724   4.549   1.421  13.541  0.7573 -0.1043 -0.1203
13078TIP3    H160725   4.509   1.504  13.515  0.6871  0.4327  1.5932
13078TIP3    H260726   4.599   1.443  13.620  1.0881 -1.6070  0.1022
13079TIP3   OH260727   3.578   0.191   3.993  0.1423 -0.0116  0.1922
13079TIP3    H160728   3.506   0.163   3.936 -0.0596  1.0955 -0.1010
13079TIP3    H260729   3.626   0.110   4.012 -0.7214 -0.6373 -0.2446
13080TIP3   OH260730   3.378   1.445  16.515 -0.6630  0.5931  0.0581
13080TIP3    H160731   3.345   1.534  16.503 -1.1970  0.3634 -0.1874
13080TIP3    H260732   3.353   1.421  16.604  0.5445  1.1353  0.5512
13081TIP3   OH260733   4.501   4.345   3.732 -0.0493  0.4911  0.1516
13081TIP3    H160734   4.434   4.278   3.748  1.1906 -0.9815 -0.6746
13081TIP3    H260735   4.582   4.306   3.764  0.8761  1.1779 -1.2891
13082TIP3   OH260736   1.222   1.760   1.379  0.2898 -0.3323 -0.0946
13082TIP3    H160737   1.216   1.767   1.284  2.2993  0.2459 -0.2041
13082TIP3    H260738   1.133   1.777   1.410 -0.6890 -1.8891 -1.9277
13083TIP3   OH260739   2.262   1.203   6.782  0.0722 -0.0342 -0.4909
13083TIP3    H160740   2.259   1.142   6.708 -0.2523  0.0654 -0.5565
13083TIP3    H260741   2.204   1.164   6.848 -0.5783  0.4998 -0.7514
13084TIP3   OH260742   5.762   1.486  16.222 -0.1206 -0.8857  0.1734
13084TIP3    H160743   5.770   1.391  16.221 -3.1667 -1.2410  3.1030
13084TIP3    H260744   5.714   1.507  16.142 -0.2278 -1.8670 -0.0245
13085TIP3   OH260745   0.925   3.286   2.075 -0.2617  0.6598  0.6194
13085TIP3    H160746   1.009   3.264   2.115 -0.1807 -1.0106 -0.4622
13085TIP3    H260747   0.933   3.379   2.054  1.6774  0.3057 -0.3319
13086TIP3   OH260748   2.090   6.782  13.954 -0.1700  0.2800  0.5878
13086TIP3    H160749   2.065   6.860  13.905  1.4552 -0.9160 -2.2780
13086TIP3    H260750   2.182   6.794  13.974  0.2114 -1.0583 -0.2710
13087TIP3   OH260751   5.986   2.996   3.329  0.6981  0.2387 -0.0414
13087TIP3    H160752   6.054   3.046   3.282  1.6675 -0.6961  0.3537
13087TIP3    H260753   6.028   2.912   3.349 -0.5142 -0.2625  0.3935
13088TIP3   OH260754   3.817   0.826   5.661  0.4467  0.0703  0.6111
13088TIP3    H160755   3.899   0.834   5.711  0.7135 -1.3188  0.4356
13088TIP3    H260756   3.764   0.765   5.713  0.5078 -0.9641 -0.5213
13089TIP3   OH260757   0.047   3.596   6.484  0.0347  0.1704 -0.4860
13089TIP3    H160758   0.113   3.657   6.517  0.2884 -1.2089  1.6718
13089TIP3    H260759   0.084   3.510   6.500 -1.1015 -0.5884 -1.8375
13090TIP3   OH260760   4.675   0.725   5.096 -0.1348  0.0163 -0.1782
13090TIP3    H160761   4.616   0.800   5.086  0.1711  0.3119  0.2136
13090TIP3    H260762   4.641   0.678   5.172 -1.6786 -1.5051 -1.7566
13091TIP3   OH260763   3.711   2.621  15.153 -0.2530 -0.3789  0.0180
13091TIP3    H160764   3.798   2.640  15.120  0.3274 -0.2256  1.5697
13091TIP3    H260765   3.706   2.668  15.236 -2.0332  0.0987 -0.3357
13092TIP3   OH260766   3.651   2.000  12.693  0.0441  0.1905  0.2226
13092TIP3    H160767   3.672   2.054  12.768  0.1423 -0.8490  0.9595
13092TIP3    H260768   3.601   1.926  12.729 -0.7030  0.1490 -0.8466
13093TIP3   OH260769   5.894   4.167   5.466 -0.0819  0.8913  0.4169
13093TIP3    H160770   5.883   4.157   5.560 -2.2324 -1.0034  0.0024
13093TIP3    H260771   5.978   4.212   5.456  0.1200  1.1991  3.2180
13094TIP3   OH260772   1.746   3.898  11.544  0.3973  0.0035  0.1633
13094TIP3    H160773   1.836   3.916  11.571 -0.0577  0.7259  1.2554
13094TIP3    H260774   1.747   3.806  11.519  1.5693  0.1547 -0.4053
13095TIP3   OH260775   2.110   3.939  10.490 -0.4745 -0.0755 -0.0531
13095TIP3    H160776   2.103   3.957  10.584  1.3631  0.8992 -0.0920
13095TIP3    H260777   2.182   3.876  10.482  0.2913  0.8969 -0.9260
13096TIP3   OH260778   1.242   6.237  13.200 -0.7006 -0.2068  0.0644
13096TIP3    H160779   1.290   6.315  13.228 -0.2942 -0.4148 -0.0342
13096TIP3    H260780   1.160   6.270  13.165 -1.1526  0.0713  1.3584
13097TIP3   OH260781   3.385   1.192   5.420 -0.0051 -0.3207  0.2538
13097TIP3    H160782   3.430   1.171   5.338  0.1466  0.9034  0.0185
13097TIP3    H260783   3.443   1.159   5.489  0.6094  0.0428 -0.0903
13098TIP3   OH260784   3.830   3.086  14.503  0.2377 -0.1015 -0.1013
13098TIP3    H160785   3.895   3.019  14.521 -0.6136 -1.1867 -1.0082
13098TIP3    H260786   3.771   3.046  14.439 -1.3703  0.8213  0.7716
13099TIP3   OH260787   0.791   0.986  14.619 -0.2644 -0.1179  0.5430
13099TIP3    H160788   0.753   0.899  14.635 -0.0589 -0.2897  0.1034
13099TIP3    H260789   0.717   1.040  14.590  0.3066 -1.2061 -3.2052
13100TIP3   OH260790   5.745   0.806  13.371 -0.2380 -0.9501 -0.5896
13100TIP3    H160791   5.783   0.721  13.392 -1.7326 -1.6742 -0.8049
13100TIP3    H260792   5.691   0.790  13.294 -1.9609 -0.1837  0.4451
13101TIP3   OH260793   3.586   5.205   2.016  0.6593  0.3288  0.0859
13101TIP3    H160794   3.639   5.135   2.054  2.9917  0.8270 -2.1070
13101TIP3    H260795   3.579   5.183   1.923 -1.7630  1.0810  0.0466
13102TIP3   OH260796   3.541   0.748   2.620 -0.0474  0.2638 -0.2402
13102TIP3    H160797   3.592   0.829   2.610  0.1608  0.2407  0.5679
13102TIP3    H260798   3.462   0.775   2.667 -1.0998  0.4129 -2.0264
13103TIP3   OH260799   5.797   5.593  12.063 -0.4033  0.1363 -0.0792
13103TIP3    H160800   5.881   5.583  12.107 -1.1024  1.3948  1.5867
13103TIP3    H260801   5.738   5.626  12.131 -2.7515 -2.6229 -0.6651
13104TIP3   OH260802   0.558   6.342  13.093 -0.0103 -0.4100 -0.4021
13104TIP3    H160803   0.486   6.291  13.130 -0.0185  0.4458  0.7572
13104TIP3    H260804   0.630   6.331  13.155 -0.7309  2.8948  1.1152
13105TIP3   OH260805   3.306   5.384   6.388 -0.4981  0.1189 -0.7059
13105TIP3    H160806   3.250   5.316   6.425 -1.7636  1.1521 -0.7065
13105TIP3    H260807   3.257   5.465   6.399  1.6772  1.2956  0.7657
13106TIP3   OH260808   4.487   2.868  15.823  0.0984  0.1834  0.4334
13106TIP3    H160809   4.392   2.854  15.831 -0.0503  1.3691  0.8657
13106TIP3    H260810   4.521   2.782  15.798 -1.1077 -0.2222  0.1069
13107TIP3   OH260811   1.590   6.586  15.624 -0.1762 -0.3891  0.0410
13107TIP3    H160812   1.620   6.549  15.707  0.0888 -0.9793 -0.3175
13107TIP3    H260813   1.629   6.673  15.622 -0.6371 -0.1525  0.7908
13108TIP3   OH260814   2.568   0.763   0.341 -0.1584  0.0624  0.2463
13108TIP3    H160815   2.569   0.857   0.357  0.1319  0.7548 -3.3696
13108TIP3    H260816   2.660   0.737   0.340 -0.2279 -0.2304  0.9579
13109TIP3   OH260817   0.985   5.396   1.878 -0.0077  0.0208  0.5071
13109TIP3    H160818   0.894   5.417   1.899 -0.7143  1.3063 -3.5049
13109TIP3    H260819   0.990   5.300   1.884 -1.7008 -0.0814  0.4396
13110TIP3   OH260820   2.122   2.675  10.735 -0.4059  0.5761 -0.3287
13110TIP3    H160821   2.141   2.587  10.767 -1.5241 -0.1716 -1.6843
13110TIP3    H260822   2.070   2.662  10.656 -2.1959  2.4640  0.4723
13111TIP3   OH260823   2.857   4.750  13.490 -0.0881  0.2511  0.6684
13111TIP3    H160824   2.877   4.748  13.396 -3.8839 -3.6453 -0.2109
13111TIP3    H260825   2.928   4.700  13.531 -0.0602 -0.7100 -0.5274
13112TIP3   OH260826   0.706   1.405  13.771  0.3015  0.2759 -0.5643
13112TIP3    H160827   0.801   1.396  13.778 -0.0503 -2.6368  1.7713
13112TIP3    H260828   0.673   1.315  13.772 -2.6116  1.2765  0.6440
13113TIP3   OH260829   5.308   0.971  13.876  0.7721 -0.1205 -0.1138
13113TIP3    H160830   5.365   1.047  13.869 -0.5078  0.9617  0.8910
13113TIP3    H260831   5.323   0.938  13.965 -1.0034  0.8886  0.5910
13114TIP3   OH260832   1.080   3.989  13.115  0.2268  0.1042  0.4185
13114TIP3    H160833   0.999   4.027  13.149 -1.0292 -1.0426 -1.2755
13114TIP3    H260834   1.144   4.003  13.185 -1.6059  0.3551  2.0682
13115TIP3   OH260835   6.034   1.309  16.979  0.3987  0.3274  0.3802
13115TIP3    H160836   6.067   1.398  16.968  2.2300 -0.2645  0.8767
13115TIP3    H260837   6.018   1.301  17.074  0.4280  0.0617  0.3637
13116TIP3   OH260838   5.646   4.201  12.689  0.3541  0.8010  0.1175
13116TIP3    H160839   5.709   4.246  12.634  0.8272  0.3800  0.3090
13116TIP3    H260840   5.598   4.271  12.733 -1.1803  1.1947 -2.0927
13117TIP3   OH260841   5.762   2.988   0.247 -0.5233  0.4127  0.8042
13117TIP3    H160842   5.679   2.973   0.292  0.2301 -1.9209  1.4924
13117TIP3    H260843   5.766   2.918   0.182 -0.3354  2.1365 -1.0890
13118TIP3   OH260844   0.440   6.067   3.536  1.0249 -0.9670  0.4787
13118TIP3    H160845   0.360   6.035   3.495  1.8451 -0.3888 -1.6203
13118TIP3    H260846   0.510   6.015   3.497  2.1873  1.9553 -1.5026
13119TIP3   OH260847   2.401   2.152   1.129  0.3279 -0.0394  0.2782
13119TIP3    H160848   2.471   2.152   1.064  0.9189 -0.3505  0.9133
13119TIP3    H260849   2.324   2.123   1.080  0.4980  0.9029 -0.5655
13120TIP3   OH260850   4.517   5.236  14.107 -0.3368  0.5054 -0.1716
13120TIP3    H160851   4.598   5.252  14.060  0.0963  0.9726  0.7257
13120TIP3    H260852   4.506   5.312  14.163  0.1415 -0.9042  1.8904
13121TIP3   OH260853   2.877   4.047  16.668  0.1527  0.3440  0.0849
13121TIP3    H160854   2.942   4.013  16.607 -1.2432  0.6304 -1.6042
13121TIP3    H260855   2.912   4.131  16.696  1.2163 -0.1830  0.3544
13122TIP3   OH260856   1.132   5.170  13.472 -0.0642 -0.5212  0.3576
13122TIP3    H160857   1.223   5.199  13.477 -0.2662  0.1204  0.2913
13122TIP3    H260858   1.112   5.138  13.560  0.5520 -1.6491  0.0958
13123TIP3   OH260859   0.887   4.146  13.276 -0.0063 -0.6640  0.1979
13123TIP3    H160860   0.904   4.149  13.370  1.6682 -0.8312 -0.0765
13123TIP3    H260861   0.890   4.238  13.248  0.6667 -0.7038  0.1253
13124TIP3   OH260862   4.685   3.952   5.018 -0.6599 -0.3085  0.1995
13124TIP3    H160863   4.746   3.975   4.947 -1.6568  2.3906  0.1533
13124TIP3    H260864   4.730   3.884   5.067  3.1695  2.7175  1.1420
13125TIP3   OH260865   2.591   3.792  15.784 -0.5620 -0.3614 -0.7712
13125TIP3    H160866   2.530   3.721  15.804  1.5488 -2.0514 -0.2189
13125TIP3    H260867   2.537   3.858  15.740 -2.7407 -1.8980 -0.4722
13126TIP3   OH260868   2.974   5.641  10.591 -0.0908  0.4477 -0.4806
13126TIP3    H160869   3.039   5.632  10.522  0.8530 -0.5147  0.4952
13126TIP3    H260870   3.016   5.698  10.656  0.3606 -1.2634  0.7812
13127TIP3   OH260871   0.748   4.958   1.004  0.9563  0.0084 -0.1028
13127TIP3    H160872   0.813   5.017   1.042 -0.4723 -0.2931  2.9211
13127TIP3    H260873   0.799   4.890   0.961  2.6761 -0.6295  2.8666
13128TIP3   OH260874   0.115   1.483   2.588  0.5411  0.7293  0.6372
13128TIP3    H160875   0.127   1.427   2.512  0.8145  1.0526  0.4410
13128TIP3    H260876   0.195   1.536   2.593 -0.4959  2.4298 -0.2964
13129TIP3   OH260877   4.457   3.789  13.489 -0.2322 -0.4321  0.5960
13129TIP3    H160878   4.406   3.870  13.497 -0.6614 -0.2955 -2.6932
13129TIP3    H260879   4.391   3.721  13.474  0.2479 -1.0237  1.1744
13130TIP3   OH260880   5.305   2.216   5.223 -0.6195  0.2320 -0.5173
13130TIP3    H160881   5.383   2.271   5.233  0.4752 -1.2608 -0.5821
13130TIP3    H260882   5.249   2.264   5.163  1.1299  0.4244 -2.0525
13131TIP3   OH260883   5.329   4.955   3.612 -0.7431  0.3755  0.2604
13131TIP3    H160884   5.270   4.928   3.682 -0.5500  0.1218  0.3260
13131TIP3    H260885   5.416   4.936   3.646 -0.7407 -1.8097 -0.9430
13132TIP3   OH260886   2.332   4.389  14.556  0.4556 -0.2586 -0.4925
13132TIP3    H160887   2.286   4.338  14.623 -1.2355  1.3287 -0.4020
13132TIP3    H260888   2.388   4.448  14.606 -1.8760  1.9388 -0.3372
13133TIP3   OH260889   3.656   4.291   0.646  0.2633 -0.0823 -0.4381
13133TIP3    H160890   3.708   4.361   0.607 -0.1781  0.9241  0.7267
13133TIP3    H260891   3.566   4.313   0.625  0.2488 -1.5520 -2.0241
13134TIP3   OH260892   2.471   3.746   4.154 -0.2948  0.3335 -0.2779
13134TIP3    H160893   2.450   3.653   4.165  0.3495  0.2554  0.2600
13134TIP3    H260894   2.506   3.773   4.239 -0.6579  1.1149 -0.3769
13135TIP3   OH260895   0.499   4.047   0.842 -0.2955  0.3147 -0.2055
13135TIP3    H160896   0.499   3.951   0.841 -0.2742  0.3069  0.5772
13135TIP3    H260897   0.566   4.071   0.777  1.3445 -0.2202  1.2486
13136TIP3   OH260898   0.670   4.929  14.923 -0.4473 -0.3157 -0.0476
13136TIP3    H160899   0.631   5.015  14.937 -1.5885 -0.7648 -0.4118
13136TIP3    H260900   0.713   4.936  14.838  0.8173  0.3676  0.6308
13137TIP3   OH260901   3.345   3.118   5.407 -0.3305  0.0018  0.0569
13137TIP3    H160902   3.405   3.105   5.333  0.2756  0.0766  0.5321
13137TIP3    H260903   3.305   3.032   5.420  1.4750 -0.6891  1.2857
13138TIP3   OH260904   1.612   5.268   3.665  0.0465  0.3919 -0.3102
13138TIP3    H160905   1.662   5.266   3.747  1.2421  0.2267 -1.0184
13138TIP3    H260906   1.591   5.176   3.647 -2.0432  0.6176  0.8804
13139TIP3   OH260907   3.721   2.964   5.762 -0.0555 -0.1657 -0.9711
13139TIP3    H160908   3.661   2.890   5.751 -1.5484  0.9479 -0.5175
13139TIP3    H260909   3.665   3.037   5.786  1.1825  1.5848 -3.1817
13140TIP3   OH260910   2.419   4.525  16.189  0.2927  0.2833 -0.1676
13140TIP3    H160911   2.384   4.443  16.222 -2.1172  1.9177  1.5119
13140TIP3    H260912   2.450   4.504  16.101 -0.3570 -2.3799  0.1977
13141TIP3   OH260913   0.174   0.590  14.677  0.0881  0.5682  0.2906
13141TIP3    H160914   0.258   0.552  14.703  0.7143  0.8717 -1.2500
13141TIP3    H260915   0.109   0.532  14.716  0.9983  0.3462  1.5294
13142TIP3   OH260916   5.515   1.644  13.048 -0.1378  0.1471 -0.1977
13142TIP3    H160917   5.479   1.567  13.093 -1.2484 -0.4373 -2.0197
13142TIP3    H260918   5.583   1.608  12.991  0.9866  0.8288  0.7100
13143TIP3   OH260919   0.655   0.685   2.232 -0.1366 -0.0782 -0.4300
13143TIP3    H160920   0.671   0.644   2.316 -0.3268  0.2880 -0.2130
13143TIP3    H260921   0.650   0.612   2.170  1.1776 -0.2792 -0.3183
13144TIP3   OH260922   3.446   0.667  15.992 -0.1990 -0.0367  0.0862
13144TIP3    H160923   3.524   0.715  16.021 -2.2287  2.3617  1.8638
13144TIP3    H260924   3.439   0.595  16.055  0.1219  0.2493  0.4616
13145TIP3   OH260925   0.874   3.035   1.954  0.0091  0.3164  0.3262
13145TIP3    H160926   0.959   3.034   1.910 -0.1856 -0.0415 -0.0419
13145TIP3    H260927   0.867   3.123   1.991  0.6217  0.2847  0.5204
13146TIP3   OH260928   1.231   6.168  12.245  0.4511  0.3398 -0.4878
13146TIP3    H160929   1.225   6.136  12.155 -0.6042  0.7903 -0.5890
13146TIP3    H260930   1.285   6.247  12.240  0.2414  0.4670 -0.7582
13147TIP3   OH260931   6.611   5.318   5.576 -0.5874  0.4463  0.4834
13147TIP3    H160932   6.635   5.408   5.558 -0.3302  0.3003  0.0929
13147TIP3    H260933   6.619   5.309   5.671 -1.4045  1.0632  0.6164
13148TIP3   OH260934   5.804   0.819   5.862  0.9741  1.2699 -0.0709
13148TIP3    H160935   5.893   0.786   5.859 -0.0514 -1.5858 -0.3465
13148TIP3    H260936   5.766   0.793   5.778 -0.3134  1.8958  0.3027
13149TIP3   OH260937   3.384   0.738  11.138 -0.2915 -0.0805  0.0626
13149TIP3    H160938   3.354   0.828  11.128 -2.3475 -0.8777 -1.2356
13149TIP3    H260939   3.328   0.687  11.078  2.3018 -1.9127 -0.8952
13150TIP3   OH260940   1.534   3.646  14.817  0.4909  0.1004 -0.6130
13150TIP3    H160941   1.451   3.630  14.771  1.1946  0.0127 -1.8680
13150TIP3    H260942   1.551   3.740  14.803  1.1517 -0.1186 -1.2703
13151TIP3   OH260943   3.934   5.671  14.339  0.0135  0.0935 -0.2195
13151TIP3    H160944   3.940   5.748  14.396  0.0070 -1.8933  2.5820
13151TIP3    H260945   4.025   5.648  14.320  0.0973 -0.7313  1.1206
13152TIP3   OH260946   2.051   1.117  13.477  0.3988  0.2464  0.1244
13152TIP3    H160947   2.039   1.207  13.448  1.2340  0.2466 -0.2209
13152TIP3    H260948   1.972   1.098  13.528 -1.0480  0.3120 -2.0070
13153TIP3   OH260949   1.699   6.432  15.167  0.7795  0.0369  0.6740
13153TIP3    H160950   1.634   6.501  15.183 -0.2827 -0.6893 -0.4565
13153TIP3    H260951   1.687   6.371  15.240 -1.1862 -1.1109 -0.5695
13154TIP3   OH260952   5.009   6.290   0.664 -0.4199  0.4544 -0.0270
13154TIP3    H160953   4.956   6.213   0.647  1.1548 -0.5797 -0.3267
13154TIP3    H260954   4.967   6.360   0.614 -0.4362 -0.7581 -1.7247
13155TIP3   OH260955   1.716   2.636   6.678 -0.3477 -0.8520  0.7252
13155TIP3    H160956   1.667   2.672   6.752 -0.8012 -1.2080  0.6023
13155TIP3    H260957   1.803   2.676   6.684 -0.5804 -0.4066  1.0895
13156TIP3   OH260958   1.944   1.827  12.803  0.0194 -0.0002  0.3122
13156TIP3    H160959   2.001   1.794  12.733 -1.8302 -0.0496 -1.2445
13156TIP3    H260960   1.891   1.751  12.827 -1.6710  0.8508 -0.6320
13157TIP3   OH260961   6.132   1.265   3.304 -0.0075  0.2505  0.0005
13157TIP3    H160962   6.046   1.307   3.295 -0.3277 -0.3635  0.1484
13157TIP3    H260963   6.188   1.309   3.240 -0.7895 -0.2681 -1.0610
13158TIP3   OH260964   3.144   5.503  12.070 -0.3637 -0.1188 -0.6294
13158TIP3    H160965   3.085   5.430  12.089  0.8067 -1.2306 -1.1596
13158TIP3    H260966   3.229   5.461  12.055  0.7143  1.4951  0.8004
13159TIP3   OH260967   0.862   6.117   0.321 -0.1247  0.0825  0.0799
13159TIP3    H160968   0.831   6.189   0.375 -0.4242 -1.3275  1.8636
13159TIP3    H260969   0.792   6.104   0.256 -0.8409  0.3050  0.7998
13160TIP3   OH260970   4.909   3.142   4.351  0.1916  0.0415  0.3127
13160TIP3    H160971   4.946   3.058   4.323  1.4365  0.5898  0.2814
13160TIP3    H260972   4.840   3.118   4.413  1.2900 -0.9695  1.1634
13161TIP3   OH260973   4.820   0.105   0.432  0.0375  0.6629 -0.5962
13161TIP3    H160974   4.826   0.084   0.338  1.8243 -1.1035 -0.1340
13161TIP3    H260975   4.845   0.197   0.438  3.7226 -0.1901 -1.5067
13162TIP3   OH260976   5.248   4.221  14.824  0.0406  0.2260  0.0013
13162TIP3    H160977   5.243   4.134  14.783 -1.9644  0.8351 -1.1092
13162TIP3    H260978   5.323   4.215  14.883  1.2300 -1.6048 -1.6106
13163TIP3   OH260979   1.668   0.222   0.928  0.0557  0.1841  0.0386
13163TIP3    H160980   1.662   0.140   0.878  0.6263 -0.3516  0.8328
13163TIP3    H260981   1.618   0.205   1.008 -0.6256  0.9467 -0.2179
13164TIP3   OH260982   2.145   0.715  12.161 -0.4918 -0.5806  0.1643
13164TIP3    H160983   2.080   0.757  12.105 -0.5272  0.3880  0.9171
13164TIP3    H260984   2.148   0.770  12.240  1.9194 -0.0582 -0.2576
13165TIP3   OH260985   0.582   1.820   0.624  0.0490  0.3589 -0.1412
13165TIP3    H160986   0.656   1.857   0.576  1.6857 -0.5048  1.6271
13165TIP3    H260987   0.577   1.729   0.594 -1.5016  0.9119 -1.6234
13166TIP3   OH260988   4.993   3.658  15.670 -0.2565  0.5016 -0.2128
13166TIP3    H160989   5.073   3.637  15.622  0.5437 -0.7342  1.6269
13166TIP3    H260990   4.931   3.684  15.602  1.8211  1.8933 -1.6235
13167TIP3   OH260991   1.749   6.188   5.186  0.0694  0.3684  0.1275
13167TIP3    H160992   1.673   6.232   5.147 -0.9973 -1.3272  0.2721
13167TIP3    H260993   1.763   6.234   5.269  0.4198  1.9556 -0.7824
13168TIP3   OH260994   1.998   3.834  13.348 -0.3662  0.0445  0.4232
13168TIP3    H160995   2.041   3.820  13.264 -0.4202 -0.0158  0.4050
13168TIP3    H260996   1.907   3.852  13.326 -0.7894 -1.7971  0.5477
13169TIP3   OH260997   3.165   6.080   3.557  0.4256  0.3090 -0.2117
13169TIP3    H160998   3.097   6.081   3.489 -0.0765 -0.8625  0.2446
13169TIP3    H260999   3.222   6.007   3.532 -0.3035 -0.7541  1.1152
13170TIP3   OH261000   5.256   6.758  11.762 -0.5338 -0.2937 -0.4764
13170TIP3    H161001   5.305   6.686  11.803 -0.0015 -0.1623 -0.8698
13170TIP3    H261002   5.284   6.755  11.670  2.5096  2.8747  0.2476
13171TIP3   OH261003   0.821   6.355   4.339  0.0660  0.0442 -0.0837
13171TIP3    H161004   0.807   6.325   4.250  0.9666 -0.5172 -0.0333
13171TIP3    H261005   0.862   6.282   4.384 -0.1683  0.4044  0.7350
13172TIP3   OH261006   4.157   1.209   2.113 -0.2796 -0.3686  0.2675
13172TIP3    H161007   4.218   1.143   2.147 -1.2187 -0.3744  2.0287
13172TIP3    H261008   4.197   1.293   2.138 -0.6579 -0.3571  0.8452
13173TIP3   OH261009   5.924   0.129  17.121 -0.4996  0.8150  0.5156
13173TIP3    H161010   5.902   0.036  17.132 -1.1684  0.5639 -2.7212
13173TIP3    H261011   5.940   0.159  17.211 -0.8296 -2.2685  1.6974
13174TIP3   OH261012   6.240   0.040   6.372 -0.3071 -0.1873 -0.2349
13174TIP3    H161013   6.148   0.067   6.372 -0.5371 -0.9361  1.0251
13174TIP3    H261014   6.281   0.096   6.439  0.0516 -0.1923 -0.4485
13175TIP3   OH261015   4.749   2.618  14.745  0.4441  0.1151  0.2394
13175TIP3    H161016   4.794   2.564  14.810  2.3826  0.5655 -0.7149
13175TIP3    H261017   4.737   2.560  14.670  0.5610  0.3851  0.0151
13176TIP3   OH261018   1.016   1.178   0.894  0.2285 -0.0234 -0.3535
13176TIP3    H161019   1.086   1.200   0.833 -0.3311 -1.2189 -1.4336
13176TIP3    H261020   1.060   1.136   0.968  0.5023 -2.0587 -1.6651
13177TIP3   OH261021   5.032   3.704   3.090 -0.6544 -0.2569  0.3312
13177TIP3    H161022   4.948   3.692   3.133  0.3601 -0.9306  2.1740
13177TIP3    H261023   5.082   3.626   3.113  0.5406  0.2176 -0.5924
13178TIP3   OH261024   6.809   0.603   1.931  0.0103 -0.0238 -0.3401
13178TIP3    H161025   6.827   0.679   1.986  1.1071 -0.2914 -0.3056
13178TIP3    H261026   6.886   0.595   1.875  0.4492 -1.7859  0.4556
13179TIP3   OH261027   5.156   1.260  15.847  0.2299  0.0817  0.7997
13179TIP3    H161028   5.228   1.282  15.787 -1.0115 -0.5422 -0.9632
13179TIP3    H261029   5.113   1.344  15.865 -0.2585  0.0945 -0.3531
13180TIP3   OH261030   3.935   0.115  11.668 -0.0417  0.4281 -0.2092
13180TIP3    H161031   3.888   0.186  11.624  0.8573 -0.6118 -2.9237
13180TIP3    H261032   3.969   0.155  11.748 -0.0794  2.8909 -1.3792
13181TIP3   OH261033   5.171   2.863   1.554  0.7709  0.5588 -0.0144
13181TIP3    H161034   5.176   2.779   1.600 -0.1995  0.6010  0.1810
13181TIP3    H261035   5.197   2.842   1.464  1.0767  0.1610  0.1623
13182TIP3   OH261036   4.311   4.760   3.396  0.4257  0.1856 -0.1736
13182TIP3    H161037   4.217   4.741   3.396  0.6089 -0.7552 -0.6399
13182TIP3    H261038   4.323   4.823   3.467 -0.4585 -0.1887  0.3138
13183TIP3   OH261039   2.114   6.587   5.274 -0.1692  0.0345 -0.7280
13183TIP3    H161040   2.032   6.550   5.306 -0.8605  3.2658  1.4559
13183TIP3    H261041   2.182   6.534   5.318 -1.1135  0.1654  0.9486
13184TIP3   OH261042   5.527   5.152   6.496  0.8420 -0.0023 -0.1767
13184TIP3    H161043   5.562   5.101   6.569  0.3306  0.1688  0.1951
13184TIP3    H261044   5.493   5.086   6.435  0.3127 -0.1118  0.2364
13185TIP3   OH261045   3.364   4.915  14.407 -0.2422  0.0338 -0.1693
13185TIP3    H161046   3.352   5.002  14.369  1.0984  0.1296 -0.3800
13185TIP3    H261047   3.285   4.867  14.383 -0.6262  0.9433 -0.7339
13186TIP3   OH261048   4.001   0.921   1.067  0.0980  0.0906  0.2647
13186TIP3    H161049   4.054   0.887   0.995  0.1189 -0.5775  0.5917
13186TIP3    H261050   3.911   0.919   1.034  0.2657  1.2175 -0.2877
13187TIP3   OH261051   2.321   1.807  16.213  0.0858 -0.5088 -0.0041
13187TIP3    H161052   2.348   1.849  16.294 -0.3311 -2.4613  1.1660
13187TIP3    H261053   2.334   1.714  16.228 -2.9476 -1.1718 -1.0103
13188TIP3   OH261054   2.626   5.947   1.444 -0.1667 -0.1814  0.1248
13188TIP3    H161055   2.563   5.955   1.372 -1.1342 -1.8684  0.7408
13188TIP3    H261056   2.705   5.913   1.403 -0.3207  0.0074 -0.3330
13189TIP3   OH261057   5.072   0.500  11.445  0.2207 -0.1042  0.0653
13189TIP3    H161058   5.064   0.577  11.501  2.3803  0.2744 -0.1145
13189TIP3    H261059   5.162   0.502  11.412  0.2522 -2.5560 -0.1622
13190TIP3   OH261060   6.136   4.150  17.171 -0.1821 -0.5707  0.4829
13190TIP3    H161061   6.082   4.091  17.119 -1.4445  0.3033  0.7773
13190TIP3    H261062   6.121   4.123  17.262  1.0627 -1.3017  0.4849
13191TIP3   OH261063   2.226   2.267   4.688  0.5059  0.1476  0.2673
13191TIP3    H161064   2.278   2.249   4.766 -0.3386  0.5655  0.9435
13191TIP3    H261065   2.152   2.318   4.720  0.1590  0.3440 -0.8178
13192TIP3   OH261066   6.800   2.183  15.010 -0.9617 -0.3223 -0.1889
13192TIP3    H161067   6.830   2.172  14.920  1.8657 -1.5337  0.8444
13192TIP3    H261068   6.706   2.166  15.006 -0.7673 -1.0822 -2.7821
13193TIP3   OH261069   6.268   6.331   0.597  0.1204 -0.1838 -0.0884
13193TIP3    H161070   6.178   6.296   0.595 -0.7603  2.1301 -2.7726
13193TIP3    H261071   6.319   6.262   0.640 -1.9286 -3.9119 -3.3578
13194TIP3   OH261072   3.505   0.673  14.872 -0.1930 -0.3886  0.5673
13194TIP3    H161073   3.431   0.733  14.865  2.2046  2.5899 -0.1663
13194TIP3    H261074   3.534   0.683  14.963  0.8850  0.4522  0.1463
13195TIP3   OH261075   5.107   3.191  16.670  0.2754 -0.4515 -0.6026
13195TIP3    H161076   5.123   3.112  16.619 -1.6728 -0.2512 -1.5721
13195TIP3    H261077   5.019   3.219  16.645  0.1243  0.8754  1.2541
13196TIP3   OH261078   6.425   3.086  14.566  0.3615 -0.1238 -0.0229
13196TIP3    H161079   6.332   3.089  14.587  0.4562  1.6171  0.2133
13196TIP3    H261080   6.458   3.008  14.611 -1.0199 -0.9053 -0.3353
13197TIP3   OH261081   1.426   3.438  11.515  0.2841 -0.0186  0.0973
13197TIP3    H161082   1.369   3.385  11.461  1.1359 -0.9082  0.0528
13197TIP3    H261083   1.420   3.526  11.478 -1.0776 -0.0905  0.1291
13198TIP3   OH261084   3.238   6.045   6.073  0.1998  0.0270  0.7024
13198TIP3    H161085   3.242   5.978   6.141  1.8781 -0.2649  0.3271
13198TIP3    H261086   3.218   5.997   5.993 -2.1311  0.4127  1.0213
13199TIP3   OH261087   4.827   3.996  16.166 -0.4670  0.8974  0.1005
13199TIP3    H161088   4.771   4.073  16.154 -0.6619  0.7807  0.2722
13199TIP3    H261089   4.772   3.922  16.143 -0.2281  0.8194 -0.2254
13200TIP3   OH261090   0.993   2.894  16.148 -0.2612  0.2903 -0.7872
13200TIP3    H161091   1.062   2.957  16.127 -1.6420  1.4475 -1.9964
13200TIP3    H261092   0.964   2.919  16.236  0.4335  0.1784 -0.5200
13201TIP3   OH261093   2.677   0.071  14.791  0.2351 -0.8181  0.5195
13201TIP3    H161094   2.588   0.037  14.789 -0.1310  0.1335  0.1994
13201TIP3    H261095   2.672   0.149  14.846  0.4197  0.4126 -1.1657
13202TIP3   OH261096   1.991   5.788  11.527 -0.1489 -0.1520  0.2108
13202TIP3    H161097   1.998   5.851  11.456  0.6042 -0.4333  0.0384
13202TIP3    H261098   2.038   5.710  11.496  0.2596 -0.2470  1.0445
13203TIP3   OH261099   4.794   1.564  14.628  0.3707 -0.1155 -0.0985
13203TIP3    H161100   4.788   1.659  14.638  1.1556 -0.1542  0.8000
13203TIP3    H261101   4.888   1.546  14.625  0.2214 -0.8138 -0.7705
13204TIP3   OH261102   5.871   0.849   3.327 -0.1000 -0.7481 -0.0434
13204TIP3    H161103   5.873   0.935   3.286  1.3660 -1.4120 -1.3837
13204TIP3    H261104   5.815   0.861   3.404  0.0835  1.3865 -0.2149
13205TIP3   OH261105   4.547   5.948   5.884 -1.0319  0.6307 -0.3773
13205TIP3    H161106   4.641   5.929   5.889 -0.5371  2.4754 -2.2830
13205TIP3    H261107   4.523   5.970   5.974  0.5607  1.0880 -0.0400
13206TIP3   OH261108   4.740   5.317   4.495 -0.1909  0.0762  0.4864
13206TIP3    H161109   4.812   5.264   4.530 -0.4055 -0.5007  0.0764
13206TIP3    H261110   4.703   5.361   4.571 -0.8699 -1.4236  1.0578
13207TIP3   OH261111   3.201   0.697   0.493  0.0575  0.1597  0.1812
13207TIP3    H161112   3.248   0.619   0.521 -1.6398 -0.7631  0.4904
13207TIP3    H261113   3.143   0.667   0.423 -1.2460  0.9393  0.8974
13208TIP3   OH261114   2.528   0.670  16.838  0.2662 -0.2265 -0.2865
13208TIP3    H161115   2.610   0.666  16.887  0.3707  0.2570 -0.4163
13208TIP3    H261116   2.515   0.764  16.821 -1.0142 -0.1850  0.8998
13209TIP3   OH261117   3.039   0.759   2.058 -0.0796  0.5329  0.2640
13209TIP3    H161118   3.010   0.680   2.105 -0.8589  0.1999 -0.7548
13209TIP3    H261119   3.077   0.726   1.977  2.8933  0.9870  1.3927
13210TIP3   OH261120   2.083   6.536   5.963 -0.6820  0.0316  0.1057
13210TIP3    H161121   2.096   6.463   5.902 -0.9449 -0.5220  0.7028
13210TIP3    H261122   2.165   6.541   6.012 -0.2388  0.8725 -0.7016
13211TIP3   OH261123   3.864   4.752   5.337 -0.2579 -0.0892 -0.0471
13211TIP3    H161124   3.938   4.791   5.291  1.0744 -0.6827  1.5053
13211TIP3    H261125   3.842   4.674   5.286 -0.2896  0.5007 -0.9334
13212TIP3   OH261126   4.297   6.326   1.539 -0.5145 -0.5647  0.4878
13212TIP3    H161127   4.244   6.373   1.475 -1.2248  0.1704  1.5947
13212TIP3    H261128   4.234   6.272   1.586 -0.1188 -0.4899  1.1015
13213TIP3   OH261129   4.296   1.633   4.251 -0.0097  0.9705 -0.1265
13213TIP3    H161130   4.240   1.655   4.326  1.1030  0.4388  0.8823
13213TIP3    H261131   4.380   1.608   4.290  0.1573 -0.7025 -1.4718
13214TIP3   OH261132   3.207   4.306   3.182  0.3788  0.2565 -0.2237
13214TIP3    H161133   3.245   4.383   3.224 -1.0878 -0.9641  3.5997
13214TIP3    H261134   3.115   4.306   3.208 -0.1935 -1.5290 -2.0751
13215TIP3   OH261135   3.028   6.798   6.345 -0.1350 -0.8052 -0.0234
13215TIP3    H161136   3.006   6.707   6.364 -0.1466 -0.7996 -0.0112
13215TIP3    H261137   2.947   6.836   6.311 -0.6225 -0.3323  1.6182
13216TIP3   OH261138   4.726   6.326  16.887  0.1909  0.4699  0.2816
13216TIP3    H161139   4.738   6.321  16.792 -0.8345  0.6261  0.1363
13216TIP3    H261140   4.690   6.414  16.902 -1.2156 -0.1421  0.6252
13217TIP3   OH261141   2.214   0.541  12.961  0.5256 -0.2267  0.2090
13217TIP3    H161142   2.206   0.622  12.910 -2.7786 -1.2389 -1.0082
13217TIP3    H261143   2.241   0.476  12.897 -1.3245 -1.0031  0.1771
13218TIP3   OH261144   0.228   5.421   1.664  0.1288  0.1410 -0.2046
13218TIP3    H161145   0.215   5.473   1.585 -1.2075  0.1099 -0.0155
13218TIP3    H261146   0.310   5.454   1.701 -0.1063  1.3118 -0.7075
13219TIP3   OH261147   2.525   1.051  13.762  0.1347 -0.4502  0.8139
13219TIP3    H161148   2.451   1.106  13.788  0.4909 -0.0813  1.0580
13219TIP3    H261149   2.512   1.038  13.668  0.1166  0.1690  0.7236
13220TIP3   OH261150   6.595   1.231   2.504 -0.3141 -0.7247  0.1579
13220TIP3    H161151   6.564   1.153   2.457  0.2233 -0.4852 -0.6178
13220TIP3    H261152   6.597   1.299   2.437 -0.9141 -0.0063  0.8661
13221TIP3   OH261153   4.305   6.279   1.209 -0.1709 -0.2655 -0.0331
13221TIP3    H161154   4.299   6.186   1.189  1.0332  0.0064 -1.7439
13221TIP3    H261155   4.395   6.291   1.239 -0.5370  0.2379  0.9011
13222TIP3   OH261156   6.402   1.363  12.667  0.4013 -0.0943  0.2055
13222TIP3    H161157   6.413   1.366  12.572 -0.1065  0.4272  0.1598
13222TIP3    H261158   6.341   1.435  12.686 -0.0593 -0.6541  0.8492
13223TIP3   OH261159   3.320   6.622  14.893 -0.3864  0.2862 -0.2589
13223TIP3    H161160   3.295   6.542  14.848 -1.9884  0.9379 -0.5765
13223TIP3    H261161   3.322   6.689  14.825 -1.6906  1.0391  0.4201
13224TIP3   OH261162   3.386   6.677   3.097  0.0363  0.1828 -0.2044
13224TIP3    H161163   3.470   6.706   3.132  1.0867 -1.1634 -1.5272
13224TIP3    H261164   3.402   6.586   3.070 -2.1431 -0.4461  0.5199
13225TIP3   OH261165   4.502   6.058  17.075 -0.2301 -0.1913  0.4810
13225TIP3    H161166   4.550   6.062  16.992 -1.5827 -1.8501 -0.4341
13225TIP3    H261167   4.563   6.091  17.140  1.3866 -0.2529 -0.9624
13226TIP3   OH261168   5.885   5.979  15.221  0.1174  0.5343 -0.3054
13226TIP3    H161169   5.942   6.020  15.156 -0.2840  1.4232 -0.1001
13226TIP3    H261170   5.888   6.037  15.297 -3.6454  2.3902 -1.4589
13227TIP3   OH261171   2.195   2.642  11.539  0.0093 -0.0459  0.1376
13227TIP3    H161172   2.137   2.646  11.616 -0.5216  1.1419 -0.3155
13227TIP3    H261173   2.277   2.680  11.570 -0.8242  2.2594 -0.4186
13228TIP3   OH261174   3.004   0.229  13.026 -0.3061  0.3591 -0.0612
13228TIP3    H161175   3.086   0.278  13.020  0.4362 -0.9517 -0.8017
13228TIP3    H261176   3.012   0.160  12.960 -1.6892 -0.2367  0.3744
13229TIP3   OH261177   0.156   4.162   5.747 -0.1065  0.6628 -0.6860
13229TIP3    H161178   0.183   4.252   5.730  0.5258  0.8819  1.3153
13229TIP3    H261179   0.231   4.123   5.793  0.4328 -1.4947 -3.2346
13230TIP3   OH261180   4.052   4.834  16.450  0.1257 -0.4253 -0.0132
13230TIP3    H161181   4.040   4.903  16.385 -2.9192 -0.8368  0.0427
13230TIP3    H261182   4.068   4.755  16.398 -0.9106 -0.5024 -0.2123
13231TIP3   OH261183   4.998   2.505  12.309 -0.1569  0.2577  0.6225
13231TIP3    H161184   5.006   2.586  12.258  0.4829 -0.1670  0.0261
13231TIP3    H261185   5.088   2.475  12.320 -0.4786 -1.1519 -0.4449
13232TIP3   OH261186   1.179   5.000   4.348 -0.7353  0.1953  0.3745
13232TIP3    H161187   1.173   4.976   4.440 -0.6431  0.6957  0.5118
13232TIP3    H261188   1.231   5.081   4.347  0.3324 -0.4767 -0.2227
13233TIP3   OH261189   4.716   1.694  16.698 -0.0709 -0.3637 -0.3306
13233TIP3    H161190   4.811   1.684  16.704 -0.1820 -0.9822  0.4422
13233TIP3    H261191   4.683   1.656  16.779 -0.8508  1.8252  0.4180
13234TIP3   OH261192   1.482   3.529  17.244 -0.0605  0.3215  0.4425
13234TIP3    H161193   1.402   3.525  17.296 -0.7100 -1.7335 -0.6488
13234TIP3    H261194   1.453   3.558  17.158  0.6159  1.1164  0.4769
13235TIP3   OH261195   0.644   0.491  13.055  0.2846 -0.0381 -0.5697
13235TIP3    H161196   0.636   0.475  12.961 -2.7715 -0.7144 -0.2407
13235TIP3    H261197   0.654   0.404  13.093 -0.9625  0.0453 -0.0548
13236TIP3   OH261198   5.690   3.787   5.645  0.5792  0.5426  0.3495
13236TIP3    H161199   5.779   3.792   5.609  0.9933 -2.2522  0.8531
13236TIP3    H261200   5.701   3.799   5.739  0.0864  2.7717  0.1486
13237TIP3   OH261201   2.064   0.337  15.872  0.5821 -0.0077  0.9210
13237TIP3    H161202   2.103   0.356  15.787  0.1273  1.3347  0.9958
13237TIP3    H261203   2.125   0.276  15.914  0.3541 -1.4220 -0.7189
13238TIP3   OH261204   0.680   0.653   4.387 -0.3220 -0.6462  0.0260
13238TIP3    H161205   0.761   0.608   4.365 -0.4601 -2.0925  2.2720
13238TIP3    H261206   0.690   0.677   4.479 -2.3812 -0.7759  0.3153
13239TIP3   OH261207   1.510   1.826   3.539  0.4690 -0.5930  0.2385
13239TIP3    H161208   1.544   1.737   3.552  1.3790 -0.3222 -0.2287
13239TIP3    H261209   1.418   1.814   3.516  0.7421 -1.4519 -0.4254
13240TIP3   OH261210   3.446   0.768  13.322 -0.5664 -0.0459  0.1856
13240TIP3    H161211   3.494   0.814  13.391  0.2679  0.0269 -0.4483
13240TIP3    H261212   3.437   0.833  13.252 -1.4369 -0.1142  0.2230
13241TIP3   OH261213   1.586   1.083   0.546  0.0536 -0.7433 -0.2678
13241TIP3    H161214   1.670   1.037   0.540  0.6165  0.4725 -2.1527
13241TIP3    H261215   1.579   1.129   0.463 -2.4856 -0.8192 -0.1226
13242TIP3   OH261216   3.240   2.450   1.527  0.4108 -0.3194  0.5698
13242TIP3    H161217   3.326   2.422   1.558  0.8473  1.6342  1.2340
13242TIP3    H261218   3.256   2.533   1.481 -0.8693 -0.8668 -0.9197
13243TIP3   OH261219   2.180   2.563  15.632 -0.2583 -0.0594  0.1629
13243TIP3    H161220   2.124   2.502  15.585 -1.7284  0.9780  0.5390
13243TIP3    H261221   2.226   2.509  15.696 -1.0688 -0.8622  0.0710
13244TIP3   OH261222   5.836   0.815  11.768  0.5576  0.1530 -0.0681
13244TIP3    H161223   5.771   0.872  11.727  1.0306  1.2444  0.6680
13244TIP3    H261224   5.789   0.735  11.788 -0.3138  0.5715 -0.4338
13245TIP3   OH261225   6.626   3.528  12.582  0.1055  0.3836  0.2455
13245TIP3    H161226   6.551   3.538  12.641 -1.1993 -0.8743 -1.1348
13245TIP3    H261227   6.608   3.589  12.510  0.8878  0.7626  0.3674
13246TIP3   OH261228   2.683   1.212  16.779 -0.6030 -0.0481  0.0057
13246TIP3    H161229   2.742   1.156  16.829 -1.8880 -0.5765  0.9557
13246TIP3    H261230   2.728   1.226  16.695  1.5396  0.7962  1.2699
13247TIP3   OH261231   4.828   2.997  13.731 -0.3422  0.2261  0.4397
13247TIP3    H161232   4.859   3.039  13.651 -0.2980 -0.4642  0.0970
13247TIP3    H261233   4.875   2.914  13.734 -2.2983 -0.9177 -0.1787
13248TIP3   OH261234   0.154   0.482  12.285  0.4277 -0.7532  0.2310
13248TIP3    H161235   0.179   0.391  12.295 -1.7143 -1.2545  1.4685
13248TIP3    H261236   0.166   0.501  12.192  0.9488 -2.2629 -0.0145
13249TIP3   OH261237   6.191   6.673   4.008  0.4762 -0.2630 -0.0334
13249TIP3    H161238   6.135   6.627   3.945  2.1980 -2.5171  0.0216
13249TIP3    H261239   6.159   6.645   4.093  1.0786 -0.8138  0.0135
13250TIP3   OH261240   0.979   2.757  12.447  0.4089 -0.3789  0.2838
13250TIP3    H161241   0.889   2.741  12.476  0.2645 -0.6935 -0.3392
13250TIP3    H261242   0.969   2.804  12.364  0.8220  0.8711  0.9219
13251TIP3   OH261243   3.703   3.034   2.185  0.2729 -0.1526 -0.2124
13251TIP3    H161244   3.798   3.046   2.182  0.1689  1.4746  1.8695
13251TIP3    H261245   3.668   3.122   2.199 -1.6152 -0.5926 -1.9360
13252TIP3   OH261246   2.061   3.446   3.846  0.5931  0.8156  0.3409
13252TIP3    H161247   2.060   3.492   3.930  1.0612  0.7704  0.3719
13252TIP3    H261248   1.984   3.390   3.848 -0.1323  1.7907  0.2031
13253TIP3   OH261249   2.150   5.002   4.914 -0.6257  0.5667  0.0870
13253TIP3    H161250   2.055   5.004   4.907 -0.9401 -1.5373  2.7379
13253TIP3    H261251   2.170   5.057   4.990  0.3329  1.6260 -0.9210
13254TIP3   OH261252   0.210   5.448   2.160  0.1646  0.2045 -0.0916
13254TIP3    H161253   0.245   5.373   2.112 -0.3249  0.6629 -1.1820
13254TIP3    H261254   0.131   5.473   2.112 -2.5037 -1.6763  3.0997
13255TIP3   OH261255   0.276   3.014  12.767 -0.2712  0.3136 -0.5815
13255TIP3    H161256   0.280   3.059  12.851 -2.7730  0.6461 -0.6112
13255TIP3    H261257   0.298   3.081  12.702 -0.1875  0.5180 -0.3428
13256TIP3   OH261258   2.899   4.012   1.629 -0.0816 -0.1635 -0.0410
13256TIP3    H161259   2.927   4.089   1.679  0.2180  0.3374 -0.9759
13256TIP3    H261260   2.977   3.956   1.626 -0.4726 -0.7757  1.1488
13257TIP3   OH261261   3.753   4.471  14.466  0.2115  0.2451  0.5466
13257TIP3    H161262   3.707   4.388  14.477 -1.9079  1.2395 -0.6891
13257TIP3    H261263   3.796   4.464  14.381  0.1301  0.3790  0.4956
13258TIP3   OH261264   6.676   2.754  13.956 -0.6371  0.3487  0.3026
13258TIP3    H161265   6.620   2.763  13.879  0.4208  1.5853 -0.3387
13258TIP3    H261266   6.655   2.830  14.010 -0.3181  0.2589  0.5561
13259TIP3   OH261267   2.846   3.457  11.616  0.5636 -0.2678 -0.2316
13259TIP3    H161268   2.898   3.405  11.676  0.9016 -0.4736 -0.6992
13259TIP3    H261269   2.758   3.456  11.654  0.6871 -0.7261  0.0492
13260TIP3   OH261270   2.961   3.457   5.752  0.7297 -0.0679  0.2248
13260TIP3    H161271   3.012   3.426   5.826 -0.1757  0.3573  1.0473
13260TIP3    H261272   2.978   3.394   5.682  0.2153 -1.4786  1.3524
13261TIP3   OH261273   2.081   5.563   6.204 -0.5089  0.2560  0.2804
13261TIP3    H161274   2.046   5.489   6.254  1.1219 -0.8296 -0.1146
13261TIP3    H261275   2.166   5.531   6.172  0.3183  2.4015  0.2963
13262TIP3   OH261276   0.951   5.083  14.468 -0.2377  0.1462 -1.4563
13262TIP3    H161277   0.862   5.100  14.435 -1.9466 -2.5730  1.4321
13262TIP3    H261278   0.937   5.037  14.551  3.8912  2.8322  0.8739
13263TIP3   OH261279   2.237   3.939  15.070 -0.1038 -0.6175  0.1078
13263TIP3    H161280   2.269   3.952  14.981  0.0374 -0.5746  0.1633
13263TIP3    H261281   2.218   4.027  15.102 -0.3664 -0.6519  0.0424
13264TIP3   OH261282   4.523   0.151  11.771 -0.2451  0.4137 -0.2996
13264TIP3    H161283   4.514   0.244  11.790 -1.7362  0.7697 -2.5566
13264TIP3    H261284   4.433   0.118  11.772  0.0626 -0.5165 -1.8377
13265TIP3   OH261285   4.984   3.226   5.194  0.0252  0.8901  0.1562
13265TIP3    H161286   5.040   3.291   5.237 -0.1761  1.2563 -0.1309
13265TIP3    H261287   4.902   3.272   5.178 -0.0554  0.6166 -0.2110
13266TIP3   OH261288   1.218   6.035   1.930 -0.4199  0.0674 -0.6232
13266TIP3    H161289   1.165   6.033   2.009  1.2894  0.4542  0.5685
13266TIP3    H261290   1.180   6.105   1.877  0.2018  1.7752  1.1485
13267TIP3   OH261291   2.831   2.764  15.953  0.2890  0.3190 -0.4943
13267TIP3    H161292   2.882   2.790  15.876  0.2134  0.4454 -0.5012
13267TIP3    H261293   2.897   2.747  16.021  0.2097  3.2222  0.3426
13268TIP3   OH261294   5.677   1.472  16.495 -0.1314 -0.1837  0.3447
13268TIP3    H161295   5.742   1.492  16.427  0.7417 -0.4383  1.1030
13268TIP3    H261296   5.726   1.426  16.563 -1.4322 -1.8149  0.2017
13269TIP3   OH261297   1.796   2.532   0.150 -0.3529  0.5271  0.0368
13269TIP3    H161298   1.707   2.567   0.160 -0.5421  0.1774 -0.4169
13269TIP3    H261299   1.850   2.609   0.132 -0.5627  0.7398  0.2970
13270TIP3   OH261300   3.989   1.494   5.547  0.0081  1.0204  0.0000
13270TIP3    H161301   3.934   1.567   5.519 -1.3424  0.9438  2.3374
13270TIP3    H261302   4.038   1.528   5.622 -1.3369 -0.6953  1.7188
13271TIP3   OH261303   1.427   4.592  11.781 -0.3173  0.1110  0.5717
13271TIP3    H161304   1.337   4.608  11.809 -0.3679 -2.0512  1.7238
13271TIP3    H261305   1.478   4.595  11.862  0.4023 -0.3160  0.1386
13272TIP3   OH261306   4.459   6.817  12.806 -0.0238  0.0369 -0.1713
13272TIP3    H161307   4.479   6.897  12.758 -1.6118 -0.4344 -1.6734
13272TIP3    H261308   4.515   6.751  12.766  0.3210  0.1190  0.1758
13273TIP3   OH261309   2.018   1.501  17.149  0.1872 -0.2330  0.1541
13273TIP3    H161310   1.935   1.544  17.171  0.9681  0.0769  2.6020
13273TIP3    H261311   2.073   1.571  17.116 -0.2074 -0.2665 -0.5819
13274TIP3   OH261312   3.224   4.774  13.124 -0.5754 -0.1697  0.4506
13274TIP3    H161313   3.264   4.854  13.159 -1.5299  0.6261 -0.2479
13274TIP3    H261314   3.227   4.712  13.197  0.6433  0.3280  0.8407
13275TIP3   OH261315   2.440   5.423  12.705 -0.2081  0.0550 -0.0333
13275TIP3    H161316   2.471   5.410  12.795  0.7093  1.5284 -0.1181
13275TIP3    H261317   2.468   5.344  12.658  1.8969  0.5566  0.3127
13276TIP3   OH261318   4.693   6.679  17.002  0.5093 -0.8102  0.2096
13276TIP3    H161319   4.749   6.746  17.040  1.5948 -0.4033 -2.0031
13276TIP3    H261320   4.611   6.724  16.983  1.5083  0.1719 -2.0214
13277TIP3   OH261321   1.162   3.958  16.534  0.1905 -0.0420 -0.2339
13277TIP3    H161322   1.183   4.035  16.481  0.1939  0.3024  0.2699
13277TIP3    H261323   1.083   3.922  16.495 -0.4188  0.8340  0.1927
13278TIP3   OH261324   0.745   5.120   3.765 -0.0711  0.1895 -0.5499
13278TIP3    H161325   0.837   5.145   3.764  0.3296 -1.1824 -3.2715
13278TIP3    H261326   0.711   5.156   3.847  2.2115  3.1075 -0.7890
13279TIP3   OH261327   5.978   0.187  12.415 -0.0429 -0.2666  0.1699
13279TIP3    H161328   5.891   0.207  12.380  0.5006  2.1954  0.1797
13279TIP3    H261329   6.038   0.203  12.343  0.6432  0.4781  0.8944
13280TIP3   OH261330   4.298   2.576   1.336 -0.1777  0.9229 -0.5123
13280TIP3    H161331   4.314   2.658   1.289 -0.7294  1.7902  0.7799
13280TIP3    H261332   4.350   2.584   1.417  3.0774 -1.7631 -2.1887
13281TIP3   OH261333   1.536   4.564  15.985 -0.3595 -0.2190 -0.6569
13281TIP3    H161334   1.442   4.583  15.988 -0.5659 -0.9361 -2.2238
13281TIP3    H261335   1.570   4.628  15.923  0.9532  3.0029  3.1784
13282TIP3   OH261336   3.157   4.811   1.903 -0.0058 -1.1097 -0.3113
13282TIP3    H161337   3.137   4.717   1.908 -0.9034 -0.9079  0.0413
13282TIP3    H261338   3.093   4.846   1.841 -0.9227 -0.4250  0.9791
13283TIP3   OH261339   0.468   0.776  16.101 -0.4325 -0.0747 -0.3866
13283TIP3    H161340   0.508   0.862  16.089  1.4178 -0.8184  0.2238
13283TIP3    H261341   0.528   0.730  16.160 -0.8703 -2.1249 -1.4848
13284TIP3   OH261342   6.728   1.955  13.769  0.3139  0.4230 -0.0610
13284TIP3    H161343   6.820   1.963  13.794  0.8486  0.6403 -1.9618
13284TIP3    H261344   6.730   1.914  13.682 -1.3845  0.3624 -0.0994
13285TIP3   OH261345   3.755   5.514  16.774 -0.1150  0.2023 -0.3466
13285TIP3    H161346   3.842   5.508  16.813  0.0146  0.1581 -0.6402
13285TIP3    H261347   3.770   5.549  16.687 -0.5149  1.3021  0.0207
13286TIP3   OH261348   2.552   0.894  16.614  0.4002  0.1204 -0.7206
13286TIP3    H161349   2.473   0.868  16.567 -0.6668 -1.4427  1.7888
13286TIP3    H261350   2.521   0.924  16.699  2.4411  0.0942  0.0818
13287TIP3   OH261351   3.810   5.067   5.057  0.2697  0.0723  0.1248
13287TIP3    H161352   3.817   5.072   4.962 -0.3771 -0.6468  0.0352
13287TIP3    H261353   3.868   4.995   5.081  0.6108  0.4037  0.3001
13288TIP3   OH261354   1.440   1.243   4.083 -0.0089  0.1360 -0.4760
13288TIP3    H161355   1.392   1.160   4.093 -1.0002  0.4773 -2.2726
13288TIP3    H261356   1.374   1.311   4.099  0.3031  0.5954 -1.1315
13289TIP3   OH261357   6.691   4.882  15.347  0.3499  0.2931  0.2940
13289TIP3    H161358   6.693   4.790  15.319 -0.6299  0.7707 -1.4309
13289TIP3    H261359   6.738   4.929  15.278  1.8999  0.9630  1.7695
13290TIP3   OH261360   4.232   1.213  17.261  0.7978  0.1341 -0.2178
13290TIP3    H161361   4.244   1.132  17.311 -2.3457 -0.5090 -0.3625
13290TIP3    H261362   4.298   1.273  17.295  2.7590 -2.2782  0.3510
13291TIP3   OH261363   4.868   0.326   2.876 -0.2594 -0.0583 -0.2275
13291TIP3    H161364   4.846   0.239   2.907  1.0121 -0.1782  0.3822
13291TIP3    H261365   4.923   0.310   2.799  0.7485  0.1922  0.4372
13292TIP3   OH261366   1.955   5.324  11.377  0.1999  0.1070  0.2128
13292TIP3    H161367   1.937   5.379  11.300  0.0783 -2.5039 -1.6817
13292TIP3    H261368   1.869   5.293  11.405  0.4578 -0.9407 -0.1387
13293TIP3   OH261369   1.118   1.077  17.182 -0.0379  0.4124  0.6587
13293TIP3    H161370   1.192   1.059  17.124  0.3176  0.3255  1.1252
13293TIP3    H261371   1.042   1.039  17.138 -0.0163  1.5868 -0.4129
13294TIP3   OH261372   0.771   0.480   5.224 -0.7555  0.4060 -0.3154
13294TIP3    H161373   0.824   0.513   5.296 -1.5280  0.7770  0.0931
13294TIP3    H261374   0.829   0.482   5.148 -0.8992  3.1642 -0.4033
13295TIP3   OH261375   2.977   1.542  16.302  0.4415  0.1263  0.0910
13295TIP3    H161376   3.038   1.605  16.264 -0.5526  0.5913 -0.7906
13295TIP3    H261377   2.942   1.586  16.379  0.5386  0.2332  0.0716
13296TIP3   OH261378   5.298   1.983   5.783  0.3259 -0.0263  0.6647
13296TIP3    H161379   5.297   1.918   5.853  0.6257 -0.6685  0.0818
13296TIP3    H261380   5.385   2.022   5.787  1.5017 -2.3099 -1.3684
13297TIP3   OH261381   5.542   6.386   1.244 -0.2848  0.0549 -0.1596
13297TIP3    H161382   5.570   6.372   1.153 -0.6020 -2.1424  0.0433
13297TIP3    H261383   5.467   6.445   1.237 -0.0300  0.2601 -1.2984
13298TIP3   OH261384   3.563   2.065   4.236 -1.0054  0.4367 -0.5160
13298TIP3    H161385   3.496   2.064   4.304 -0.1174 -0.7635  0.3611
13298TIP3    H261386   3.593   1.974   4.231  1.9431  1.3081  0.4698
13299TIP3   OH261387   2.030   5.147   5.120 -0.3707 -0.2191  0.5393
13299TIP3    H161388   1.940   5.165   5.096 -0.8562  0.0744  2.5000
13299TIP3    H261389   2.072   5.233   5.124 -0.8413 -0.0733  2.7864
13300TIP3   OH261390   5.619   0.886  13.620 -0.3191 -0.3193 -0.3663
13300TIP3    H161391   5.649   0.974  13.644  0.5713 -0.0823 -2.2616
13300TIP3    H261392   5.664   0.867  13.538 -0.3671 -2.6308  0.1227
13301TIP3   OH261393   1.009   1.683  16.693 -0.0366  0.0428  0.2298
13301TIP3    H161394   1.039   1.711  16.780  0.8874  0.3901 -0.1948
13301TIP3    H261395   1.078   1.625  16.662 -0.9336 -1.0430  0.2091
13302TIP3   OH261396   6.496   1.446  11.948  0.2440  0.0861  0.0864
13302TIP3    H161397   6.584   1.409  11.954  1.4865  2.7016 -1.2019
13302TIP3    H261398   6.484   1.492  12.031  0.8130  1.1865 -0.4275
13303TIP3   OH261399   4.013   5.662  11.737 -0.2712 -0.1437 -0.3908
13303TIP3    H161400   4.005   5.746  11.692 -0.1471  0.9289  1.5123
13303TIP3    H261401   4.108   5.647  11.743 -0.2655  0.1834  0.3465
13304TIP3   OH261402   0.474   1.367  14.624 -0.1264  0.2697 -0.0521
13304TIP3    H161403   0.404   1.418  14.665  0.0845  0.8041 -0.3477
13304TIP3    H261404   0.537   1.433  14.595 -0.3908 -0.0747 -1.4591
13305TIP3   OH261405   1.818   5.496   2.203 -0.2430 -0.3821 -0.0713
13305TIP3    H161406   1.763   5.551   2.147 -1.1901 -0.4490  0.7813
13305TIP3    H261407   1.775   5.499   2.288  1.8909  0.7779  0.9994
13306TIP3   OH261408   2.392   2.784  11.734  0.2742 -0.3462  0.0554
13306TIP3    H161409   2.401   2.833  11.652  0.4482 -0.8068 -0.2037
13306TIP3    H261410   2.473   2.802  11.782  0.7274 -1.0800 -0.4237
13307TIP3   OH261411   0.247   4.285  14.234  0.2726  0.4302 -0.2534
13307TIP3    H161412   0.231   4.322  14.321  0.2566 -0.5560  0.1668
13307TIP3    H261413   0.332   4.242  14.242 -0.2488 -0.6419 -0.3956
13308TIP3   OH261414   1.177   5.082   5.056 -0.0638  0.0571 -0.0048
13308TIP3    H161415   1.132   5.028   4.991 -0.6311  0.1849  0.2743
13308TIP3    H261416   1.266   5.091   5.023 -0.1532 -0.4787 -0.4007
13309TIP3   OH261417   3.520   0.579   5.478 -0.0051 -0.4656 -0.4236
13309TIP3    H161418   3.477   0.528   5.547 -0.4322 -0.2534 -0.5319
13309TIP3    H261419   3.579   0.516   5.435 -0.9731 -1.0352 -0.9506
13310TIP3   OH261420   5.077   1.411   2.763 -0.2904 -0.4415  0.2281
13310TIP3    H161421   5.151   1.380   2.815 -0.7127  3.1180  3.1304
13310TIP3    H261422   5.115   1.435   2.679  1.7882  0.7523  1.4642
13311TIP3   OH261423   5.545   3.391  15.503  0.1032 -0.2411  0.2349
13311TIP3    H161424   5.598   3.346  15.568 -0.2914  1.4438  1.7817
13311TIP3    H261425   5.608   3.425  15.440  0.4690 -2.1344 -0.4416
13312TIP3   OH261426   4.055   4.363  15.099  0.2769  0.2324  0.0274
13312TIP3    H161427   4.009   4.357  15.183  1.3289 -1.7305  0.4965
13312TIP3    H261428   4.147   4.373  15.124  0.6266 -0.6997 -0.8858
13313TIP3   OH261429   6.026   2.103   5.102  0.1274  0.0464  0.2521
13313TIP3    H161430   6.021   2.141   5.014 -1.3146  1.1506  0.7784
13313TIP3    H261431   6.106   2.051   5.102  0.5723  0.7091 -1.4539
13314TIP3   OH261432   1.290   4.019   4.456  0.2272  0.2505  0.2704
13314TIP3    H161433   1.332   4.090   4.505  1.0331 -0.9823  1.4083
13314TIP3    H261434   1.216   3.992   4.512 -0.9301  1.1202 -0.8154
13315TIP3   OH261435   0.653   1.887   5.272 -0.2146  0.2637 -0.4833
13315TIP3    H161436   0.708   1.889   5.350 -1.2787  2.4971  0.2497
13315TIP3    H261437   0.667   1.800   5.235  3.0186  0.4109  0.2289
13316TIP3   OH261438   1.476   4.658  16.380 -0.3785 -0.0228  0.2425
13316TIP3    H161439   1.518   4.572  16.388 -0.6430 -0.0041  2.1114
13316TIP3    H261440   1.383   4.639  16.391 -0.4265  0.5094  0.7696
13317TIP3   OH261441   4.205   2.585  12.062  0.0616 -0.2984 -0.4319
13317TIP3    H161442   4.247   2.656  12.013  2.5091 -0.6080  1.1368
13317TIP3    H261443   4.179   2.625  12.145  0.9053 -1.0428  0.2100
13318TIP3   OH261444   0.666   6.051   0.139 -0.2550  0.2279  0.1192
13318TIP3    H161445   0.590   6.060   0.196  0.6974  1.2278  1.2717
13318TIP3    H261446   0.637   6.084   0.054 -1.6606 -1.1698  0.0421
13319TIP3   OH261447   2.160   5.761  16.152  0.0004  0.1699  0.3348
13319TIP3    H161448   2.157   5.697  16.081  1.2917  0.7104 -0.2201
13319TIP3    H261449   2.236   5.816  16.132 -0.3541  1.0991  1.4735
13320TIP3   OH261450   5.249   6.380  17.138  0.0289 -0.1079  0.1322
13320TIP3    H161451   5.183   6.443  17.110 -0.4555 -1.1227 -1.0525
13320TIP3    H261452   5.255   6.392  17.233  1.1088  2.7988 -0.2767
13321TIP3   OH261453   6.544   1.141   3.836  0.0521  0.0415  0.0581
13321TIP3    H161454   6.481   1.202   3.798  0.4358 -0.0557 -0.7561
13321TIP3    H261455   6.613   1.196   3.872 -0.0145  0.1139  0.0744
13322TIP3   OH261456   2.349   2.841   4.113 -0.2881 -0.3502  1.4882
13322TIP3    H161457   2.368   2.784   4.039 -1.3658 -0.0853  0.9874
13322TIP3    H261458   2.344   2.781   4.188 -0.1083 -0.7402  1.1940
13323TIP3   OH261459   4.885   4.550  13.562 -0.0443  0.0310  0.3792
13323TIP3    H161460   4.925   4.481  13.509  1.6211  0.9848  0.3372
13323TIP3    H261461   4.930   4.544  13.647 -0.2848  0.6857  0.5598
13324TIP3   OH261462   0.490   6.728  11.534 -0.6297 -0.2719  0.4628
13324TIP3    H161463   0.504   6.691  11.621  1.1112  0.6709  0.6089
13324TIP3    H261464   0.415   6.680  11.499 -1.2199 -0.7922  2.4013
13325TIP3   OH261465   6.463   1.505  14.274 -0.2593  0.2221  0.2966
13325TIP3    H161466   6.479   1.412  14.258 -0.4629  0.2124  0.1482
13325TIP3    H261467   6.549   1.546  14.263 -0.3239  0.1604 -0.4420
13326TIP3   OH261468   2.774   1.352   3.820  0.0038 -0.4822 -0.5478
13326TIP3    H161469   2.681   1.331   3.832 -0.6241  1.9653 -0.8247
13326TIP3    H261470   2.811   1.348   3.908 -0.1153 -2.5135 -0.5721
13327TIP3   OH261471   3.643   1.967   1.413  0.2040 -0.1996  0.1603
13327TIP3    H161472   3.737   1.952   1.405 -0.0686 -1.6651 -0.4246
13327TIP3    H261473   3.613   1.899   1.474 -0.3374  0.8130  1.0278
13328TIP3   OH261474   4.708   1.523   3.042 -0.2691 -0.7647  0.2957
13328TIP3    H161475   4.639   1.531   2.977  0.6395  0.2766 -0.5628
13328TIP3    H261476   4.667   1.477   3.115 -1.0592 -2.6993 -1.3351
13329TIP3   OH261477   2.751   5.992   4.900  0.5109 -0.2162  0.3912
13329TIP3    H161478   2.760   5.898   4.886  1.1382 -0.2155  0.7821
13329TIP3    H261479   2.690   6.001   4.973  0.7677 -0.3259  0.6164
13330TIP3   OH261480   6.781   4.012   4.557 -0.4627 -0.3977  0.0624
13330TIP3    H161481   6.864   4.016   4.511 -1.5787 -1.6917 -2.1612
13330TIP3    H261482   6.768   3.919   4.577 -1.3009 -0.1963  0.5158
13331TIP3   OH261483   3.990   6.532   2.340 -0.3467  0.4121  0.3311
13331TIP3    H161484   4.064   6.486   2.380 -0.1717  0.1972 -0.2351
13331TIP3    H261485   3.960   6.474   2.270 -0.0231  1.2243 -0.5024
13332TIP3   OH261486   1.306   4.770  12.210  0.2553 -0.6014  0.7531
13332TIP3    H161487   1.301   4.723  12.127 -2.2733 -0.3986  0.7470
13332TIP3    H261488   1.290   4.861  12.187 -0.8230 -0.5945  1.4967
13333TIP3   OH261489   1.708   2.842   5.046  0.3810  0.2854 -0.0708
13333TIP3    H161490   1.643   2.772   5.033  1.6851 -0.9743  0.0589
13333TIP3    H261491   1.698   2.867   5.138  0.3858 -0.2146  0.0660
13334TIP3   OH261492   4.489   5.938   1.139  0.3360 -0.3650  0.7334
13334TIP3    H161493   4.492   5.982   1.055  0.9216  0.1268  1.0075
13334TIP3    H261494   4.413   5.879   1.133  0.6152 -0.6322 -0.2712
13335TIP3   OH261495   2.488   1.787   5.470 -0.5367  0.0759 -0.3894
13335TIP3    H161496   2.536   1.706   5.489  0.7085  1.2486  1.6022
13335TIP3    H261497   2.550   1.840   5.420 -0.8124  0.4315 -0.3515
13336TIP3   OH261498   6.518   2.258   2.962 -0.1257 -0.0265  0.2685
13336TIP3    H161499   6.611   2.255   2.942 -0.1827  0.7085 -0.1156
13336TIP3    H261500   6.496   2.168   2.987  0.8123 -0.0740  0.9435
13337TIP3   OH261501   6.814   1.867   3.981  0.5732  0.3438  0.5375
13337TIP3    H161502   6.723   1.895   3.977 -0.2050 -1.7624  2.4958
13337TIP3    H261503   6.821   1.799   3.914  0.1072 -1.0085  1.8286
13338TIP3   OH261504   2.978   5.582   3.867 -0.1631  0.2197 -0.1587
13338TIP3    H161505   3.005   5.618   3.782  0.5170  1.0402  0.4025
13338TIP3    H261506   2.963   5.489   3.849  0.2558  0.3266 -1.1174
13339TIP3   OH261507   5.539   1.522   5.429 -0.2994  0.0656 -0.7780
13339TIP3    H161508   5.538   1.594   5.492 -1.0191 -1.1426  0.6178
13339TIP3    H261509   5.503   1.559   5.349  0.5709  1.6021 -0.4715
13340TIP3   OH261510   6.583   2.709   4.409 -0.0854  0.5391 -0.0642
13340TIP3    H161511   6.494   2.674   4.408  0.7832 -1.8883  2.1292
13340TIP3    H261512   6.587   2.761   4.489  0.1458  1.5811 -0.7469
13341TIP3   OH261513   6.418   5.442  13.888  0.0683  0.0587 -0.1581
13341TIP3    H161514   6.395   5.415  13.977 -0.6632 -1.7720 -0.8724
13341TIP3    H261515   6.459   5.528  13.899 -0.4620  0.0882  1.8908
13342TIP3   OH261516   3.607   2.332   2.063 -0.0625 -0.1119  0.1758
13342TIP3    H161517   3.541   2.310   2.129  0.6580 -2.2144  0.2354
13342TIP3    H261518   3.562   2.323   1.979 -0.5393  0.9784  0.3083
13343TIP3   OH261519   0.719   0.287  15.227 -0.6540 -0.2687 -0.6805
13343TIP3    H161520   0.692   0.264  15.316 -1.8088 -0.6684 -1.1275
13343TIP3    H261521   0.649   0.254  15.172 -0.4210  0.8584 -1.6610
13344TIP3   OH261522   5.299   1.340  15.644  0.1434  0.7867 -0.3505
13344TIP3    H161523   5.278   1.264  15.590 -0.8174  0.3852  0.5762
13344TIP3    H261524   5.389   1.362  15.619  0.4803 -0.7186 -0.5585
13345TIP3   OH261525   5.528   0.395  11.202 -0.6493  0.5013 -0.4961
13345TIP3    H161526   5.535   0.306  11.236 -1.4165  1.8122  3.2650
13345TIP3    H261527   5.589   0.397  11.128  0.0127 -2.8887 -0.1157
13346TIP3   OH261528   3.810   5.910   4.352 -0.1018 -0.3993  0.2583
13346TIP3    H161529   3.867   5.924   4.277 -0.1259 -1.0357  0.1151
13346TIP3    H261530   3.738   5.972   4.339  0.7798  0.7200  0.6831
13347TIP3   OH261531   0.930   2.233  11.595  0.9278  0.3046 -0.2601
13347TIP3    H161532   0.848   2.276  11.571  0.4754 -0.6987 -0.5056
13347TIP3    H261533   0.955   2.183  11.518  1.2815 -0.1522  0.1469
13348TIP3   OH261534   4.503   5.430  14.285 -0.0012  0.3597 -0.2992
13348TIP3    H161535   4.598   5.427  14.275 -0.0206 -0.5335 -0.2612
13348TIP3    H261536   4.489   5.469  14.371  0.3538 -0.0786 -0.0383
13349TIP3   OH261537   5.242   1.650  13.220 -0.1695 -0.2173 -0.3814
13349TIP3    H161538   5.320   1.596  13.204 -0.9067 -0.7254 -2.3275
13349TIP3    H261539   5.187   1.595  13.276 -0.7826 -1.3863 -2.1051
13350TIP3   OH261540   0.570   5.156  11.936 -0.4394  0.0086 -0.2251
13350TIP3    H161541   0.496   5.095  11.937  0.1804 -0.7495 -1.1068
13350TIP3    H261542   0.640   5.109  11.981 -0.7187  1.0401  1.3511
13351TIP3   OH261543   0.773   4.862   0.649 -0.1559 -0.0326  0.3759
13351TIP3    H161544   0.747   4.799   0.715 -0.1621  1.1736  1.5598
13351TIP3    H261545   0.700   4.924   0.645 -0.1198 -0.0463 -0.7090
13352TIP3   OH261546   4.650   4.332  12.015 -0.7590 -0.3815 -0.2545
13352TIP3    H161547   4.623   4.362  11.928 -0.7408  0.3255 -0.0217
13352TIP3    H261548   4.710   4.400  12.047 -2.0060  0.1726  0.9673
13353TIP3   OH261549   3.401   3.718  16.883 -0.4666  0.0852 -0.4300
13353TIP3    H161550   3.380   3.805  16.851  1.2516 -0.0295 -1.9255
13353TIP3    H261551   3.331   3.698  16.946 -0.6092  2.7200  0.3135
13354TIP3   OH261552   1.332   2.694   4.304  0.4652  0.0092  0.0317
13354TIP3    H161553   1.421   2.698   4.268  0.8676 -1.8378  0.8006
13354TIP3    H261554   1.317   2.602   4.322 -1.8048  0.2534 -0.5233
13355TIP3   OH261555   5.332   0.959   2.031 -0.1823  0.3986  0.1806
13355TIP3    H161556   5.396   0.921   2.092  0.0021 -0.3629 -0.4755
13355TIP3    H261557   5.247   0.927   2.062 -0.1496  0.5317  0.4108
13356TIP3   OH261558   3.549   6.622   2.141 -0.1060  0.4291  0.5540
13356TIP3    H161559   3.640   6.651   2.148  1.0246 -2.6730 -0.3756
13356TIP3    H261560   3.532   6.619   2.047 -1.4716  1.7720  0.7360
13357TIP3   OH261561   1.771   5.405   1.472 -0.6978 -0.5709 -0.0641
13357TIP3    H161562   1.847   5.433   1.422 -0.2213 -0.3222  0.7875
13357TIP3    H261563   1.748   5.320   1.435  1.2452 -1.5899  1.0067
13358TIP3   OH261564   1.156   2.139   0.300  0.8030  0.2598  0.9317
13358TIP3    H161565   1.142   2.195   0.224  0.2983 -0.4466  0.5035
13358TIP3    H261566   1.105   2.060   0.282  0.1327  0.3634  2.3115
13359TIP3   OH261567   5.695   6.219   3.092 -0.2388 -0.0176  0.1653
13359TIP3    H161568   5.661   6.301   3.056  0.6715  0.1678 -0.2890
13359TIP3    H261569   5.639   6.200   3.168 -0.0844  1.3280  0.6168
13360TIP3   OH261570   1.025   2.019  14.221 -0.5394 -1.0399 -0.2516
13360TIP3    H161571   1.100   2.071  14.250  0.2452 -1.9470 -0.6070
13360TIP3    H261572   0.960   2.083  14.193  0.7726 -0.2507 -1.5903
13361TIP3   OH261573   4.958   0.877   2.554 -0.6311  0.0830  0.0823
13361TIP3    H161574   4.933   0.858   2.644  0.9582 -0.4788  0.4272
13361TIP3    H261575   4.988   0.968   2.555  2.2378 -0.8267  0.7857
13362TIP3   OH261576   3.009   6.173  11.075 -0.6033 -0.4482  0.2040
13362TIP3    H161577   3.000   6.094  11.023 -0.2642  0.5464 -1.3905
13362TIP3    H261578   2.929   6.223  11.057 -0.3926 -0.0022  0.4826
13363TIP3   OH261579   2.693   0.273  14.998  0.2644  0.1654 -0.3427
13363TIP3    H161580   2.724   0.236  15.081 -0.7859 -1.0029 -0.4593
13363TIP3    H261581   2.656   0.358  15.021 -0.9349 -0.5878  0.5493
13364TIP3   OH261582   6.796   6.633   0.081 -0.6397 -0.2010 -0.3279
13364TIP3    H161583   6.821   6.574   0.152 -2.1024 -0.2985  0.1361
13364TIP3    H261584   6.715   6.674   0.113 -0.6113  0.6971 -1.4081
13365TIP3   OH261585   0.638   0.763  12.059 -0.3325 -0.0248  0.1008
13365TIP3    H161586   0.547   0.734  12.064 -0.0075 -1.0900 -0.0558
13365TIP3    H261587   0.665   0.740  11.970  0.4249 -0.7019  0.5100
13366TIP3   OH261588   4.089   6.260  11.749  0.1897 -0.4198 -0.5367
13366TIP3    H161589   4.167   6.209  11.729  0.6475 -0.2341  0.7307
13366TIP3    H261590   4.110   6.305  11.831 -1.2024 -0.2882 -0.2405
13367TIP3   OH261591   4.866   5.996  13.369 -0.0916  0.0008 -0.5762
13367TIP3    H161592   4.808   5.936  13.323 -0.9316  1.1869 -1.0646
13367TIP3    H261593   4.815   6.025  13.445 -0.1735  1.1211 -1.0619
13368TIP3   OH261594   3.231   2.889  15.946 -0.4277 -0.4651 -0.4186
13368TIP3    H161595   3.223   2.972  15.992  0.3057  0.0880 -1.2780
13368TIP3    H261596   3.155   2.838  15.975 -1.1591  0.6875 -0.2665
13369TIP3   OH261597   3.239   1.746  14.082  0.2499 -0.3737 -0.1700
13369TIP3    H161598   3.271   1.836  14.081  0.8498 -0.5819 -0.1312
13369TIP3    H261599   3.318   1.693  14.090  0.0128 -0.9678 -1.6673
13370TIP3   OH261600   2.201   4.647  11.817 -0.3665 -0.2315 -0.2652
13370TIP3    H161601   2.124   4.700  11.837 -2.5553 -1.6680 -4.1275
13370TIP3    H261602   2.213   4.658  11.722  3.6096 -0.8508  0.1004
13371TIP3   OH261603   6.472   4.095   6.249  0.3371  0.3115 -0.4190
13371TIP3    H161604   6.494   4.147   6.172 -0.2234  1.5518  0.2376
13371TIP3    H261605   6.377   4.103   6.257  0.2115 -0.9827 -0.4107
13372TIP3   OH261606   2.129   4.876  14.892  0.7038  0.1610  0.1145
13372TIP3    H161607   2.040   4.903  14.917  1.1604  0.7177  1.1743
13372TIP3    H261608   2.126   4.870  14.797  0.2442  2.7799 -0.0683
13373TIP3   OH261609   6.373   5.680  15.779 -0.8339  0.2318 -0.0504
13373TIP3    H161610   6.322   5.610  15.738  0.6487 -1.0214  0.2106
13373TIP3    H261611   6.371   5.658  15.873 -0.2055  0.4363  0.0078
13374TIP3   OH261612   6.628   3.163   1.389 -0.1897 -1.3369 -0.4237
13374TIP3    H161613   6.551   3.115   1.419 -0.4209 -0.6612  0.0684
13374TIP3    H261614   6.701   3.101   1.402 -0.5179 -1.6436 -0.0307
13375TIP3   OH261615   6.160   3.108  10.436 -0.2707 -0.0590 -0.0828
13375TIP3    H161616   6.184   3.170  10.504  0.1705 -1.0396  0.6767
13375TIP3    H261617   6.133   3.029  10.484 -2.2356  0.0374 -0.9791
13376TIP3   OH261618   0.203   5.826  12.680  0.5000  0.2854 -0.4357
13376TIP3    H161619   0.232   5.800  12.592  1.2229  0.6552 -0.3134
13376TIP3    H261620   0.209   5.922  12.680 -2.2330  0.4812 -0.9127
13377TIP3   OH261621   4.060   1.609   3.399  0.3974  0.0571  0.2326
13377TIP3    H161622   4.074   1.540   3.333 -1.9699 -0.5434  0.3042
13377TIP3    H261623   4.088   1.569   3.481  1.1038 -0.0330 -0.0433
13378TIP3   OH261624   6.390   0.418  16.787 -0.0763  0.5917  0.3771
13378TIP3    H161625   6.418   0.510  16.793 -1.6713  1.1405 -0.2368
13378TIP3    H261626   6.343   0.413  16.704  1.0553 -1.0910 -0.1703
13379TIP3   OH261627   3.655   0.947   1.259  0.3978  0.2654 -0.0469
13379TIP3    H161628   3.706   0.866   1.250  0.1582  0.1894 -0.7711
13379TIP3    H261629   3.603   0.952   1.178  0.6753  1.3336 -0.1646
13380TIP3   OH261630   4.998   3.272   1.190 -0.5872 -0.2966 -0.4554
13380TIP3    H161631   4.976   3.251   1.281 -2.1639  1.7448 -0.3188
13380TIP3    H261632   5.070   3.334   1.196 -0.5026 -0.3796 -0.6047
13381TIP3   OH261633   5.881   0.606   1.957  0.6437  0.1214  0.1688
13381TIP3    H161634   5.839   0.527   1.925  0.2759 -0.2083  1.4390
13381TIP3    H261635   5.914   0.650   1.879  0.2583 -0.9491 -0.5908
13382TIP3   OH261636   2.377   0.382  10.844 -0.0239 -0.2166  0.0810
13382TIP3    H161637   2.413   0.340  10.766  0.4753 -0.1226  0.2559
13382TIP3    H261638   2.389   0.317  10.914  0.5366  0.1242  0.3032
13383TIP3   OH261639   4.843   6.434   2.873  0.1005 -0.3068  0.2243
13383TIP3    H161640   4.800   6.432   2.787 -0.9895 -1.3959  0.7787
13383TIP3    H261641   4.928   6.393   2.858  0.6945  1.2127 -0.7264
13384TIP3   OH261642   5.302   4.821  12.593  0.1210  0.3545  0.0216
13384TIP3    H161643   5.379   4.847  12.542  2.3431 -3.4852  1.2228
13384TIP3    H261644   5.320   4.851  12.682  0.7895 -1.4876  0.5329
13385TIP3   OH261645   5.961   5.141  12.782  0.2462 -0.1941 -0.5089
13385TIP3    H161646   5.993   5.232  12.780 -0.4933  0.1063  0.8963
13385TIP3    H261647   5.883   5.143  12.727 -1.7555  0.8347  2.2516
13386TIP3   OH261648   4.746   4.295   2.285 -0.1992  0.4186 -0.0877
13386TIP3    H161649   4.684   4.221   2.284 -0.6376  0.6645  3.1641
13386TIP3    H261650   4.694   4.370   2.257 -0.9224  0.2898  0.8802
13387TIP3   OH261651   0.108   0.469  16.980 -0.7542  0.0621  0.0994
13387TIP3    H161652   0.078   0.417  16.906  0.5020 -0.9493  0.2999
13387TIP3    H261653   0.130   0.405  17.048 -0.9608  0.9341  1.0135
13388TIP3   OH261654   4.229   3.299   2.591 -0.0479 -0.1095  0.5355
13388TIP3    H161655   4.269   3.328   2.673 -0.4415  0.4562  0.5321
13388TIP3    H261656   4.135   3.314   2.604  0.0353  1.7982 -0.7158
13389TIP3   OH261657   5.285   1.128  15.105 -0.1151  0.9671 -0.6928
13389TIP3    H161658   5.242   1.061  15.159  2.2919 -1.4600 -1.6418
13389TIP3    H261659   5.308   1.198  15.166  1.8446 -1.3557  1.3535
13390TIP3   OH261660   2.310   6.758  11.630 -0.0081  0.0840  0.3194
13390TIP3    H161661   2.258   6.771  11.551  1.7442  0.2988 -0.8362
13390TIP3    H261662   2.278   6.675  11.666 -2.4628  1.1586  0.7105
13391TIP3   OH261663   4.450   5.348   3.124  0.2517 -0.8923 -0.9250
13391TIP3    H161664   4.466   5.275   3.064  3.3853 -0.2157 -0.9765
13391TIP3    H261665   4.500   5.325   3.203 -2.8260 -1.1858  1.0331
13392TIP3   OH261666   3.518   5.253   1.367 -0.1975  0.6752  0.2262
13392TIP3    H161667   3.487   5.285   1.283 -1.4582  2.1904  1.2338
13392TIP3    H261668   3.512   5.329   1.426  0.2145 -0.4650  1.7892
13393TIP3   OH261669   6.705   3.555  16.387 -0.1015 -0.2386 -0.2476
13393TIP3    H161670   6.704   3.588  16.477  0.1704  0.4060 -0.4847
13393TIP3    H261671   6.796   3.563  16.359 -0.3488  0.3688 -0.8807
13394TIP3   OH261672   6.193   5.175   1.294  0.6805  0.3703 -0.1069
13394TIP3    H161673   6.104   5.209   1.306  0.7058  0.8021 -1.0882
13394TIP3    H261674   6.215   5.197   1.203  0.9960 -1.5961 -0.5212
13395TIP3   OH261675   0.311   2.633  14.481 -0.0807 -0.2528  0.1841
13395TIP3    H161676   0.399   2.598  14.495  0.2071  1.0456  1.9325
13395TIP3    H261677   0.319   2.726  14.506 -2.4765 -0.6516  2.6809
13396TIP3   OH261678   2.610   6.596   3.413  0.0633  0.1828 -0.1811
13396TIP3    H161679   2.555   6.527   3.450  1.8004 -0.2200  1.7320
13396TIP3    H261680   2.561   6.677   3.429 -0.2085 -0.2215  1.0617
13397TIP3   OH261681   5.474   5.040  13.391  0.0776 -0.1392  0.0179
13397TIP3    H161682   5.558   5.047  13.437 -0.6687  1.3261  1.1954
13397TIP3    H261683   5.429   4.968  13.435  0.5494 -0.6738 -0.3628
13398TIP3   OH261684   1.029   2.695  14.612 -0.2039 -0.0032  0.3098
13398TIP3    H161685   1.100   2.743  14.654  0.6791 -0.3531 -0.7343
13398TIP3    H261686   0.994   2.638  14.680  1.2172 -0.5860  0.5677
13399TIP3   OH261687   1.307   5.487   1.461 -0.0356 -0.4529  0.0341
13399TIP3    H161688   1.369   5.529   1.520  1.4060 -1.4758 -0.7144
13399TIP3    H261689   1.260   5.425   1.516  0.5597 -0.6377  0.3411
13400TIP3   OH261690   1.426   6.206   6.813  0.0632  0.0067 -0.5578
13400TIP3    H161691   1.401   6.235   6.901  0.1938 -1.1851 -0.1128
13400TIP3    H261692   1.465   6.283   6.772  0.3054  0.4865  0.5588
13401TIP3   OH261693   6.476   1.237   4.840 -0.1079  0.3814  0.4968
13401TIP3    H161694   6.421   1.269   4.768  0.1193 -0.2624  0.0268
13401TIP3    H261695   6.424   1.168   4.881 -0.4628  1.1220  1.3009
13402TIP3   OH261696   1.749   4.580  15.363 -0.5165 -0.0105  0.3846
13402TIP3    H161697   1.724   4.645  15.298 -3.4483 -2.0457 -0.6386
13402TIP3    H261698   1.718   4.497  15.327  2.0437 -1.8617  2.2124
13403TIP3   OH261699   4.204   3.713  15.644  0.0633  0.1356  0.2376
13403TIP3    H161700   4.259   3.647  15.602  1.4624  1.9638 -0.8806
13403TIP3    H261701   4.187   3.678  15.731  2.1361 -0.9632  0.2397
13404TIP3   OH261702   6.371   5.416   5.948  0.3904  0.1260  0.4351
13404TIP3    H161703   6.414   5.479   5.891 -0.3959 -0.9225 -1.3917
13404TIP3    H261704   6.442   5.361   5.982  0.6595 -0.8679 -1.6330
13405TIP3   OH261705   1.176   5.894  16.707 -0.8676  0.3696 -0.0001
13405TIP3    H161706   1.213   5.941  16.632 -1.1845 -0.9997 -1.0508
13405TIP3    H261707   1.098   5.944  16.731 -0.4198  1.1640 -0.1889
13406TIP3   OH261708   2.349   0.637  10.965 -0.0228 -0.0701  0.4153
13406TIP3    H161709   2.345   0.559  10.909 -0.1001 -0.3052  0.7462
13406TIP3    H261710   2.285   0.697  10.927  0.7380  0.2302 -0.4383
13407TIP3   OH261711   3.613   4.267   5.236 -0.2363  0.1565  0.3447
13407TIP3    H161712   3.682   4.214   5.276  0.3390 -0.1523 -1.0323
13407TIP3    H261713   3.533   4.242   5.282  0.3081 -0.6926  0.8233
13408TIP3   OH261714   3.813   6.082   5.609 -0.7117  0.0317 -0.6749
13408TIP3    H161715   3.748   6.013   5.597 -1.6175  0.8886 -0.6695
13408TIP3    H261716   3.764   6.164   5.602  0.2272  0.6734  0.0907
13409TIP3   OH261717   1.306   5.614   0.875 -0.0409 -0.2435  0.3300
13409TIP3    H161718   1.331   5.528   0.842 -0.9725 -0.7728  0.9888
13409TIP3    H261719   1.389   5.662   0.882  0.6172 -1.4571  1.0144
13410TIP3   OH261720   3.704   5.977  17.233 -0.0509  0.2092 -0.2110
13410TIP3    H161721   3.767   5.930  17.178 -1.5300 -0.3353 -1.4827
13410TIP3    H261722   3.755   6.006  17.309  1.0963 -2.7499  0.2170
13411TIP3   OH261723   5.437   6.349  16.938  0.7522 -0.0144 -0.1039
13411TIP3    H161724   5.526   6.362  16.973  0.6457  0.6987 -0.0981
13411TIP3    H261725   5.380   6.361  17.014  0.5533  1.0490 -0.4208
13412TIP3   OH261726   0.709   6.123  14.091 -0.2984 -0.1433  0.4062
13412TIP3    H161727   0.744   6.078  14.014  1.0088  2.2539 -0.4555
13412TIP3    H261728   0.620   6.089  14.101  0.3786 -2.3133 -0.6670
13413TIP3   OH261729   4.386   6.562  16.067 -0.0535  0.1885 -0.9597
13413TIP3    H161730   4.404   6.479  16.111 -1.4142  0.3158 -0.1204
13413TIP3    H261731   4.447   6.624  16.108 -0.5107  0.0559 -0.0518
13414TIP3   OH261732   5.569   4.774   4.865 -0.0978  0.2022  0.2055
13414TIP3    H161733   5.516   4.756   4.788 -1.2655  0.1776  1.0063
13414TIP3    H261734   5.542   4.709   4.929  0.5242  0.5253  0.8097
13415TIP3   OH261735   1.464   0.600  15.002 -0.8402  0.3170 -0.3686
13415TIP3    H161736   1.404   0.539  15.046 -1.3079  1.2789  0.3357
13415TIP3    H261737   1.426   0.611  14.914 -1.3690  0.4450 -0.1290
13416TIP3   OH261738   5.251   5.161  10.573  0.2073  0.3960  0.4036
13416TIP3    H161739   5.216   5.222  10.639 -0.1958 -0.3654  0.8998
13416TIP3    H261740   5.260   5.078  10.619  2.4617  0.5005  0.2089
13417TIP3   OH261741   5.088   0.656   4.748  0.5245 -0.1974 -0.1924
13417TIP3    H161742   5.126   0.649   4.836 -0.2356  2.3290  0.3787
13417TIP3    H261743   4.995   0.640   4.761  0.1619  1.7241 -0.2568
13418TIP3   OH261744   2.420   1.222   1.332 -0.1059  0.5573 -0.1822
13418TIP3    H161745   2.473   1.145   1.310  0.7584  0.9933  0.3506
13418TIP3    H261746   2.330   1.192   1.323  0.2109 -0.9369  1.3222
13419TIP3   OH261747   2.552   1.320   3.324  0.9156  0.5798  0.5627
13419TIP3    H161748   2.584   1.404   3.357  3.3445  0.4207 -1.3027
13419TIP3    H261749   2.605   1.255   3.370 -1.3093 -0.0146  2.3874
13420TIP3   OH261750   1.933   6.654   0.161  0.2248  0.3942  0.0121
13420TIP3    H161751   1.852   6.637   0.113  0.1927  0.6896 -0.0361
13420TIP3    H261752   1.910   6.640   0.253 -0.4043  2.4389  0.1924
13421TIP3   OH261753   4.185   5.634  14.211 -0.3587  0.3863 -0.3618
13421TIP3    H161754   4.261   5.607  14.159 -0.0827 -1.4426  0.9279
13421TIP3    H261755   4.209   5.720  14.246 -0.2042  1.2557 -2.5232
13422TIP3   OH261756   0.076   0.731   3.153  0.0562 -0.0819  0.3189
13422TIP3    H161757   0.015   0.805   3.157  0.3972  0.2218  0.0854
13422TIP3    H261758   0.121   0.743   3.069  1.6395  0.6762  1.2465
13423TIP3   OH261759   0.654   0.506   0.422 -0.0130 -0.7537 -0.3630
13423TIP3    H161760   0.578   0.508   0.480 -0.8543  0.0100 -1.4684
13423TIP3    H261761   0.687   0.416   0.428 -1.0108 -1.0907  0.1118
13424TIP3   OH261762   5.301   4.140   4.806 -0.2624  0.2064 -0.4815
13424TIP3    H161763   5.387   4.156   4.843 -0.0616 -1.9331  0.0454
13424TIP3    H261764   5.302   4.185   4.721  1.7976 -0.8295 -1.0212
13425TIP3   OH261765   3.776   2.439  13.801 -0.2794  0.2599  0.0913
13425TIP3    H161766   3.859   2.478  13.830  1.1158 -1.9682 -0.7488
13425TIP3    H261767   3.774   2.455  13.707 -1.6621  1.8153  0.3695
13426TIP3   OH261768   5.657   0.058  14.058 -0.0597  0.1234 -0.0154
13426TIP3    H161769   5.653   0.095  14.146  0.5074  2.3126 -0.8506
13426TIP3    H261770   5.665  -0.036  14.071 -2.0913  0.1995  2.2290
13427TIP3   OH261771   5.696   1.820   1.722 -0.0303  0.2415 -0.4563
13427TIP3    H161772   5.777   1.839   1.769 -0.9368 -0.2471  1.3617
13427TIP3    H261773   5.710   1.733   1.683  0.6623  0.5802 -0.9714
13428TIP3   OH261774   6.022   6.007  10.262 -0.2988 -0.2544 -0.6631
13428TIP3    H161775   5.982   5.953  10.194 -0.7454  1.0763 -1.4757
13428TIP3    H261776   6.116   5.990  10.254 -0.4403 -0.9668 -0.8456
13429TIP3   OH261777   4.053   5.929  13.740 -0.3853 -0.2964  0.2163
13429TIP3    H161778   4.023   5.987  13.810  0.0468  0.7595 -0.4569
13429TIP3    H261779   3.991   5.856  13.741 -0.0215 -0.5958  2.0807
13430TIP3   OH261780   3.689   3.454   3.357 -0.1154  0.5149 -0.2269
13430TIP3    H161781   3.741   3.529   3.387 -0.9843  1.1710 -0.3362
13430TIP3    H261782   3.662   3.409   3.437  0.0155  0.5909 -0.1405
13431TIP3   OH261783   5.980   5.031   0.627  0.1995  0.5289 -0.4710
13431TIP3    H161784   6.021   5.063   0.707  1.4940  1.3434 -1.4282
13431TIP3    H261785   5.917   5.099   0.603 -0.1788  0.2912 -0.1690
13432TIP3   OH261786   3.789   1.060  12.050 -0.0029  0.2877  0.1544
13432TIP3    H161787   3.770   1.149  12.020  0.6074  0.3283 -0.1133
13432TIP3    H261788   3.753   1.003  11.981  1.7676  0.3895 -0.8930
13433TIP3   OH261789   0.962   6.024  15.759  0.1199  0.6141  0.3242
13433TIP3    H161790   1.041   6.071  15.783 -0.4668  2.0539 -0.5413
13433TIP3    H261791   0.984   5.980  15.676  0.0178  0.9897  0.0993
13434TIP3   OH261792   6.487   1.956   4.426 -0.3235  0.1471  0.3937
13434TIP3    H161793   6.462   1.975   4.517  1.9337  0.2590  1.0033
13434TIP3    H261794   6.489   2.041   4.383 -0.5982  0.1785  0.4420
13435TIP3   OH261795   1.487   4.852  11.679  0.3359  0.2401 -0.1063
13435TIP3    H161796   1.392   4.855  11.663 -0.0205  0.0197  1.8429
13435TIP3    H261797   1.508   4.759  11.685  0.4577  0.3066  0.5899
13436TIP3   OH261798   6.256   3.008  14.002  0.5793  0.2400 -0.5478
13436TIP3    H161799   6.176   3.052  13.973 -1.0396 -1.2198  1.5053
13436TIP3    H261800   6.265   2.933  13.943 -0.7652 -0.7710  0.5006
13437TIP3   OH261801   4.310   6.802   4.066  0.1173 -0.1484 -0.2084
13437TIP3    H161802   4.360   6.864   4.014  0.0395  1.4395  1.5588
13437TIP3    H261803   4.376   6.747   4.108  0.2058 -0.9244 -1.3518
13438TIP3   OH261804   5.708   5.377  16.022 -0.3053 -0.7207  0.0803
13438TIP3    H161805   5.650   5.444  16.058 -1.1244 -1.0381 -0.6383
13438TIP3    H261806   5.650   5.306  15.995  0.4021 -1.0355 -0.6576
13439TIP3   OH261807   3.465   2.302   2.309 -0.4687  0.4851 -0.6457
13439TIP3    H161808   3.508   2.381   2.342 -0.2008  0.3404 -0.6420
13439TIP3    H261809   3.374   2.310   2.338 -0.3844  0.6724 -0.4300
13440TIP3   OH261810   6.305   6.535  16.429  0.3560 -0.4325  0.3405
13440TIP3    H161811   6.236   6.499  16.485 -1.3837 -0.0532 -1.4885
13440TIP3    H261812   6.379   6.476  16.440 -0.8191 -1.7738  1.1215
13441TIP3   OH261813   4.432   6.764  15.152  0.4219  0.2772 -0.1882
13441TIP3    H161814   4.449   6.716  15.071  0.1230  0.5476 -0.4114
13441TIP3    H261815   4.338   6.753  15.167  0.3994  0.5811 -0.1054
13442TIP3   OH261816   4.781   1.693   5.060  0.5181 -0.0745  0.4281
13442TIP3    H161817   4.805   1.602   5.074  1.7571 -0.1539 -1.9608
13442TIP3    H261818   4.859   1.743   5.083  0.7538  0.1738 -0.8861
13443TIP3   OH261819   3.046   4.604  14.652  0.3729  0.5860  0.0229
13443TIP3    H161820   3.057   4.630  14.743  0.0646 -0.1224  0.2622
13443TIP3    H261821   2.977   4.663  14.619  0.1037  0.4787  0.3932
13444TIP3   OH261822   3.973   1.481   2.927 -0.1812  0.0527  0.2994
13444TIP3    H161823   3.960   1.465   3.021 -1.4892 -0.8518 -0.0251
13444TIP3    H261824   3.951   1.398   2.885  0.0103  0.5762 -0.8479
13445TIP3   OH261825   1.897   5.988   3.360  0.1902  0.1593 -0.1528
13445TIP3    H161826   1.829   5.986   3.292 -1.6170  1.7651  1.5296
13445TIP3    H261827   1.878   5.912   3.415 -0.0369  0.4068  0.1128
13446TIP3   OH261828   5.277   6.085  14.999  0.1386 -0.1700 -0.3935
13446TIP3    H161829   5.323   6.157  14.956 -0.3235  0.2962 -0.1059
13446TIP3    H261830   5.204   6.127  15.045  1.4474 -0.4895  2.0375
13447TIP3   OH261831   1.341   2.907   1.394  0.3644  0.1278 -0.7163
13447TIP3    H161832   1.254   2.939   1.417  0.8020  1.7496 -1.3135
13447TIP3    H261833   1.391   2.911   1.476 -0.7375 -2.9946  0.1877
13448TIP3   OH261834   2.290   3.011  17.020 -0.8211  0.3087 -0.5066
13448TIP3    H161835   2.332   3.023  16.935  0.6158  1.1256  0.3049
13448TIP3    H261836   2.320   2.925  17.050 -0.1578  0.6615 -0.1650
13449TIP3   OH261837   5.498   4.111  15.767 -1.0424  0.1212  0.5227
13449TIP3    H161838   5.471   4.084  15.855  1.8441 -1.4782  0.9890
13449TIP3    H261839   5.591   4.128  15.774 -0.7592  0.0114 -2.2250
13450TIP3   OH261840   3.978   6.245   0.505 -0.1183 -0.1381 -0.5367
13450TIP3    H161841   3.898   6.253   0.558 -0.3791 -0.3154 -0.9032
13450TIP3    H261842   4.041   6.301   0.550 -0.3553 -0.2390 -0.0679
13451TIP3   OH261843   2.209   6.416  11.468  0.2056  0.4426  0.5776
13451TIP3    H161844   2.239   6.326  11.455 -0.1462  0.1712  1.6258
13451TIP3    H261845   2.161   6.437  11.388  2.0516  0.4332 -0.5571
13452TIP3   OH261846   5.736   5.090   0.091 -1.0345 -0.2850 -0.7368
13452TIP3    H161847   5.745   5.183   0.112  1.6311 -0.5206 -0.6635
13452TIP3    H261848   5.706   5.049   0.172  0.6636  0.1093  0.1247
13453TIP3   OH261849   0.610   4.429   4.417  0.6432 -0.6362 -0.3577
13453TIP3    H161850   0.656   4.461   4.494 -0.6899 -2.0183  1.0835
13453TIP3    H261851   0.657   4.349   4.393 -0.3834 -1.5300  0.5366
13454TIP3   OH261852   0.662   4.941  16.052  0.0709  0.3333 -0.2425
13454TIP3    H161853   0.700   4.855  16.071 -2.1896 -0.1962  2.0313
13454TIP3    H261854   0.709   5.001  16.109 -0.0206  0.2299 -0.0557
13455TIP3   OH261855   1.820   4.644  10.483  0.1637 -0.1055  0.2504
13455TIP3    H161856   1.915   4.636  10.475 -0.1778 -3.0979 -1.6011
13455TIP3    H261857   1.794   4.688  10.402 -0.1430 -0.5982  0.0788
13456TIP3   OH261858   1.788   0.137   1.390 -0.0726 -0.2685 -0.0341
13456TIP3    H161859   1.747   0.156   1.475  0.0563  0.7940 -0.2118
13456TIP3    H261860   1.877   0.108   1.413  0.4306  1.3505  0.1326
13457TIP3   OH261861   2.826   3.173  16.884 -0.0295 -0.5791  0.0653
13457TIP3    H161862   2.863   3.085  16.884 -0.4228 -0.7452  0.3414
13457TIP3    H261863   2.737   3.162  16.918 -0.4308 -0.2202 -0.8435
13458TIP3   OH261864   5.337   3.113   2.207 -0.0610  0.1886 -0.3119
13458TIP3    H161865   5.274   3.079   2.270 -0.5989  0.7740 -0.5234
13458TIP3    H261866   5.349   3.205   2.232 -2.7855  1.3682 -2.9931
13459TIP3   OH261867   6.731   0.768   0.006 -0.4130  0.6695  0.2256
13459TIP3    H161868   6.689   0.684   0.026  1.1000 -0.2091 -0.2233
13459TIP3    H261869   6.809   0.744  -0.044  0.2880  2.3157  0.5227
13460TIP3   OH261870   1.060   6.729   0.696 -0.4273 -0.4171  0.5760
13460TIP3    H161871   0.973   6.691   0.708 -0.0396 -2.1612 -1.9465
13460TIP3    H261872   1.117   6.677   0.752 -0.8601  0.3594  1.7795
13461TIP3   OH261873   6.624   0.781  10.929  0.3491 -0.1397  0.0750
13461TIP3    H161874   6.617   0.697  10.883  1.8284 -0.6215  0.6892
13461TIP3    H261875   6.695   0.827  10.884  1.4577 -0.4015  1.5140
13462TIP3   OH261876   3.756   0.715   3.076  0.9710 -0.3674 -0.1602
13462TIP3    H161877   3.740   0.803   3.111 -1.8132 -0.8251 -0.2063
13462TIP3    H261878   3.695   0.659   3.122  0.9747 -1.8681 -1.9248
13463TIP3   OH261879   3.768   3.644  15.662  0.9758  0.0813 -0.4006
13463TIP3    H161880   3.688   3.592  15.668  1.6035 -0.7751  0.7394
13463TIP3    H261881   3.761   3.706  15.735 -0.0134  1.9820 -2.0512
13464TIP3   OH261882   3.664   1.569   5.248 -0.5057  0.0862  0.1466
13464TIP3    H161883   3.684   1.615   5.166  1.9740 -1.7787 -0.3521
13464TIP3    H261884   3.618   1.490   5.220  1.7343 -1.3426  0.3797
13465TIP3   OH261885   5.002   1.193  13.072  0.1247 -0.0272 -0.0059
13465TIP3    H161886   5.035   1.127  13.133  0.1717  2.9054  3.2475
13465TIP3    H261887   4.912   1.209  13.099  0.2430  1.5506 -0.4843
13466TIP3   OH261888   2.837   4.057   0.878  0.5143  0.4817  0.5951
13466TIP3    H161889   2.784   4.074   0.957  2.3643 -1.1642  2.2313
13466TIP3    H261890   2.881   4.140   0.862 -0.5448  1.0945  0.7695
13467TIP3   OH261891   4.676   3.359  14.111 -0.1304  0.3091 -0.1544
13467TIP3    H161892   4.728   3.281  14.093  0.1978  0.4310  0.2628
13467TIP3    H261893   4.741   3.430  14.114 -0.1102  0.2123  2.0717
13468TIP3   OH261894   0.999   3.419   3.582 -0.1822  0.7064  0.0095
13468TIP3    H161895   0.930   3.358   3.556 -0.1297 -0.5898  2.6729
13468TIP3    H261896   1.061   3.418   3.509 -0.2117 -2.4438 -0.0385
13469TIP3   OH261897   2.008   6.748   1.658 -0.3873  0.1952  0.0233
13469TIP3    H161898   1.967   6.833   1.669  1.1106  1.0222 -0.6634
13469TIP3    H261899   2.016   6.737   1.563  0.2343 -0.3059  0.1289
13470TIP3   OH261900   1.102   2.423   4.031  0.8460 -0.1459 -0.0460
13470TIP3    H161901   1.071   2.513   4.030  2.1998  0.3185 -2.1123
13470TIP3    H261902   1.025   2.371   4.007  0.1318  0.4489  0.9085
13471TIP3   OH261903   0.305   4.601  14.443  0.6627  0.5808 -0.4014
13471TIP3    H161904   0.377   4.560  14.395  2.0855  0.0467  2.1202
13471TIP3    H261905   0.313   4.694  14.422 -1.1958 -0.0236 -4.3350
13472TIP3   OH261906   3.859   4.200   4.776 -0.0709  0.6380  0.3381
13472TIP3    H161907   3.785   4.190   4.836  0.6451 -0.8565  0.9784
13472TIP3    H261908   3.916   4.264   4.818  0.6212 -0.6983  1.4607
13473TIP3   OH261909   1.098   6.202   4.395  0.4588  0.1890 -0.2455
13473TIP3    H161910   1.018   6.161   4.360  0.0186 -0.2233  1.2149
13473TIP3    H261911   1.097   6.291   4.360  0.2069 -0.3197 -1.5559
13474TIP3   OH261912   4.780   5.831  14.369 -0.8279  0.2608 -0.5650
13474TIP3    H161913   4.794   5.800  14.458 -0.2014  0.9373 -0.4210
13474TIP3    H261914   4.685   5.827  14.356 -1.0075  1.0568  0.4599
13475TIP3   OH261915   3.447   5.906  12.634 -0.2968  0.9306 -0.0411
13475TIP3    H161916   3.466   5.908  12.540 -0.7250  0.4446 -0.1368
13475TIP3    H261917   3.436   5.813  12.654 -1.6731  1.1381  0.2028
13476TIP3   OH261918   4.678   1.144  12.842 -0.1648  0.0979 -0.8089
13476TIP3    H161919   4.591   1.155  12.803  0.0964 -0.2494 -1.5004
13476TIP3    H261920   4.696   1.050  12.834 -0.2788 -0.0388  0.5247
13477TIP3   OH261921   1.931   4.119  11.095  0.3566 -0.2768 -0.1542
13477TIP3    H161922   1.894   4.103  11.182  0.1135 -0.9918 -0.3860
13477TIP3    H261923   1.863   4.090  11.034  0.1623  1.0606 -0.5953
13478TIP3   OH261924   5.579   2.762  15.765  0.2075 -0.0560 -0.6005
13478TIP3    H161925   5.563   2.782  15.857  1.0213  0.6938 -0.6179
13478TIP3    H261926   5.575   2.667  15.760 -0.6853 -0.0562  0.0529
13479TIP3   OH261927   4.819   6.006   6.113 -0.5671 -0.3413  0.4925
13479TIP3    H161928   4.852   5.923   6.079  1.0447  1.0902 -1.6742
13479TIP3    H261929   4.890   6.039   6.169  0.1457  0.9717 -1.1281
13480TIP3   OH261930   1.355   1.678   5.563 -0.4096  0.0090 -0.1531
13480TIP3    H161931   1.378   1.585   5.574 -0.7988 -0.0634  0.0740
13480TIP3    H261932   1.384   1.700   5.475 -0.0428 -0.2504 -0.0965
13481TIP3   OH261933   1.265   5.948   2.817  0.2511  0.2057 -0.0813
13481TIP3    H161934   1.332   6.008   2.786 -0.4486  0.8334 -0.4036
13481TIP3    H261935   1.197   5.952   2.750  0.2484 -1.0331 -0.1593
13482TIP3   OH261936   2.789   1.145   1.747  0.0316  0.4372 -0.1518
13482TIP3    H161937   2.784   1.217   1.810  1.0472  1.2916 -1.0239
13482TIP3    H261938   2.698   1.129   1.722 -0.4537 -0.3812  2.0240
13483TIP3   OH261939   3.423   0.769   6.669  0.2185 -0.0787 -0.2953
13483TIP3    H161940   3.396   0.681   6.642  0.2146 -0.4023  0.7104
13483TIP3    H261941   3.342   0.820   6.669 -0.5888 -1.1832  3.2250
13484TIP3   OH261942   2.975   2.306  16.056 -0.2240 -0.0155 -0.0792
13484TIP3    H161943   2.940   2.229  16.102  0.9086 -0.5898 -0.1699
13484TIP3    H261944   2.992   2.370  16.126 -1.8735  0.4455 -0.0801
13485TIP3   OH261945   4.617   1.574   0.543 -0.0819 -0.2468  0.1995
13485TIP3    H161946   4.660   1.655   0.570  1.0022 -0.7094 -0.1128
13485TIP3    H261947   4.630   1.514   0.616 -1.7870  0.1782  0.8665
13486TIP3   OH261948   2.182   3.640   3.146 -0.0515 -0.2174 -0.0184
13486TIP3    H161949   2.181   3.718   3.089 -0.5144 -1.7430 -2.1602
13486TIP3    H261950   2.222   3.572   3.092  1.8762 -1.0661  2.4326
13487TIP3   OH261951   4.935   4.140  13.624  0.1940 -0.2563 -0.0495
13487TIP3    H161952   4.974   4.207  13.568 -1.3812  0.9808  0.3132
13487TIP3    H261953   4.964   4.162  13.712  1.7207 -1.5306 -0.2098
13488TIP3   OH261954   1.567   6.091  16.506  0.0402 -0.0666 -0.3202
13488TIP3    H161955   1.519   6.029  16.451 -1.7336  0.1988  0.8582
13488TIP3    H261956   1.562   6.174  16.458 -0.9815  0.0303 -0.0648
13489TIP3   OH261957   1.849   5.030   1.956 -0.5901 -0.0936 -0.3114
13489TIP3    H161958   1.835   5.082   2.035 -0.7314  0.3374 -0.6188
13489TIP3    H261959   1.835   4.940   1.985  0.5141 -0.0434  0.4205
13490TIP3   OH261960   3.564   1.611   2.122  0.2688  0.1234 -0.2583
13490TIP3    H161961   3.487   1.589   2.070  0.4384  1.1842 -0.9849
13490TIP3    H261962   3.638   1.589   2.065  0.5316 -1.5980  0.7248
13491TIP3   OH261963   0.644   4.537  16.582  0.2535 -0.0991 -0.1790
13491TIP3    H161964   0.691   4.602  16.530  0.7147 -0.7917 -0.6244
13491TIP3    H261965   0.552   4.562  16.572  0.6047  2.3213  2.1330
13492TIP3   OH261966   4.697   3.694  11.532  0.5666 -0.2356  0.4611
13492TIP3    H161967   4.744   3.691  11.449  0.8258 -1.9959  0.6525
13492TIP3    H261968   4.667   3.605  11.545 -2.1854  0.6798  0.7217
13493TIP3   OH261969   3.615   2.024   5.055  0.2902  0.4652  0.0017
13493TIP3    H161970   3.706   1.997   5.042 -0.0158 -1.5559  1.7104
13493TIP3    H261971   3.599   2.089   4.987  1.9272 -1.7385 -2.5922
13494TIP3   OH261972   4.098   5.777   3.908  0.1636 -0.3870  0.1345
13494TIP3    H161973   4.050   5.850   3.949 -1.6159 -1.5748  0.2145
13494TIP3    H261974   4.046   5.700   3.929  1.1369 -1.4770 -1.3983
13495TIP3   OH261975   6.096   4.852  13.871  0.0286 -0.0130 -0.4100
13495TIP3    H161976   6.128   4.916  13.935  0.8115 -0.3368 -0.4687
13495TIP3    H261977   6.030   4.900  13.820  0.5586  0.7296 -0.4099
13496TIP3   OH261978   0.335   4.048   4.112 -0.6758 -0.7970 -0.8160
13496TIP3    H161979   0.346   4.102   4.034 -1.0640 -0.2484 -0.5004
13496TIP3    H261980   0.242   4.053   4.131 -0.6242 -1.1488 -0.4745
13497TIP3   OH261981   2.143   6.736  16.117  0.0705 -0.3163  0.3633
13497TIP3    H161982   2.080   6.743  16.046  0.8512 -1.2603 -0.4332
13497TIP3    H261983   2.224   6.706  16.075  1.2895  1.6289  1.2417
13498TIP3   OH261984   3.928   2.649   1.181  0.1151  0.2991 -0.0185
13498TIP3    H161985   3.914   2.555   1.174 -0.9367  0.4261  0.3098
13498TIP3    H261986   3.933   2.666   1.275 -0.9747  0.7334 -0.0229
13499TIP3   OH261987   0.079   0.617  15.241 -0.2234  0.2489 -0.7071
13499TIP3    H161988   0.140   0.691  15.244 -0.4137  0.3532  1.2934
13499TIP3    H261989   0.135   0.540  15.234  0.1387  0.3770  0.6282
13500TIP3   OH261990   4.617   4.314   0.539 -0.0765 -0.1156 -0.1593
13500TIP3    H161991   4.671   4.304   0.461 -1.1831 -1.1638 -0.8008
13500TIP3    H261992   4.639   4.401   0.572 -0.4559  0.8190 -2.2912
13501TIP3   OH261993   5.237   0.829   5.553  0.4311  0.3978  0.0141
13501TIP3    H161994   5.159   0.857   5.505  1.3698 -2.3513 -3.3776
13501TIP3    H261995   5.206   0.808   5.641 -2.9681 -1.7378 -1.5620
13502TIP3   OH261996   3.611   4.716  14.996  0.0664 -0.4716  0.6160
13502TIP3    H161997   3.562   4.782  14.947  0.7253  0.1988  0.8421
13502TIP3    H261998   3.679   4.687  14.936  0.9043  0.3849  1.1293
13503TIP3   OH261999   4.433   1.260  14.057 -0.5764  0.3537  1.0121
13503TIP3    H162000   4.398   1.171  14.049  1.1223 -0.0928 -1.8165
13503TIP3    H262001   4.355   1.316  14.051 -1.4041 -0.8414  0.2876
13504TIP3   OH262002   4.917   0.326  15.029 -0.2151  0.0697  0.5042
13504TIP3    H162003   4.950   0.344  15.117  0.2523 -1.4635  0.6584
13504TIP3    H262004   4.853   0.256  15.042  1.7527 -2.0309 -0.6644
13505TIP3   OH262005   3.860   1.495  13.446  0.1639  0.4147  0.2264
13505TIP3    H162006   3.907   1.494  13.363 -1.2557 -0.7079 -0.5692
13505TIP3    H262007   3.907   1.431  13.500  0.8638  0.8853  0.1962
13506TIP3   OH262008   4.563   2.841  13.796  0.2583 -0.6264 -0.2872
13506TIP3    H162009   4.599   2.757  13.823  1.6317 -0.0771 -0.3847
13506TIP3    H262010   4.639   2.899  13.790 -0.5599  0.3736 -1.1358
13507TIP3   OH262011   1.701   2.502   5.621 -0.5188 -0.3260  0.5502
13507TIP3    H162012   1.638   2.531   5.555 -1.5828 -1.2224  1.1489
13507TIP3    H262013   1.657   2.429   5.665  1.1895 -1.3554  0.5849
13508TIP3   OH262014   1.078   6.802  17.048  0.2842 -0.7892 -0.2513
13508TIP3    H162015   1.063   6.874  16.985  1.0864 -0.9205 -0.5962
13508TIP3    H262016   1.004   6.743  17.034 -0.9678  0.5067  0.7868
13509TIP3   OH262017   1.120   2.129   2.083 -0.5389 -0.2788  0.8182
13509TIP3    H162018   1.210   2.142   2.113 -0.4432  1.2370 -0.0326
13509TIP3    H262019   1.111   2.035   2.071  1.6018 -0.2546 -1.1231
13510TIP3   OH262020   2.829   1.572   4.814 -0.0171 -0.3101  0.3648
13510TIP3    H162021   2.743   1.531   4.806  0.6008 -1.4007 -0.9663
13510TIP3    H262022   2.842   1.585   4.908 -0.8447 -1.8389  0.6930
13511TIP3   OH262023   0.364   3.037   2.425 -0.0549 -0.0825 -0.0066
13511TIP3    H162024   0.404   3.098   2.364 -0.6205  0.0481 -0.2520
13511TIP3    H262025   0.346   3.089   2.503  0.1598 -0.1170  0.0662
13512TIP3   OH262026   2.407   2.638  13.901  0.1364 -0.0881  0.1549
13512TIP3    H162027   2.429   2.724  13.865  0.0051 -0.1052  0.0351
13512TIP3    H262028   2.490   2.590  13.902 -0.2720 -0.8939 -2.2955
13513TIP3   OH262029   1.123   0.775   0.315 -0.4236  0.0696  0.6755
13513TIP3    H162030   1.136   0.859   0.270 -4.1657  0.0207 -0.6490
13513TIP3    H262031   1.071   0.797   0.392  0.5877 -0.7303  1.5839
13514TIP3   OH262032   4.014   5.214   1.225  0.2261 -0.0621 -0.1827
13514TIP3    H162033   3.945   5.251   1.169 -0.0363  0.0369  0.2034
13514TIP3    H262034   4.021   5.122   1.198 -0.0621 -0.0731 -0.2181
13515TIP3   OH262035   6.771   3.662   4.982 -0.1951  0.0654 -0.5808
13515TIP3    H162036   6.683   3.645   5.014  0.5729  0.0038  1.5315
13515TIP3    H262037   6.813   3.576   4.980  0.2552  0.2750 -0.2650
13516TIP3   OH262038   1.518   6.334   5.159 -0.1368  0.7426  0.6278
13516TIP3    H162039   1.434   6.301   5.191 -0.7187  0.1369 -1.4261
13516TIP3    H262040   1.497   6.418   5.118  0.4403  1.1143  1.0938
13517TIP3   OH262041   0.625   3.370  13.932 -0.1299 -0.1723  0.1330
13517TIP3    H162042   0.641   3.397  14.022 -2.0475 -0.6333  0.6512
13517TIP3    H262043   0.577   3.287  13.940  0.5289 -0.7195 -1.3266
13518TIP3   OH262044   1.584   5.326  12.713 -0.4492 -0.1462 -0.2535
13518TIP3    H162045   1.631   5.282  12.784 -1.9653  0.0987  0.9341
13518TIP3    H262046   1.587   5.264  12.641 -0.6468 -1.2937  0.6953
13519TIP3   OH262047   5.690   1.125  14.469  0.1393 -0.3817  0.0302
13519TIP3    H162048   5.659   1.115  14.559 -0.4928 -0.9661 -0.2511
13519TIP3    H262049   5.735   1.210  14.469 -1.4774  0.4868  0.4302
13520TIP3   OH262050   0.082   1.864   4.333 -0.1400  0.3385 -0.1248
13520TIP3    H162051   0.104   1.957   4.336 -0.6766  0.4282  2.2780
13520TIP3    H262052   0.156   1.821   4.377  0.6873 -0.5092 -2.2964
13521TIP3   OH262053   4.508   0.632   3.327  0.1624  0.1151  0.5040
13521TIP3    H162054   4.457   0.711   3.308  0.8438  0.4761  0.1475
13521TIP3    H262055   4.571   0.659   3.394  0.4658 -0.0887  0.3067
13522TIP3   OH262056   2.605   3.274   0.021 -0.0121 -0.3761 -0.2240
13522TIP3    H162057   2.672   3.231  -0.032  0.4248 -0.8832  0.7314
13522TIP3    H262058   2.523   3.238  -0.010  0.0620  1.0319 -2.1349
13523TIP3   OH262059   2.970   5.091   4.209 -0.5625 -0.2602 -0.2976
13523TIP3    H162060   2.935   5.003   4.203 -1.0223 -0.0487 -0.7679
13523TIP3    H262061   2.998   5.100   4.300  0.2684 -1.1840 -0.4524
13524TIP3   OH262062   3.466   5.474   3.347 -0.2812 -0.3020  0.8517
13524TIP3    H162063   3.489   5.410   3.280  1.1521  0.0401  1.0143
13524TIP3    H262064   3.370   5.472   3.350 -0.4582  0.6901 -2.2205
13525TIP3   OH262065   1.450   3.136  13.379 -0.5223  0.1584 -0.0084
13525TIP3    H162066   1.460   3.093  13.294 -0.0742 -1.1490  0.6899
13525TIP3    H262067   1.356   3.147  13.390 -0.5363  1.3641 -1.1641
13526TIP3   OH262068   2.622   5.888  13.008 -0.0699  0.3873 -0.3527
13526TIP3    H162069   2.665   5.946  13.071  0.5203 -0.0401 -0.3617
13526TIP3    H262070   2.534   5.924  12.999 -0.1544  0.4601  0.7103
13527TIP3   OH262071   0.439   3.628  13.670 -0.6668 -0.2606 -0.2292
13527TIP3    H162072   0.438   3.616  13.765 -2.0378 -0.0287 -0.2155
13527TIP3    H262073   0.352   3.604  13.641 -0.7910  1.3025 -1.2283
13528TIP3   OH262074   0.648   5.462  17.053  0.2259  0.6351  0.0671
13528TIP3    H162075   0.599   5.493  16.977  1.0741 -0.1291 -0.7986
13528TIP3    H262076   0.723   5.521  17.060 -0.8146  1.8352  1.4250
13529TIP3   OH262077   0.791   4.752  11.790  0.0100 -0.1002  0.4101
13529TIP3    H162078   0.852   4.682  11.767 -1.7014 -1.1913 -0.9093
13529TIP3    H262079   0.726   4.711  11.846 -1.3410  0.2426 -0.8570
13530TIP3   OH262080   3.284   4.631   5.004 -0.1654 -0.4520 -0.0578
13530TIP3    H162081   3.282   4.695   4.934 -0.8610  0.4873  0.8037
13530TIP3    H262082   3.368   4.644   5.047  0.3577 -1.1794 -0.8370
13531TIP3   OH262083   0.700   5.741  13.650  0.3804 -0.1786 -0.4511
13531TIP3    H162084   0.632   5.678  13.625  0.9867 -1.1188  0.2107
13531TIP3    H262085   0.769   5.687  13.688 -0.1851  1.1504  2.5354
13532TIP3   OH262086   4.620   2.967   0.942  0.2595 -0.3637  0.5417
13532TIP3    H162087   4.634   3.029   0.870  0.7413 -2.2620 -1.0202
13532TIP3    H262088   4.695   2.980   1.000 -0.5495  1.7651  1.1861
13533TIP3   OH262089   6.734   2.324   4.509  0.1806 -0.6758  0.7077
13533TIP3    H162090   6.653   2.321   4.561  0.2096 -2.3740  0.7009
13533TIP3    H262091   6.803   2.305   4.573  0.7692  2.4400  1.0428
13534TIP3   OH262092   3.201   6.320   2.434  0.2381  0.1282  0.3912
13534TIP3    H162093   3.119   6.289   2.472  0.9578 -0.5050  1.4377
13534TIP3    H262094   3.244   6.241   2.402  1.1865  0.2756  1.3134
13535TIP3   OH262095   2.882   5.600   2.698  0.1936  0.2801  0.1819
13535TIP3    H162096   2.856   5.665   2.763 -0.3444  1.2113 -0.9428
13535TIP3    H262097   2.864   5.643   2.613 -2.3458 -2.1510 -0.5989
13536TIP3   OH262098   6.558   4.173  14.909 -0.0720 -0.0216  0.6740
13536TIP3    H162099   6.637   4.162  14.962 -0.1325 -0.8165  0.6086
13536TIP3    H262100   6.522   4.257  14.936  0.3441 -0.0424  1.2996
13537TIP3   OH262101   6.254   2.489   0.814  1.1347  0.0745  0.0965
13537TIP3    H162102   6.249   2.393   0.819  2.7572 -0.0323  0.0013
13537TIP3    H262103   6.285   2.516   0.900  2.5156  0.3473 -0.4669
13538TIP3   OH262104   5.196   0.756   5.008 -0.2630  0.4145  0.6784
13538TIP3    H162105   5.143   0.696   5.060 -1.3927 -0.1541 -1.1093
13538TIP3    H262106   5.278   0.709   4.994 -0.7438 -0.2718  0.1838
13539TIP3   OH262107   5.577   1.250  15.858 -0.3466  0.0979 -0.6326
13539TIP3    H162108   5.568   1.275  15.766 -2.5055  0.4903 -0.3616
13539TIP3    H262109   5.585   1.155  15.856 -1.8655 -0.0370 -1.1714
13540TIP3   OH262110   2.339   5.211  12.367  0.3839  0.3900 -0.3204
13540TIP3    H162111   2.421   5.257  12.384  0.3090  1.2002 -2.0234
13540TIP3    H262112   2.275   5.280  12.348 -0.2885 -0.2975 -0.6096
13541TIP3   OH262113   3.284   3.678   3.795  0.3127 -0.2625  0.2562
13541TIP3    H162114   3.298   3.705   3.704 -0.6423 -0.6655 -0.0203
13541TIP3    H262115   3.334   3.741   3.847  1.1969 -0.2772 -0.5681
13542TIP3   OH262116   5.769   4.156  16.547 -0.2615  0.8384  0.4923
13542TIP3    H162117   5.729   4.241  16.533 -0.8706  0.7985  1.8960
13542TIP3    H262118   5.819   4.166  16.628  2.5230  0.8619 -1.1676
13543TIP3   OH262119   4.996   5.150  11.624  0.0892  0.2388 -0.4807
13543TIP3    H162120   5.060   5.216  11.651  0.2773  0.8065 -2.1930
13543TIP3    H262121   5.043   5.096  11.560 -0.3766 -0.9331  0.1574
13544TIP3   OH262122   3.164   6.286  15.298 -0.4042  0.1275 -0.3055
13544TIP3    H162123   3.156   6.362  15.240 -0.5212 -0.3503 -0.9192
13544TIP3    H262124   3.089   6.294  15.358  0.5666  1.4514  0.7737
13545TIP3   OH262125   3.647   4.919  13.749 -0.0485 -0.2309  0.8246
13545TIP3    H162126   3.735   4.926  13.784 -0.1547  0.6936  0.9119
13545TIP3    H262127   3.631   5.002  13.704 -0.5667 -0.7105  0.0874
13546TIP3   OH262128   5.195   5.448   2.365  0.5689  0.3279 -0.2076
13546TIP3    H162129   5.174   5.358   2.390  0.4880  0.1975 -0.7450
13546TIP3    H262130   5.221   5.442   2.273  0.9818  0.7895 -0.1244
13547TIP3   OH262131   6.674   6.177  15.582 -0.3543 -0.2181 -0.0481
13547TIP3    H162132   6.626   6.110  15.534  1.9390 -0.8664 -1.5382
13547TIP3    H262133   6.723   6.128  15.648 -1.7104  0.4284  1.4596
13548TIP3   OH262134   3.563   0.318   0.502  0.8976 -0.3165 -0.1972
13548TIP3    H162135   3.592   0.305   0.592  0.9663 -1.9253 -0.4365
13548TIP3    H262136   3.543   0.230   0.470 -1.3651  0.4521 -1.0085
13549TIP3   OH262137   5.997   4.726   6.407  0.0041  0.1397 -0.0362
13549TIP3    H162138   6.067   4.664   6.428 -1.5638 -0.8132  2.5823
13549TIP3    H262139   5.965   4.699   6.321 -0.2265 -2.3144  0.7848
13550TIP3   OH262140   2.104   5.663  15.012  0.2549  0.2855  0.0024
13550TIP3    H162141   2.158   5.720  14.956  0.0201  0.1493 -0.3654
13550TIP3    H262142   2.018   5.706  15.014 -0.4807 -1.0581 -1.8447
13551TIP3   OH262143   2.023   3.941   2.132  0.7122  0.0425  0.1187
13551TIP3    H162144   2.018   3.937   2.228 -0.9291 -0.2986  0.0251
13551TIP3    H262145   1.935   3.919   2.102  0.8585  1.4908 -1.4426
13552TIP3   OH262146   4.310   3.133  16.449 -0.2609 -0.4863  0.3596
13552TIP3    H162147   4.331   3.215  16.493 -0.8074 -0.7999  1.2101
13552TIP3    H262148   4.253   3.087  16.510  0.9825 -2.0173  0.3909
13553TIP3   OH262149   1.372   1.878   1.097 -0.7010  0.3283 -0.2228
13553TIP3    H162150   1.362   1.830   1.015 -0.7311 -0.8296  0.4429
13553TIP3    H262151   1.464   1.865   1.122 -0.4162  1.5655 -0.6122
13554TIP3   OH262152   1.794   3.517  11.968 -0.0212  0.7582  0.6316
13554TIP3    H162153   1.860   3.524  12.038  1.6141  1.1515 -0.8937
13554TIP3    H262154   1.826   3.576  11.900 -1.9333  0.8694 -0.1979
13555TIP3   OH262155   3.904   1.150  15.617  0.3938 -0.5611  0.9225
13555TIP3    H162156   3.866   1.066  15.643  0.4425 -1.1531 -0.8400
13555TIP3    H262157   3.841   1.216  15.646 -0.1965 -1.2807  1.2863
13556TIP3   OH262158   1.550   1.908  15.575  0.4185 -0.1221  0.3553
13556TIP3    H162159   1.600   1.989  15.579 -1.5286  1.1641 -0.8534
13556TIP3    H262160   1.553   1.873  15.664 -0.3238  2.2640  1.3384
13557TIP3   OH262161   2.592   5.212   5.779  0.0846 -0.2383 -0.4974
13557TIP3    H162162   2.637   5.144   5.829  2.2355  0.5447 -1.2742
13557TIP3    H262163   2.500   5.189   5.784  0.5664 -1.9753  1.0889
13558TIP3   OH262164   1.175   4.602   2.288 -0.4257 -0.4642 -0.3380
13558TIP3    H162165   1.133   4.651   2.217 -2.0632  0.1341  1.0145
13558TIP3    H262166   1.157   4.510   2.268 -1.9511 -0.2357 -0.0574
13559TIP3   OH262167   4.935   5.520   2.628  0.2722 -0.5321 -0.2841
13559TIP3    H162168   4.958   5.522   2.721 -1.8148  2.4479  0.2500
13559TIP3    H262169   4.880   5.442   2.619  0.0068 -0.5363  1.1449
13560TIP3   OH262170   5.812   5.211  16.859 -0.9964  0.1780 -0.0435
13560TIP3    H162171   5.791   5.157  16.935 -0.9844 -0.9009 -0.8009
13560TIP3    H262172   5.801   5.152  16.784 -0.2028  1.0004 -0.8140
13561TIP3   OH262173   5.689   5.784  12.793 -0.5287  0.6858 -0.2654
13561TIP3    H162174   5.775   5.825  12.803  0.3739 -0.9734 -0.9317
13561TIP3    H262175   5.653   5.783  12.882  0.4702  0.7099  0.1527
13562TIP3   OH262176   3.746   1.993  17.059 -0.2099 -0.5384  0.2730
13562TIP3    H162177   3.707   2.078  17.041  0.5289 -0.4066 -0.7746
13562TIP3    H262178   3.787   2.003  17.145 -1.7670 -0.4372  1.0233
13563TIP3   OH262179   6.670   5.732   1.112  0.2537 -0.5517 -0.2029
13563TIP3    H162180   6.761   5.721   1.085  0.7477  2.6082  0.0588
13563TIP3    H262181   6.669   5.705   1.204  0.8169 -0.9536 -0.3088
13564TIP3   OH262182   4.663   6.387  12.459 -0.3360 -0.2313  0.3756
13564TIP3    H162183   4.609   6.453  12.416  0.0260  0.6571  1.2681
13564TIP3    H262184   4.746   6.432  12.477  0.1648 -1.1338  0.3720
13565TIP3   OH262185   5.373   3.387   2.269  0.1023  0.0997  0.0663
13565TIP3    H162186   5.390   3.400   2.175 -1.7791  1.4275 -0.1249
13565TIP3    H262187   5.376   3.475   2.306 -1.4406 -0.1516  0.8301
13566TIP3   OH262188   2.433   2.587  10.818  0.1038 -0.1704  0.0424
13566TIP3    H162189   2.356   2.530  10.817  0.1991 -0.2740 -1.1388
13566TIP3    H262190   2.486   2.557  10.745  0.7514  0.6277  0.1871
13567TIP3   OH262191   6.391   2.304   1.390  0.8116 -0.2973  0.0303
13567TIP3    H162192   6.301   2.339   1.386  0.4762 -1.2899 -1.3985
13567TIP3    H262193   6.401   2.275   1.480 -0.2001  0.0945  0.2801
13568TIP3   OH262194   5.767   2.231   3.109  0.1727  0.6262 -0.6174
13568TIP3    H162195   5.673   2.245   3.115  0.1177 -0.1130  0.1816
13568TIP3    H262196   5.800   2.310   3.065 -0.9605  0.3443 -2.0045
13569TIP3   OH262197   5.172   5.565   4.641 -0.0603 -0.0050 -0.2776
13569TIP3    H162198   5.207   5.641   4.595  2.2787 -0.1420  1.1960
13569TIP3    H262199   5.092   5.598   4.683 -0.0538  1.1522 -1.1341
13570TIP3   OH262200   2.151   2.130   1.946 -0.5026 -0.3150 -0.3986
13570TIP3    H162201   2.076   2.189   1.955  0.3280  0.9231 -1.3613
13570TIP3    H262202   2.163   2.121   1.851  1.6823  0.9813 -0.2791
13571TIP3   OH262203   4.492   6.641   0.717 -0.2055 -0.4703 -0.3308
13571TIP3    H162204   4.483   6.642   0.812 -1.7100 -2.0925 -0.4360
13571TIP3    H262205   4.501   6.733   0.693 -2.2566  0.1455  1.1509
13572TIP3   OH262206   0.082   1.287  13.886  0.2923  0.3066 -0.2740
13572TIP3    H162207   0.063   1.205  13.932 -1.2765  1.0604  0.4766
13572TIP3    H262208   0.147   1.330  13.940 -1.0260  0.8640  0.9123
13573TIP3   OH262209   5.604   0.887   5.070 -0.3353 -0.2671 -0.6366
13573TIP3    H162210   5.569   0.802   5.099 -3.0890  1.7271  2.2453
13573TIP3    H262211   5.538   0.921   5.009 -0.1298  0.5717 -0.3996
13574TIP3   OH262212   0.281   1.270   4.219 -0.3159  0.6323  0.8274
13574TIP3    H162213   0.233   1.344   4.257  0.0139  2.2261 -1.7585
13574TIP3    H262214   0.214   1.205   4.199 -1.1400  1.9126 -0.6619
13575TIP3   OH262215   3.870   0.403   3.251  0.5068 -0.1458 -0.1359
13575TIP3    H162216   3.800   0.369   3.307 -0.0474 -0.5699 -1.0631
13575TIP3    H262217   3.947   0.352   3.276  0.5929  0.6128  1.1849
13576TIP3   OH262218   3.587   2.225   1.388  0.7667  0.1897  0.1678
13576TIP3    H162219   3.652   2.244   1.320 -0.0728  0.6440 -0.5117
13576TIP3    H262220   3.594   2.130   1.402  1.6090  0.2378  0.1470
13577TIP3   OH262221   2.754   1.007  13.280 -0.6105 -0.3287  0.0903
13577TIP3    H162222   2.723   1.089  13.242 -0.8332 -0.3812  0.1531
13577TIP3    H262223   2.790   0.957  13.206 -0.8637 -0.3504 -0.0196
13578TIP3   OH262224   2.467   3.386  13.380 -0.2604  0.3070  0.2365
13578TIP3    H162225   2.449   3.429  13.297  0.2239 -0.6592 -0.3861
13578TIP3    H262226   2.539   3.436  13.419  0.9147 -0.4687 -0.9059
13579TIP3   OH262227   0.506   0.325  11.472 -0.5560  0.6483  0.3908
13579TIP3    H162228   0.421   0.369  11.469 -0.7012  0.3130 -0.6575
13579TIP3    H262229   0.567   0.392  11.504 -1.0438  1.1686  0.2408
13580TIP3   OH262230   5.952   6.113   3.132  0.3629 -0.1005  0.0156
13580TIP3    H162231   5.859   6.138   3.135  0.2595 -0.4956  0.1961
13580TIP3    H262232   5.970   6.077   3.219 -0.0596 -2.5903 -0.8698
13581TIP3   OH262233   5.285   5.614  15.651  0.1340  0.0385 -0.2244
13581TIP3    H162234   5.285   5.531  15.698 -0.2584  0.4920  0.5972
13581TIP3    H262235   5.294   5.590  15.559  0.3296 -0.8923  0.0318
13582TIP3   OH262236   6.542   4.537   4.172  0.6313  0.2866  0.6251
13582TIP3    H162237   6.620   4.500   4.213 -1.0641 -2.2819  1.6455
13582TIP3    H262238   6.520   4.475   4.102 -0.0831  1.3873 -0.1557
13583TIP3   OH262239   1.398   2.311  15.738  0.2620  0.3014  0.6513
13583TIP3    H162240   1.377   2.218  15.734  0.8447  0.1962 -0.4017
13583TIP3    H262241   1.425   2.333  15.648  0.4427  1.4041  0.9648
13584TIP3   OH262242   4.970   3.695  11.727  1.1623  0.1632 -0.0291
13584TIP3    H162243   4.895   3.696  11.786  1.1823  1.2684 -0.0102
13584TIP3    H262244   5.046   3.695  11.785  1.2249 -3.5600 -0.0034
13585TIP3   OH262245   2.696   1.640  14.000  0.4445 -0.1390 -0.2725
13585TIP3    H162246   2.682   1.545  14.005  1.6171 -0.3622 -1.1709
13585TIP3    H262247   2.717   1.657  13.909  0.5900  0.9485 -0.0488
13586TIP3   OH262248   3.095   5.905   2.800 -0.0395  0.4652  0.2091
13586TIP3    H162249   3.086   5.867   2.887 -0.7757  0.3785  0.0984
13586TIP3    H262250   3.116   5.831   2.743  1.3615  0.6622  0.4633
13587TIP3   OH262251   5.352   5.735   4.904 -0.1226  0.2180 -1.0014
13587TIP3    H162252   5.335   5.829   4.906  1.8618  0.5800 -0.4207
13587TIP3    H262253   5.419   5.724   4.837  0.5435 -0.6335 -0.2053
13588TIP3   OH262254   0.475   2.461  11.231  0.3874  0.0239  0.1860
13588TIP3    H162255   0.450   2.521  11.302  2.4867  1.4044 -0.1998
13588TIP3    H262256   0.417   2.385  11.242 -2.0561  1.9341  0.9363
13589TIP3   OH262257   5.401   1.860   2.345 -0.3338 -0.6391  0.6671
13589TIP3    H162258   5.474   1.807   2.377  0.7634  0.5158  0.1009
13589TIP3    H262259   5.331   1.845   2.409  0.8055 -0.7996  1.9027
13590TIP3   OH262260   2.005   4.873  16.712 -0.1237 -0.2991 -0.0836
13590TIP3    H162261   1.919   4.889  16.751 -0.2200  0.3852 -0.5812
13590TIP3    H262262   2.058   4.947  16.740  0.5522 -1.1488  0.9310
13591TIP3   OH262263   4.514   4.987   3.285 -0.4225  0.0094  0.4497
13591TIP3    H162264   4.528   4.902   3.327  0.2493 -1.0387 -1.8059
13591TIP3    H262265   4.435   5.022   3.326  0.6791 -0.5720  3.1614
13592TIP3   OH262266   5.214   4.977  14.748  0.0612 -0.0416 -0.8245
13592TIP3    H162267   5.189   4.913  14.682 -4.1180 -0.0260  0.6159
13592TIP3    H262268   5.234   4.925  14.826  0.3336  0.2063 -0.7288
13593TIP3   OH262269   0.007   6.374  11.448  0.1232 -0.0526  0.0258
13593TIP3    H162270  -0.040   6.324  11.381 -0.0151  0.8977 -0.5994
13593TIP3    H262271  -0.016   6.332  11.531 -0.6731 -0.4805 -0.4090
13594TIP3   OH262272   6.323   4.145  15.642  0.2670  0.0927 -0.2230
13594TIP3    H162273   6.237   4.125  15.680  0.6799  0.3364  0.8668
13594TIP3    H262274   6.377   4.069  15.665  0.3851  0.0151 -0.7615
13595TIP3   OH262275   5.840   0.550   1.637  0.2535  0.2660  0.1676
13595TIP3    H162276   5.822   0.457   1.631  2.6152 -0.1796 -0.3039
13595TIP3    H262277   5.768   0.591   1.588 -0.8501 -1.2836  0.4619
13596TIP3   OH262278   1.268   5.737  14.867  0.0971  0.1717 -0.0362
13596TIP3    H162279   1.229   5.718  14.952  0.5167  1.3749  0.4365
13596TIP3    H262280   1.194   5.739  14.807 -0.3594  0.6780  0.5421
13597TIP3   OH262281   4.835   3.505   5.400 -1.1450 -0.2913  0.1695
13597TIP3    H162282   4.864   3.452   5.475  0.4144  1.1866  0.6253
13597TIP3    H262283   4.777   3.571   5.439  2.1943  2.5124  0.6145
13598TIP3   OH262284   6.012   6.421   5.684  0.0886 -0.2977 -0.2561
13598TIP3    H162285   5.945   6.395   5.748  0.0681 -0.0305 -0.1681
13598TIP3    H262286   6.087   6.449   5.736 -0.4626  1.3711 -0.3027
13599TIP3   OH262287   0.963   4.348  14.758 -0.0558 -0.2540 -0.7379
13599TIP3    H162288   0.925   4.325  14.672  1.7438 -0.9887 -1.3541
13599TIP3    H262289   1.001   4.435  14.744  0.2934 -0.4024 -0.6871
13600TIP3   OH262290   1.953   2.400  15.572 -0.0281 -0.1113 -0.0152
13600TIP3    H162291   1.862   2.425  15.588 -0.1145  0.0423 -0.7144
13600TIP3    H262292   1.959   2.309  15.603 -0.9263 -0.7715 -1.6670
13601TIP3   OH262293   0.033   5.438  13.684 -0.0316  1.2814  0.2275
13601TIP3    H162294  -0.006   5.520  13.716 -1.1052  0.4945  0.9434
13601TIP3    H262295  -0.025   5.369  13.715  1.1791  0.1882  0.1289
13602TIP3   OH262296   0.452   2.450   1.839 -0.3329 -0.8169 -0.0453
13602TIP3    H162297   0.411   2.389   1.777  1.0582  0.1989 -2.0120
13602TIP3    H262298   0.540   2.415   1.852  0.7067  1.0995 -1.7056
13603TIP3   OH262299   0.470   2.539   3.862 -0.1246  0.1555  0.3413
13603TIP3    H162300   0.468   2.451   3.825 -2.1615  0.4416 -0.3023
13603TIP3    H262301   0.381   2.553   3.895  0.3717  1.7049  1.0681
13604TIP3   OH262302   0.895   5.877  11.340  0.3258  0.2630 -0.3117
13604TIP3    H162303   0.967   5.836  11.388 -0.1342 -1.5674 -1.1199
13604TIP3    H262304   0.929   5.891  11.252 -0.0616  0.0651 -0.4965
13605TIP3   OH262305   5.631   3.334  14.942  0.5262  0.5223 -0.2750
13605TIP3    H162306   5.690   3.261  14.925  0.2154 -0.0599  1.0534
13605TIP3    H262307   5.544   3.301  14.920  0.7161  1.5631 -2.7770
13606TIP3   OH262308   2.420   1.064  12.297  0.0620  0.1998 -0.3807
13606TIP3    H162309   2.430   0.969  12.298  0.8554  0.2821 -0.6012
13606TIP3    H262310   2.438   1.091  12.387 -2.4408 -0.0772  0.2640
13607TIP3   OH262311   2.467   0.949  12.945 -0.9198  0.1797  0.4140
13607TIP3    H162312   2.404   1.011  12.982 -1.3497  0.6287 -1.0494
13607TIP3    H262313   2.552   0.993  12.955 -0.9177 -0.0765  1.6353
13608TIP3   OH262314   4.383   2.474  11.405 -0.4337 -0.2069 -0.0976
13608TIP3    H162315   4.310   2.455  11.346  1.5161 -1.5021 -2.1642
13608TIP3    H262316   4.460   2.440  11.360  1.5190  1.4751  1.8662
13609TIP3   OH262317   0.260   6.574  14.209 -0.0272  0.1738  0.0331
13609TIP3    H162318   0.348   6.553  14.177 -0.0744 -1.2668  0.8085
13609TIP3    H262319   0.209   6.589  14.129  0.6206 -0.2558 -0.4712
13610TIP3   OH262320   3.911   1.737  11.906  0.2239 -0.5018 -0.7830
13610TIP3    H162321   3.982   1.677  11.926 -0.2089 -0.7940 -0.1119
13610TIP3    H262322   3.915   1.804  11.974  1.5449  1.0065 -2.2866
13611TIP3   OH262323   1.644   1.832   0.292 -0.9291  0.1725 -0.1449
13611TIP3    H162324   1.686   1.761   0.341 -0.7553  0.8340  0.6801
13611TIP3    H262325   1.715   1.873   0.243 -0.5886  1.3669  1.3436
13612TIP3   OH262326   4.432   4.168  13.408  0.1824 -0.3847 -0.5662
13612TIP3    H162327   4.427   4.256  13.369 -0.5025 -0.7437 -1.2992
13612TIP3    H262328   4.526   4.149  13.412  0.2848 -0.1650 -1.6627
13613TIP3   OH262329   3.311   3.124   0.433  0.4839  0.4181 -0.0453
13613TIP3    H162330   3.263   3.206   0.440  0.3250  0.1152  2.9799
13613TIP3    H262331   3.395   3.142   0.475 -0.0647 -1.3123  1.8823
13614TIP3   OH262332   0.033   6.693   4.871  0.4046 -0.0596  1.1604
13614TIP3    H162333   0.122   6.684   4.907  0.9207  1.4030  0.2678
13614TIP3    H262334   0.020   6.613   4.821  0.5457 -1.0899  2.7221
13615TIP3   OH262335   0.419   3.779   1.923 -0.8015 -0.3277  0.0969
13615TIP3    H162336   0.514   3.781   1.933 -1.0255 -0.4770  2.5759
13615TIP3    H262337   0.393   3.694   1.959 -1.7807 -0.7984 -1.6680
13616TIP3   OH262338   3.413   3.062  14.663  0.0164 -0.3068  0.0947
13616TIP3    H162339   3.415   3.035  14.571  2.9246 -2.6646  0.7634
13616TIP3    H262340   3.366   3.145  14.662  0.6050  0.1006 -3.6358
13617TIP3   OH262341   0.602   1.607  14.662 -0.2488  0.8023  0.3969
13617TIP3    H162342   0.607   1.661  14.740  0.6577  2.3696 -0.7199
13617TIP3    H262343   0.545   1.656  14.602  0.5619  0.5154 -0.6158
13618TIP3   OH262344   3.456   5.215   5.136  1.1980 -0.4305 -0.0209
13618TIP3    H162345   3.536   5.225   5.084  1.1407  1.8505  0.3051
13618TIP3    H262346   3.473   5.137   5.189  1.4547 -2.5184 -3.0200
13619TIP3   OH262347   0.530   5.272  11.373  0.0753 -0.1590 -0.6081
13619TIP3    H162348   0.471   5.345  11.393  1.3443  0.8099 -0.2994
13619TIP3    H262349   0.567   5.248  11.458  1.2852  0.2845 -0.9905
13620TIP3   OH262350   4.219   1.324  11.587  0.4473  0.2195  0.0940
13620TIP3    H162351   4.311   1.322  11.560  0.2786  1.2515 -0.5952
13620TIP3    H262352   4.173   1.359  11.511 -0.3464  0.9340  0.8943
13621TIP3   OH262353   5.004   0.068   0.982  0.7830  0.3579 -0.0218
13621TIP3    H162354   4.960   0.148   0.955  0.8789  0.4414  0.0727
13621TIP3    H262355   4.982   0.058   1.074 -0.0774 -0.2702 -0.2866
13622TIP3   OH262356   5.009   6.289  13.097  0.5483 -0.1845  0.1722
13622TIP3    H162357   4.916   6.274  13.109  0.4881 -0.6028 -0.7268
13622TIP3    H262358   5.049   6.265  13.180 -0.1810  0.3605  0.6896
13623TIP3   OH262359   2.896   3.116  14.013  0.3085 -0.1440 -0.6080
13623TIP3    H162360   2.869   3.137  13.924  1.4199  0.4161 -0.8192
13623TIP3    H262361   2.831   3.161  14.069 -0.2016 -0.2382 -1.1183
13624TIP3   OH262362   3.200   4.355   4.332 -0.4751  0.0474  0.8331
13624TIP3    H162363   3.264   4.423   4.310 -1.1131  0.8390  1.4021
13624TIP3    H262364   3.117   4.402   4.341 -1.7933 -1.3537 -2.9366
13625TIP3   OH262365   2.218   4.993   5.276 -0.0619  0.1328  0.7277
13625TIP3    H162366   2.144   5.047   5.248  0.7406  1.0970  0.4318
13625TIP3    H262367   2.283   5.056   5.306  1.2392 -0.6105 -0.4611
13626TIP3   OH262368   1.559   1.303   3.146 -0.3716 -0.7244 -0.3681
13626TIP3    H162369   1.572   1.372   3.210 -1.2986 -0.4991 -0.4154
13626TIP3    H262370   1.633   1.244   3.159  1.9577  1.6961 -2.2033
13627TIP3   OH262371   0.377   2.677   1.191 -0.1708  0.1086  0.1294
13627TIP3    H162372   0.317   2.739   1.233 -0.8984  0.4872 -1.4250
13627TIP3    H262373   0.320   2.618   1.141  0.6683 -0.3751 -0.2705
13628TIP3   OH262374   2.881   0.600  14.917 -0.1939  0.0160 -0.0102
13628TIP3    H162375   2.898   0.519  14.870  1.0297  0.4840 -0.3856
13628TIP3    H262376   2.919   0.586  15.004 -0.6580 -0.0884  0.1814
13629TIP3   OH262377   3.202   4.041   1.705 -0.3403 -0.1586 -0.3416
13629TIP3    H162378   3.214   4.104   1.776 -0.1442 -0.1650 -0.3694
13629TIP3    H262379   3.207   4.094   1.625 -0.4637 -0.1664 -0.3554
13630TIP3   OH262380   6.370   5.936   3.060  0.1893 -0.4048 -0.2004
13630TIP3    H162381   6.412   5.930   2.975 -0.1124 -1.3377 -0.2863
13630TIP3    H262382   6.439   5.919   3.123  0.3994  0.2224 -0.2620
13631TIP3   OH262383   5.498   0.806  10.596 -0.2209  0.6559  0.9319
13631TIP3    H162384   5.462   0.890  10.569 -1.2006  0.1445  0.6583
13631TIP3    H262385   5.424   0.757  10.631  0.2383 -0.3074  0.5968
13632TIP3   OH262386   2.167   1.722  12.639 -0.1270 -0.5188  0.0172
13632TIP3    H162387   2.160   1.653  12.572  2.0706 -0.3465 -0.4142
13632TIP3    H262388   2.219   1.790  12.598  1.0094 -0.2851  1.8162
13633TIP3   OH262389   1.911   5.497  12.929  0.4414 -0.2418 -0.1163
13633TIP3    H162390   1.948   5.413  12.902 -1.3059 -1.6069  1.5753
13633TIP3    H262391   1.904   5.490  13.025 -0.0680  1.6842  0.0016
13634TIP3   OH262392   0.061   0.169  15.840 -0.5211  0.0596 -0.1708
13634TIP3    H162393   0.021   0.183  15.754 -2.2779 -0.3692  0.5753
13634TIP3    H262394   0.026   0.238  15.895  2.6071  1.9640 -0.4133
13635TIP3   OH262395   4.468   0.383   4.830 -0.5593 -0.4493  0.1044
13635TIP3    H162396   4.522   0.356   4.755  1.7284  1.0532  1.1331
13635TIP3    H262397   4.460   0.304   4.883  1.8257 -0.4230  0.5931
13636TIP3   OH262398   2.816   5.869   4.541  0.1406 -0.5110  0.1346
13636TIP3    H162399   2.784   5.815   4.468 -0.0259 -1.3797  0.8410
13636TIP3    H262400   2.740   5.922   4.566 -0.1721 -1.1047  0.4746
13637TIP3   OH262401   0.460   0.465   4.390  0.1597 -0.7626  0.4574
13637TIP3    H162402   0.543   0.510   4.405  0.2087 -0.2331 -1.2969
13637TIP3    H262403   0.445   0.473   4.296 -0.8032 -2.7278  0.4055
13638TIP3   OH262404   1.927   1.932   2.142  0.0246  0.7192 -0.0729
13638TIP3    H162405   1.928   2.005   2.079 -0.1200  0.2395 -0.6392
13638TIP3    H262406   2.013   1.935   2.183 -0.1831  1.5554  0.3093
13639TIP3   OH262407   0.002   3.097   5.496  0.1858 -0.0731  0.1162
13639TIP3    H162408  -0.053   3.167   5.530  0.8142  0.6469 -0.3303
13639TIP3    H262409  -0.030   3.083   5.407  1.2478  0.9190 -0.4375
13640TIP3   OH262410   4.307   2.987   6.586  0.4263 -0.4582 -0.1501
13640TIP3    H162411   4.397   3.004   6.612 -0.3303  2.1363  1.0266
13640TIP3    H262412   4.272   3.074   6.563 -1.2638 -1.6411 -2.2695
13641TIP3   OH262413   5.402   1.837  16.369  0.2940 -0.0378  0.3607
13641TIP3    H162414   5.319   1.790  16.376  1.1438 -1.6434 -0.0863
13641TIP3    H262415   5.469   1.769  16.376  1.5496  1.0409 -0.7423
13642TIP3   OH262416   1.646   5.163   4.389 -0.3048  0.0274  0.2477
13642TIP3    H162417   1.699   5.089   4.359  1.1039  0.8687  0.5879
13642TIP3    H262418   1.615   5.205   4.309  2.4134  1.5376 -0.0662
13643TIP3   OH262419   3.818   3.875   5.809  0.1118 -0.3271  0.3006
13643TIP3    H162420   3.882   3.847   5.875 -0.4236  0.8112  1.3250
13643TIP3    H262421   3.862   3.947   5.763 -0.2810  0.1882  0.7346
13644TIP3   OH262422   0.762   4.477  13.834  0.5678 -0.1209 -0.2236
13644TIP3    H162423   0.756   4.571  13.848  0.9630  0.0914 -1.4394
13644TIP3    H262424   0.689   4.456  13.775 -0.0527 -0.7220  0.7447
13645TIP3   OH262425   1.473   6.558   0.950 -0.7354  0.9673  0.2343
13645TIP3    H162426   1.477   6.541   1.045 -0.2172  0.8721  0.1974
13645TIP3    H262427   1.502   6.476   0.910 -2.3757  0.5169 -0.0431
13646TIP3   OH262428   0.545   3.338   4.231 -0.5197  0.4054  0.2765
13646TIP3    H162429   0.613   3.297   4.285 -0.4316 -0.8947 -0.7936
13646TIP3    H262430   0.551   3.432   4.251 -1.1055 -0.1590  3.1852
13647TIP3   OH262431   6.624   5.327  11.097  0.7648  0.3679  0.1918
13647TIP3    H162432   6.700   5.301  11.149  1.3158  1.9344  0.2008
13647TIP3    H262433   6.561   5.358  11.162 -0.6759 -2.7087  0.3624
13648TIP3   OH262434   4.809   0.545   3.653  0.0970 -0.0931  0.0788
13648TIP3    H162435   4.859   0.496   3.587  0.3427 -1.4664  1.2485
13648TIP3    H262436   4.724   0.501   3.656  0.2225 -0.2890  0.9388
13649TIP3   OH262437   4.697   6.348   4.062  0.2260 -0.3750  0.4678
13649TIP3    H162438   4.686   6.291   3.986 -0.3315 -1.5494  1.4272
13649TIP3    H262439   4.662   6.432   4.033  3.3412  0.2278 -1.8110
13650TIP3   OH262440   2.724   0.092   5.100 -0.4672  0.6478 -0.0221
13650TIP3    H162441   2.650   0.085   5.041 -0.7722  0.0841  0.4111
13650TIP3    H262442   2.749   0.001   5.118  2.3540  0.8374 -2.6569
13651TIP3   OH262443   5.167   2.648  14.295 -0.3406 -0.0945  0.4586
13651TIP3    H162444   5.129   2.714  14.237  4.4236  0.2849 -2.4954
13651TIP3    H262445   5.201   2.698  14.369  0.9968  0.5123 -0.5442
13652TIP3   OH262446   5.128   5.501   4.942  0.3407  0.1463 -0.2828
13652TIP3    H162447   5.043   5.535   4.914 -0.6486 -0.3270  2.0658
13652TIP3    H262448   5.192   5.566   4.911 -1.0359  1.4719 -0.3575
13653TIP3   OH262449   4.776   4.466  16.191 -0.4952 -0.2188  0.1941
13653TIP3    H162450   4.753   4.419  16.110 -1.1570  1.1386 -0.4389
13653TIP3    H262451   4.724   4.546  16.186  0.9800  0.7955  1.0045
13654TIP3   OH262452   4.745   1.501   4.233 -0.2537  0.0456  0.0245
13654TIP3    H162453   4.750   1.555   4.154  0.5841  1.3141  0.9225
13654TIP3    H262454   4.789   1.554   4.300  2.5636 -2.6652  0.4193
13655TIP3   OH262455   5.222   3.362  17.172 -0.1034  0.5003 -0.1593
13655TIP3    H162456   5.205   3.303  17.098 -1.3066  0.0040  0.5019
13655TIP3    H262457   5.317   3.359  17.183 -0.1948 -1.8519  0.2942
13656TIP3   OH262458   5.966   4.978  12.100  0.3302 -0.0519  0.2842
13656TIP3    H162459   6.018   4.942  12.029 -0.5180 -0.0942 -0.3219
13656TIP3    H262460   5.994   4.929  12.177  2.4092  1.0873  0.3081
13657TIP3   OH262461   0.905   3.208  12.095  0.3551 -0.1030 -0.0379
13657TIP3    H162462   0.954   3.289  12.079 -0.1067  0.0396 -0.7550
13657TIP3    H262463   0.882   3.177  12.008 -0.3840 -0.4453  0.2790
13658TIP3   OH262464   5.751   1.538   4.488  0.1322 -0.5050  0.1654
13658TIP3    H162465   5.695   1.591   4.432  1.9332  0.3160 -0.8728
13658TIP3    H262466   5.753   1.586   4.571 -0.2151 -0.2416  0.0256
13659TIP3   OH262467   6.718   0.151  15.597 -0.7601  0.3230  0.2104
13659TIP3    H162468   6.772   0.076  15.573 -0.7027  0.7126 -0.8897
13659TIP3    H262469   6.641   0.112  15.639 -0.0850 -0.2761  0.9095
13660TIP3   OH262470   3.772   1.135  14.747 -0.0126  0.7005 -0.6768
13660TIP3    H162471   3.852   1.084  14.739  0.3783  1.1141  0.5226
13660TIP3    H262472   3.722   1.114  14.668  1.4628  0.7693 -1.6484
13661TIP3   OH262473   1.437   5.608   1.682 -0.5048 -0.0887 -0.2533
13661TIP3    H162474   1.371   5.568   1.738 -0.8176 -0.7476 -1.0911
13661TIP3    H262475   1.426   5.702   1.696 -2.6291 -0.1212 -1.5260
13662TIP3   OH262476   5.976   6.778   2.271  0.1955  0.0068 -0.1962
13662TIP3    H162477   5.947   6.864   2.239  0.8146  0.8921  1.6157
13662TIP3    H262478   6.069   6.775   2.251  0.1197 -0.3729 -0.5077
13663TIP3   OH262479   6.320   1.201  13.748 -0.0055 -0.0885 -0.2140
13663TIP3    H162480   6.236   1.237  13.718 -0.2327  0.1873  0.7349
13663TIP3    H262481   6.302   1.108  13.760  0.0479 -0.1749 -0.7961
13664TIP3   OH262482   6.264   0.340  12.318 -0.5012  0.1977 -0.2495
13664TIP3    H162483   6.313   0.269  12.360 -1.4582  0.0792  0.7234
13664TIP3    H262484   6.247   0.308  12.229 -0.0461 -0.3593 -0.1412
13665TIP3   OH262485   6.761   0.108   4.333  0.0944  0.0210  0.3351
13665TIP3    H162486   6.730   0.064   4.412 -0.0622 -0.3096  0.0964
13665TIP3    H262487   6.847   0.142   4.356  0.7338 -1.4396  0.1796
13666TIP3   OH262488   5.005   3.339  15.140 -0.4210 -0.0171 -0.1100
13666TIP3    H162489   4.970   3.342  15.230  0.7083 -0.3347  0.3547
13666TIP3    H262490   5.075   3.405  15.140  0.4854 -0.9619 -0.3465
13667TIP3   OH262491   0.779   4.542   2.032 -0.1531 -0.0889  0.2482
13667TIP3    H162492   0.872   4.517   2.027  0.1316  1.2720 -2.4491
13667TIP3    H262493   0.732   4.459   2.031  0.9943 -0.7564  0.0845
13668TIP3   OH262494   1.250   4.689   4.013  0.1050 -0.4158 -0.3599
13668TIP3    H162495   1.279   4.770   4.053 -0.1984 -0.1220 -0.7308
13668TIP3    H262496   1.227   4.632   4.086  1.9708 -0.7939 -0.0466
13669TIP3   OH262497   6.322   0.550  15.401 -0.0379 -0.6401 -0.3861
13669TIP3    H162498   6.283   0.550  15.489  0.6390  0.2113 -0.0709
13669TIP3    H262499   6.253   0.583  15.344  0.4508  1.6803  0.2935
13670TIP3   OH262500   2.098   6.782  11.464  0.0092 -0.3160 -0.3975
13670TIP3    H162501   2.099   6.760  11.371 -1.4228  0.8747 -0.7091
13670TIP3    H262502   2.049   6.865  11.469 -0.1395 -0.4906  1.4324
13671TIP3   OH262503   0.378   3.156  13.674 -0.0213  0.2549 -0.0086
13671TIP3    H162504   0.309   3.187  13.616 -0.1989  0.5284  0.3436
13671TIP3    H262505   0.333   3.102  13.739  0.4356 -1.6479 -1.2591
13672TIP3   OH262506   3.131   4.187  13.680  0.0514 -0.5339  0.5612
13672TIP3    H162507   3.175   4.147  13.754  0.5272 -0.0624  0.5309
13672TIP3    H262508   3.097   4.113  13.629  1.0775 -0.9050  0.4101
13673TIP3   OH262509   1.260   3.447  16.996  0.2075 -0.2088  0.1615
13673TIP3    H162510   1.209   3.466  16.918  0.1266 -0.8874  0.0474
13673TIP3    H262511   1.320   3.521  17.004  0.1315 -0.0763 -0.4722
13674TIP3   OH262512   4.430   4.373  14.408 -0.6883  0.4390  0.0805
13674TIP3    H162513   4.343   4.343  14.382  0.9262 -0.8933 -4.2015
13674TIP3    H262514   4.419   4.467  14.425 -3.0251  0.2093  0.0494
13675TIP3   OH262515   3.670   1.450  17.095  0.1214  0.4035 -0.2756
13675TIP3    H162516   3.666   1.438  17.000  1.0037 -2.1860 -0.0137
13675TIP3    H262517   3.665   1.545  17.107  0.9488  0.8245 -2.9693
13676TIP3   OH262518   3.972   5.814  12.439 -0.2800 -0.2591  0.5058
13676TIP3    H162519   3.944   5.771  12.359  0.5988  0.8670 -0.4198
13676TIP3    H262520   3.962   5.908  12.422 -0.9529 -0.0317  2.0334
13677TIP3   OH262521   3.217   2.787  16.731 -0.2802  0.0071  0.3965
13677TIP3    H162522   3.213   2.825  16.643 -0.1568  1.8452  1.1680
13677TIP3    H262523   3.166   2.706  16.724 -0.4391  0.2317 -1.3146
13678TIP3   OH262524   0.187   5.342   5.757  0.2253 -0.0491  0.0797
13678TIP3    H162525   0.246   5.403   5.801 -2.5459 -1.0330  5.5746
13678TIP3    H262526   0.236   5.260   5.753  1.2286  0.5609 -0.5619
13679TIP3   OH262527   5.146   4.191   0.941  0.3161 -0.3004 -0.3975
13679TIP3    H162528   5.131   4.100   0.968  0.7414 -0.4225 -0.5578
13679TIP3    H262529   5.096   4.244   1.002  2.5252 -0.4691  1.6359
13680TIP3   OH262530   5.033   4.039   3.090  0.1059 -0.7365 -0.3049
13680TIP3    H162531   5.037   3.943   3.089  0.7313 -0.7137 -0.0931
13680TIP3    H262532   5.124   4.067   3.078  0.1913 -0.1812  1.5305
13681TIP3   OH262533   1.225   0.348  16.038 -0.1369  0.3388 -0.7264
13681TIP3    H162534   1.229   0.426  15.983  0.2152  0.7140 -0.1797
13681TIP3    H262535   1.180   0.283  15.985 -1.5877  1.3091 -0.7171
13682TIP3   OH262536   4.242   1.272  15.761  0.2474  0.6764  0.1066
13682TIP3    H162537   4.219   1.180  15.772 -0.0614  0.6690 -0.5932
13682TIP3    H262538   4.172   1.320  15.807  0.1634  0.5789  0.0802
13683TIP3   OH262539   1.847   2.304  15.061  0.3094  0.2237  0.6771
13683TIP3    H162540   1.894   2.223  15.040  1.7010  1.2844 -0.4514
13683TIP3    H262541   1.811   2.333  14.977 -3.6806 -1.3084  1.7487
13684TIP3   OH262542   6.736   2.187   2.215 -0.0313  0.4814 -0.3019
13684TIP3    H162543   6.707   2.180   2.124 -0.8810 -2.1128  0.1240
13684TIP3    H262544   6.831   2.193   2.210  0.1298 -2.3089 -1.3053
13685TIP3   OH262545   6.690   4.166  14.652  0.1253 -0.1478 -0.0954
13685TIP3    H162546   6.649   4.143  14.736  2.1593 -1.2310  0.6353
13685TIP3    H262547   6.649   4.107  14.588 -0.2689 -0.4532  0.4341
13686TIP3   OH262548   4.674   5.836  13.323  0.0160 -0.9581 -0.1621
13686TIP3    H162549   4.624   5.778  13.265  0.9336  0.3536 -2.3105
13686TIP3    H262550   4.620   5.915  13.331 -0.1656 -1.1724  0.9212
13687TIP3   OH262551   1.148   5.454  14.764 -0.2494  0.4508 -0.2478
13687TIP3    H162552   1.132   5.528  14.823 -0.5370 -0.0681  0.3325
13687TIP3    H262553   1.063   5.409  14.758  0.5533 -1.3829  1.5514
13688TIP3   OH262554   4.214   4.103   5.488  0.2298  0.4646  0.1051
13688TIP3    H162555   4.231   4.047   5.413  1.7657 -0.1158  0.8494
13688TIP3    H262556   4.215   4.192   5.452  0.3123  0.1503 -0.6729
13689TIP3   OH262557   2.433   5.308   3.216  0.0891 -0.4329  0.0341
13689TIP3    H162558   2.479   5.388   3.191 -1.7526  0.2111 -1.4572
13689TIP3    H262559   2.425   5.259   3.134 -2.2342 -0.3029  0.1501
13690TIP3   OH262560   2.369   1.145   0.162  0.1177  0.3865  0.2378
13690TIP3    H162561   2.461   1.135   0.188  0.8132  2.8316 -1.0677
13690TIP3    H262562   2.324   1.071   0.203  2.7126 -1.0431  0.6259
13691TIP3   OH262563   0.581   6.389  11.217 -0.3396 -0.2842  0.0158
13691TIP3    H162564   0.598   6.464  11.273 -0.6757  1.0513 -1.6308
13691TIP3    H262565   0.599   6.420  11.128 -0.5657 -2.1235 -0.7115
13692TIP3   OH262566   5.279   6.619  16.002  0.4459  0.0688 -0.7688
13692TIP3    H162567   5.329   6.542  15.975  0.2761  0.0158 -0.9330
13692TIP3    H262568   5.188   6.590  16.003  0.4654  0.0290  0.0132
13693TIP3   OH262569   1.412   2.329  11.406  0.1387  0.0692  0.2778
13693TIP3    H162570   1.357   2.266  11.453  0.6962  0.0021  0.8421
13693TIP3    H262571   1.387   2.320  11.314 -0.6110 -0.1473  0.5008
13694TIP3   OH262572   6.273   1.478   6.155 -0.0814  0.4234  0.3920
13694TIP3    H162573   6.294   1.484   6.249 -1.1449  0.2649  0.6446
13694TIP3    H262574   6.179   1.497   6.150  0.1412  1.2889 -0.7459
13695TIP3   OH262575   6.240   0.456   0.893  0.0556  0.6889  0.8497
13695TIP3    H162576   6.227   0.363   0.875  1.5710  0.7216 -0.4993
13695TIP3    H262577   6.320   0.459   0.946  0.3093  1.2798  0.4354
13696TIP3   OH262578   0.042   4.488  17.018 -0.0289  0.5363 -0.9962
13696TIP3    H162579   0.042   4.582  16.999  0.1658  0.6053 -0.6541
13696TIP3    H262580   0.116   4.475  17.077 -1.8078  0.6681  1.3382
13697TIP3   OH262581   1.035   6.027  11.933 -0.1042  0.9918  0.1263
13697TIP3    H162582   0.977   6.060  11.864 -0.9751  0.0231  0.3806
13697TIP3    H262583   0.978   6.019  12.010  0.0717 -1.0941  0.0707
13698TIP3   OH262584   3.758   0.555   4.213  0.1538 -0.4218 -0.1349
13698TIP3    H162585   3.756   0.644   4.249  0.3973 -0.1687 -0.7495
13698TIP3    H262586   3.819   0.560   4.140  3.0727 -1.9689  2.1185
13699TIP3   OH262587   5.483   2.555   4.362  0.1513 -0.0076  0.3842
13699TIP3    H162588   5.461   2.535   4.453 -1.3053 -0.1955  0.0104
13699TIP3    H262589   5.437   2.637   4.343  0.8317  0.2800 -0.0360
13700TIP3   OH262590   6.317   2.461  14.289 -0.0846 -0.3548 -0.2088
13700TIP3    H162591   6.254   2.399  14.324  0.0463  0.0904  0.8454
13700TIP3    H262592   6.394   2.408  14.267 -0.5435 -0.7848 -0.7836
13701TIP3   OH262593   6.086   5.377  16.718  0.3217 -0.3275  0.7905
13701TIP3    H162594   6.119   5.436  16.650  0.5312 -1.4223 -0.0650
13701TIP3    H262595   6.108   5.421  16.800  2.5002 -0.2525  0.2020
13702TIP3   OH262596   6.547   1.296   3.119  0.3468 -0.5739 -0.1234
13702TIP3    H162597   6.595   1.251   3.188  1.7567 -2.2750 -2.1708
13702TIP3    H262598   6.533   1.230   3.051 -0.8423  1.1008 -1.5687
13703TIP3   OH262599   6.346   6.341  13.282  0.1478  0.0151 -0.3982
13703TIP3    H162600   6.393   6.282  13.340 -0.8690 -0.7224 -0.3041
13703TIP3    H262601   6.310   6.408  13.340 -1.7291 -1.2884 -0.0107
13704TIP3   OH262602   5.583   0.177  11.661  0.0002 -0.0525  0.0952
13704TIP3    H162603   5.495   0.216  11.659 -0.0973 -0.3013 -2.0961
13704TIP3    H262604   5.639   0.245  11.697 -0.5578  1.3278 -1.5614
13705TIP3   OH262605   0.581   0.357  13.697 -0.5846  0.1219  0.3639
13705TIP3    H162606   0.510   0.407  13.658 -0.1914  1.2391  1.0384
13705TIP3    H262607   0.573   0.375  13.791 -1.1368 -2.0110  0.7549
13706TIP3   OH262608   6.147   2.977   4.987 -0.2265  0.2749  0.2027
13706TIP3    H162609   6.233   3.019   4.983  0.6792 -1.4575  1.2444
13706TIP3    H262610   6.106   3.013   5.066  0.5743 -0.8509  1.1323
13707TIP3   OH262611   0.406   1.466  12.483 -0.4294  0.1869  0.4829
13707TIP3    H162612   0.331   1.409  12.500  0.8880 -1.8103 -0.1224
13707TIP3    H262613   0.384   1.512  12.402 -1.3577  0.2830  0.7801
13708TIP3   OH262614   0.468   5.418   1.445  0.2982 -0.2753  0.6966
13708TIP3    H162615   0.459   5.464   1.528 -1.1877  0.8008 -0.0362
13708TIP3    H262616   0.511   5.481   1.387 -1.2601  0.0163 -0.1607
13709TIP3   OH262617   5.208   3.751  14.852 -0.2113  0.2294  0.6781
13709TIP3    H162618   5.121   3.763  14.814 -0.1428 -1.5319 -0.0898
13709TIP3    H262619   5.194   3.751  14.946 -0.7834  1.7358  0.6033
13710TIP3   OH262620   2.362   5.170   4.213  0.3659 -0.1234  1.1443
13710TIP3    H162621   2.406   5.087   4.230  0.7904 -0.1261  0.0539
13710TIP3    H262622   2.416   5.235   4.258  1.0104 -0.2353  0.5452
13711TIP3   OH262623   5.150   1.953  15.159  0.3265  0.2014  0.0806
13711TIP3    H162624   5.178   1.862  15.174  0.9685  0.6915  1.9088
13711TIP3    H262625   5.231   2.004  15.166 -0.1250  0.9933 -0.3915
13712TIP3   OH262626   3.564   4.046  15.696 -0.7948 -0.0627 -0.1096
13712TIP3    H162627   3.588   4.065  15.606 -1.0643 -1.2642 -0.4368
13712TIP3    H262628   3.473   4.019  15.692 -1.2763  1.3864  0.7290
13713TIP3   OH262629   5.974   1.118  16.799  0.0038 -0.5098  0.4857
13713TIP3    H162630   5.965   1.186  16.866 -0.8078 -0.5021  0.3740
13713TIP3    H262631   5.923   1.044  16.832 -2.1095  0.2189 -1.0533
13714TIP3   OH262632   0.436   6.207  11.040 -0.1155  0.5071 -0.3509
13714TIP3    H162633   0.418   6.270  11.109 -0.0884 -0.6726  0.7627
13714TIP3    H262634   0.532   6.201  11.037 -0.0881  1.4729 -1.3371
13715TIP3   OH262635   4.645   5.483  14.715 -0.0316  0.7458  0.7116
13715TIP3    H162636   4.719   5.516  14.767 -1.1669  0.7043  2.4006
13715TIP3    H262637   4.582   5.454  14.781 -1.5193  0.7210 -0.7208
13716TIP3   OH262638   5.095   5.897  17.189 -0.2915  0.3216 -0.2507
13716TIP3    H162639   5.084   5.803  17.203  0.9283  0.4447  1.6518
13716TIP3    H262640   5.174   5.905  17.135  0.9546  0.3491  1.5423
13717TIP3   OH262641   4.143   2.572  14.233 -0.0448  0.6009 -0.0914
13717TIP3    H162642   4.140   2.654  14.184 -2.6750  0.2873 -0.5149
13717TIP3    H262643   4.115   2.597  14.322  0.4020  0.3723  0.1173
13718TIP3   OH262644   0.313   4.272  11.541  0.0845  0.0194  0.7301
13718TIP3    H162645   0.218   4.264  11.546  0.0037 -0.0146 -0.6894
13718TIP3    H262646   0.335   4.336  11.608 -1.3169  2.7264 -1.3040
13719TIP3   OH262647   4.885   3.229  13.416  0.8833  0.2756 -0.4342
13719TIP3    H162648   4.832   3.308  13.425  0.3948  0.2022 -2.3807
13719TIP3    H262649   4.867   3.198  13.327  2.7559 -0.8101 -0.4688
13720TIP3   OH262650   6.382   3.324   2.969  0.2350 -0.6892  0.2338
13720TIP3    H162651   6.441   3.323   2.894  0.5127 -0.4686  0.4524
13720TIP3    H262652   6.294   3.322   2.930  0.2847  2.8137 -0.1880
13721TIP3   OH262653   2.349   4.639  10.588 -0.1219  0.9354 -0.7779
13721TIP3    H162654   2.422   4.654  10.649 -0.2948  3.1077 -1.0797
13721TIP3    H262655   2.388   4.652  10.501  0.1301 -2.1685 -1.1963
13722TIP3   OH262656   2.936   3.249   3.388 -0.3823  0.5011  0.0143
13722TIP3    H162657   2.919   3.304   3.312  1.0226  0.8631 -0.0604
13722TIP3    H262658   2.987   3.176   3.354 -1.4404 -0.3485  0.2723
13723TIP3   OH262659   5.956   2.973   6.198 -0.2566  0.0600  0.0047
13723TIP3    H162660   5.864   2.999   6.202 -0.6683 -1.4187  0.4366
13723TIP3    H262661   6.005   3.054   6.215 -1.4833  0.7702  0.1691
13724TIP3   OH262662   5.978   2.159  14.250 -0.8321  0.0099  0.1089
13724TIP3    H162663   5.950   2.098  14.319 -1.2764 -0.6887 -0.6819
13724TIP3    H262664   5.897   2.199  14.219 -0.9245 -1.5318 -1.7330
13725TIP3   OH262665   4.229   2.698   6.389 -0.2156  0.1271 -0.3039
13725TIP3    H162666   4.150   2.673   6.341 -0.6901  0.6598  0.1996
13725TIP3    H262667   4.198   2.725   6.475  0.6819 -1.3045  0.4935
13726TIP3   OH262668   3.986   5.892   6.564 -0.3944 -0.2847  0.0092
13726TIP3    H162669   3.931   5.946   6.620 -2.4794 -1.0521 -1.2386
13726TIP3    H262670   4.019   5.952   6.497  0.2056  0.1662  0.7154
13727TIP3   OH262671   6.295   1.713  13.881 -0.4031 -0.2753 -0.1021
13727TIP3    H162672   6.302   1.633  13.935  2.3637  0.7202  1.1015
13727TIP3    H262673   6.221   1.760  13.919 -2.2080 -2.3122 -0.9516
13728TIP3   OH262674   0.150   0.957  11.363  0.0174  0.1713  0.2252
13728TIP3    H162675   0.090   1.015  11.410 -0.5966  1.0872 -1.6114
13728TIP3    H262676   0.235   0.972  11.404 -0.8345 -0.4429  2.2422
13729TIP3   OH262677   6.068   6.024   1.960  0.2266  0.1398 -0.0999
13729TIP3    H162678   6.133   5.977   2.012 -0.1520  0.1422  0.3762
13729TIP3    H262679   6.088   6.117   1.975 -0.0000  0.1420  0.1928
13730TIP3   OH262680   0.691   1.045  16.720 -0.0746 -0.1874 -0.2128
13730TIP3    H162681   0.776   1.071  16.685  0.1096 -0.7493 -0.1900
13730TIP3    H262682   0.667   1.116  16.780  0.4003 -0.0544 -0.1794
13731TIP3   OH262683   4.831   2.004   3.448 -0.1799 -0.3499  0.8590
13731TIP3    H162684   4.922   1.975   3.440 -0.5083 -1.1063 -0.2545
13731TIP3    H262685   4.792   1.983   3.364 -1.7236 -1.2212  1.7707
13732TIP3   OH262686   4.812   3.715   2.682 -0.1593  0.4078 -0.1288
13732TIP3    H162687   4.843   3.675   2.763  1.5476  2.0019  0.0599
13732TIP3    H262688   4.749   3.781   2.710  0.8741  1.3751 -0.0059
13733TIP3   OH262689   3.496   5.329   3.748  0.0833  0.6852 -0.4293
13733TIP3    H162690   3.470   5.415   3.782  0.0816  0.8597 -0.8634
13733TIP3    H262691   3.534   5.348   3.662 -2.1861  0.0264 -1.6277
13734TIP3   OH262692   3.529   0.156   1.036 -0.0185 -0.2460  0.4242
13734TIP3    H162693   3.553   0.063   1.040 -0.8213 -0.4576  0.3421
13734TIP3    H262694   3.454   0.164   1.095  0.4807  0.4912  0.9632
13735TIP3   OH262695   1.884   5.023  17.197  0.2044 -0.4202 -0.0716
13735TIP3    H162696   1.853   5.050  17.111  0.6503 -1.2914 -0.5192
13735TIP3    H262697   1.937   5.096  17.228  0.5908 -0.3731 -0.8301
13736TIP3   OH262698   1.414   0.948  14.710  0.3976  0.1979 -0.1073
13736TIP3    H162699   1.507   0.941  14.687  0.9228  1.6362  1.4515
13736TIP3    H262700   1.407   1.032  14.757 -2.0250  0.9761 -1.7751
13737TIP3   OH262701   6.737   6.801   4.591  0.0360  0.4915  0.4091
13737TIP3    H162702   6.786   6.829   4.668  0.6027  0.4088  0.0812
13737TIP3    H262703   6.645   6.815   4.614  0.1739 -0.0461  1.3111
13738TIP3   OH262704   2.406   1.081  14.925  0.1621 -0.5287 -0.1785
13738TIP3    H162705   2.346   1.015  14.959  1.9387 -2.3511 -0.4634
13738TIP3    H262706   2.410   1.148  14.993 -1.3637 -0.9038  0.2906
13739TIP3   OH262707   2.759   4.265  15.031  0.3569  0.7277  0.0438
13739TIP3    H162708   2.810   4.217  15.097 -0.6959 -0.4985  0.0079
13739TIP3    H262709   2.821   4.283  14.961  0.8142 -0.5555  0.0893
13740TIP3   OH262710   2.276   1.928   6.101 -0.2604 -0.0337  0.0972
13740TIP3    H162711   2.312   1.986   6.034 -0.3325  0.3994  0.4283
13740TIP3    H262712   2.353   1.888   6.142 -0.1276  1.0467  0.9429
13741TIP3   OH262713   4.604   6.328  15.933  0.2091 -0.0476 -0.2180
13741TIP3    H162714   4.544   6.262  15.899 -0.1931  0.2580 -0.1054
13741TIP3    H262715   4.564   6.359  16.014 -0.7056  1.8640 -1.3556
13742TIP3   OH262716   6.113   3.587   5.504  0.0355 -0.0684 -0.1724
13742TIP3    H162717   6.193   3.559   5.458 -1.7260  1.0214 -4.1656
13742TIP3    H262718   6.066   3.505   5.521  0.0012 -0.4039 -1.7936
13743TIP3   OH262719   5.420   5.164   0.978 -0.2613 -0.6620 -0.5675
13743TIP3    H162720   5.425   5.253   1.014 -2.5012 -0.3326 -1.0346
13743TIP3    H262721   5.454   5.108   1.048  0.2351  0.4656  0.1045
13744TIP3   OH262722   1.029   5.747  14.732 -0.4995 -0.7414  0.4524
13744TIP3    H162723   0.953   5.695  14.706  0.2857 -0.9642 -1.4847
13744TIP3    H262724   0.999   5.837  14.729 -0.2848 -0.7257 -1.8320
13745TIP3   OH262725   5.569   0.254  12.980 -0.1851 -0.2940  0.0970
13745TIP3    H162726   5.658   0.239  13.012  0.8875  0.0659 -2.5997
13745TIP3    H262727   5.539   0.167  12.951  0.6880  0.2012 -2.3744
13746TIP3   OH262728   0.809   5.687  17.030 -0.0179 -0.2968  0.8479
13746TIP3    H162729   0.847   5.774  17.037 -1.5754  0.5187 -0.6088
13746TIP3    H262730   0.865   5.632  17.084  2.3422  1.1558 -0.0770
13747TIP3   OH262731   4.353   4.409  13.051  0.3133  0.1781  0.2768
13747TIP3    H162732   4.408   4.373  12.982  0.1319 -1.7166  1.0929
13747TIP3    H262733   4.264   4.406  13.015  0.2267 -0.7496  0.5508
13748TIP3   OH262734   0.314   1.752  14.225 -0.1483 -0.2103  1.1386
13748TIP3    H162735   0.278   1.663  14.221 -3.8025  1.2362 -1.0091
13748TIP3    H262736   0.351   1.767  14.138 -1.1553  0.9669  0.9012
13749TIP3   OH262737   2.113   3.196  10.479  0.1782  0.0240  0.1639
13749TIP3    H162738   2.207   3.189  10.465  0.2250  1.9989 -0.7436
13749TIP3    H262739   2.088   3.113  10.520  2.1722 -0.8265 -0.2856
13750TIP3   OH262740   3.297   4.376  13.591  0.2350 -0.2728  0.6384
13750TIP3    H162741   3.380   4.331  13.571  0.3729 -0.0659  0.7421
13750TIP3    H262742   3.236   4.305  13.612  0.0568 -0.5028 -0.6297
13751TIP3   OH262743   2.910   4.639  16.865 -0.3596 -0.3170 -0.3213
13751TIP3    H162744   2.868   4.606  16.785 -0.8780  1.2044 -0.7033
13751TIP3    H262745   2.922   4.561  16.919 -0.7767 -1.2537 -1.5341
13752TIP3   OH262746   5.800   6.561   4.508 -0.3598 -0.4932  0.0694
13752TIP3    H162747   5.777   6.503   4.435 -1.2963 -1.0021  0.7591
13752TIP3    H262748   5.717   6.579   4.552  0.1759 -0.0674  0.9271
13753TIP3   OH262749   4.121   3.535   4.026 -0.2508 -0.3263  0.3435
13753TIP3    H162750   4.091   3.500   4.110  2.8676 -2.2142  0.7649
13753TIP3    H262751   4.169   3.615   4.050  0.1651 -0.5686  0.3314
13754TIP3   OH262752   6.661   1.737  11.051 -0.0625 -0.8126 -0.0231
13754TIP3    H162753   6.661   1.646  11.080  1.6850 -0.3995  1.3582
13754TIP3    H262754   6.742   1.745  11.000  0.7546  0.4293  1.4260
13755TIP3   OH262755   3.985   3.986   0.118  0.1469 -0.1736 -0.1052
13755TIP3    H162756   3.892   4.010   0.123 -0.5537 -2.9183  1.7763
13755TIP3    H262757   4.003   3.978   0.025 -2.2355 -1.9285 -0.4792
13756TIP3   OH262758   5.762   3.532  13.999 -0.2597  0.2960  0.4020
13756TIP3    H162759   5.847   3.557  14.035 -0.5303 -0.8962  1.9037
13756TIP3    H262760   5.771   3.439  13.980 -0.8078  0.4622 -0.6706
13757TIP3   OH262761   6.634   5.716  15.440  0.3419  0.2092  0.2010
13757TIP3    H162762   6.586   5.671  15.510  0.1112  1.9813  1.2066
13757TIP3    H262763   6.673   5.645  15.389 -2.7411 -1.3042 -0.2289
13758TIP3   OH262764   1.662   4.755  16.573 -0.4309 -0.6825 -0.5749
13758TIP3    H162765   1.633   4.691  16.508 -4.1194 -0.4794  0.7247
13758TIP3    H262766   1.695   4.702  16.646  0.9817 -0.9726 -1.4140
13759TIP3   OH262767   1.991   0.767  15.017 -0.2538  0.4059  0.2157
13759TIP3    H162768   1.936   0.705  14.969 -1.3439  1.3591  0.2303
13759TIP3    H262769   2.064   0.713  15.049 -1.7474 -1.1175  1.1609
13760TIP3   OH262770   5.411   0.503   5.842  0.5689  0.2381  0.0462
13760TIP3    H162771   5.407   0.584   5.892  1.2910  0.1064  0.3266
13760TIP3    H262772   5.442   0.438   5.905 -1.4484 -0.5884  0.2244
13761TIP3   OH262773   0.165   2.723   5.115 -0.0349 -0.5682  0.6724
13761TIP3    H162774   0.218   2.708   5.036  0.0858 -1.8573  0.9858
13761TIP3    H262775   0.075   2.720   5.084  0.0327  2.0613  0.0582
13762TIP3   OH262776   2.593   2.712   5.424  0.4196 -0.0087  0.4983
13762TIP3    H162777   2.586   2.747   5.513  0.8243  0.6603  0.2678
13762TIP3    H262778   2.650   2.635   5.434 -0.0326 -0.2942  0.9132
13763TIP3   OH262779   0.318   4.925   5.902 -0.1316  0.1405 -0.8494
13763TIP3    H162780   0.352   4.948   5.988 -0.3252  0.1247 -0.7684
13763TIP3    H262781   0.389   4.874   5.861 -0.1059  0.0010 -0.6336
13764TIP3   OH262782   2.004   1.555  11.864 -0.8742  0.5197  0.2251
13764TIP3    H162783   2.093   1.580  11.837 -1.0426  1.1824  0.2660
13764TIP3    H262784   1.948   1.622  11.825 -1.3200  0.3037  0.4980
13765TIP3   OH262785   2.944   5.265  12.939 -0.2509  0.0923 -0.3381
13765TIP3    H162786   2.950   5.309  12.854  1.3505  0.5091 -0.0221
13765TIP3    H262787   3.033   5.234  12.956 -0.9572 -1.6309  0.3292
13766TIP3   OH262788   5.884   0.502  12.137  0.4603 -0.3751 -0.3486
13766TIP3    H162789   5.898   0.408  12.126 -0.6361 -0.4290 -1.4981
13766TIP3    H262790   5.869   0.534  12.048 -0.6586  0.6376  0.1881
13767TIP3   OH262791   4.272   5.841  11.822 -0.1314 -0.0781  0.1548
13767TIP3    H162792   4.192   5.848  11.771 -1.5779 -0.3890  2.3457
13767TIP3    H262793   4.301   5.750  11.807  0.1164  0.1879 -1.0455
13768TIP3   OH262794   1.166   3.398   3.359 -0.4742  0.0634  0.2670
13768TIP3    H162795   1.225   3.340   3.311  0.4377  0.9668  0.2763
13768TIP3    H262796   1.140   3.464   3.294 -1.3996 -0.2614  0.2903
13769TIP3   OH262797   1.107   2.691   4.129 -0.8061 -0.1752 -0.3362
13769TIP3    H162798   1.072   2.772   4.167 -0.5340 -0.6166  0.8829
13769TIP3    H262799   1.197   2.686   4.162 -1.0095 -1.2663  0.0879
13770TIP3   OH262800   4.161   1.086   1.227  0.2188 -0.4484  0.0340
13770TIP3    H162801   4.166   1.029   1.304  1.1869  1.5723  1.5107
13770TIP3    H262802   4.115   1.033   1.161 -1.3323 -1.9487  2.2292
13771TIP3   OH262803   2.580   3.406   1.170  0.3451 -0.3200  0.1863
13771TIP3    H162804   2.496   3.426   1.128  0.9429  0.5141 -0.6340
13771TIP3    H262805   2.569   3.432   1.261 -0.5508 -0.9636  0.2643
13772TIP3   OH262806   4.052   1.353   0.574  0.5761  0.1535 -0.1889
13772TIP3    H162807   4.073   1.299   0.650 -2.3438  1.3277  1.5272
13772TIP3    H262808   4.112   1.427   0.579  1.5604 -0.6434 -0.0281
13773TIP3   OH262809   1.437   4.221  14.136 -0.7310  0.7009  0.1482
13773TIP3    H162810   1.349   4.186  14.117  0.1572 -1.5176 -0.0453
13773TIP3    H262811   1.461   4.180  14.219 -0.3765  2.3212  0.8630
13774TIP3   OH262812   1.677   3.441   2.297 -0.6051 -0.1759  0.1896
13774TIP3    H162813   1.666   3.348   2.319 -0.0458 -0.3845 -0.4156
13774TIP3    H262814   1.745   3.442   2.230 -0.9689  0.6320 -0.1670
13775TIP3   OH262815   6.146   1.786  14.291 -0.5084  0.5255 -0.3101
13775TIP3    H162816   6.185   1.720  14.349 -1.4775  0.7483  0.5936
13775TIP3    H262817   6.129   1.738  14.209  2.1048  0.5368 -0.9113
13776TIP3   OH262818   5.042   6.047   6.257  0.5315  0.0840  0.0303
13776TIP3    H162819   5.051   6.096   6.339  0.6696  0.5055 -0.2354
13776TIP3    H262820   5.126   6.002   6.247  0.8731  0.8183 -0.3875
13777TIP3   OH262821   4.872   4.206  15.678 -0.6984 -0.0910 -0.5009
13777TIP3    H162822   4.855   4.127  15.628 -0.2581 -0.6623  0.2501
13777TIP3    H262823   4.959   4.234  15.649 -0.6570 -0.1386 -0.4196
13778TIP3   OH262824   2.043   4.635   5.012  0.1996 -0.3293 -0.6125
13778TIP3    H162825   1.970   4.695   5.025  0.5069  0.4229 -2.2539
13778TIP3    H262826   2.009   4.550   5.041 -0.7373  0.3448  0.3007
13779TIP3   OH262827   3.512   1.734  10.422 -0.7266  0.3301 -0.2885
13779TIP3    H162828   3.444   1.683  10.376 -0.8438  0.0345  0.2070
13779TIP3    H262829   3.589   1.678  10.419 -0.8338  0.1579  0.1887
13780TIP3   OH262830   0.992   6.279  15.103 -0.1084 -0.3160  0.2236
13780TIP3    H162831   1.022   6.351  15.047  0.6888 -1.3395 -0.6738
13780TIP3    H262832   1.072   6.230  15.124 -0.6129 -0.7913  1.0599
13781TIP3   OH262833   4.521   5.144   3.896  0.3095  0.1589 -0.4196
13781TIP3    H162834   4.457   5.203   3.934  1.7622  2.7283 -1.8410
13781TIP3    H262835   4.473   5.062   3.883 -2.2405  1.5398 -0.0380
13782TIP3   OH262836   4.413   2.510  16.153 -0.6048  0.0517 -0.5830
13782TIP3    H162837   4.428   2.472  16.066  2.4713  0.8815 -0.4927
13782TIP3    H262838   4.490   2.565  16.168 -1.7309  0.9659  2.1282
13783TIP3   OH262839   5.098   4.186  13.870  0.3653 -0.1823  0.1224
13783TIP3    H162840   5.068   4.111  13.922  2.5297 -0.8564  0.4664
13783TIP3    H262841   5.099   4.259  13.932 -1.8011  0.1553 -0.2248
13784TIP3   OH262842   4.915   6.665  15.310  0.0880 -0.0928 -0.1571
13784TIP3    H162843   4.923   6.572  15.291 -0.0458  0.0810 -1.1068
13784TIP3    H262844   4.999   6.690  15.348  1.1205 -0.0383 -2.3950
13785TIP3   OH262845   3.562   3.367   1.903 -0.0521  0.0416 -0.1557
13785TIP3    H162846   3.637   3.426   1.896  0.5832 -0.8323 -0.8796
13785TIP3    H262847   3.553   3.329   1.815  2.0790 -3.9601  1.2117
13786TIP3   OH262848   5.768   1.599   0.535  0.1915 -0.4010 -0.0908
13786TIP3    H162849   5.816   1.682   0.534 -1.2502  0.4433  0.0376
13786TIP3    H262850   5.823   1.540   0.587  1.6985  0.1797 -0.9974
13787TIP3   OH262851   3.271   2.809   4.860 -0.3534  0.6410 -0.2164
13787TIP3    H162852   3.194   2.794   4.805  0.1380 -0.6267 -0.5779
13787TIP3    H262853   3.322   2.874   4.812  0.3241 -0.8357 -1.5433
13788TIP3   OH262854   6.400   2.102   1.888  0.1229  0.1420 -0.3423
13788TIP3    H162855   6.391   2.016   1.928  0.4321  0.4409  0.3855
13788TIP3    H262856   6.327   2.153   1.922  0.6466  0.5335  0.2153
13789TIP3   OH262857   0.641   6.417   3.073 -0.8980  0.3633  0.0807
13789TIP3    H162858   0.574   6.439   3.008 -1.3402 -2.6364 -0.5338
13789TIP3    H262859   0.706   6.366   3.024 -0.5507 -0.7750  1.6953
13790TIP3   OH262860   5.802   2.564  13.291  0.2944  0.2029  0.3982
13790TIP3    H162861   5.826   2.487  13.342 -1.8199  0.1281  1.3637
13790TIP3    H262862   5.706   2.562  13.288  0.1932  2.7608  0.4178
13791TIP3   OH262863   1.001   5.640  12.560  0.0166  0.0929  0.3816
13791TIP3    H162864   1.082   5.673  12.600 -0.6990  1.3249  0.8688
13791TIP3    H262865   0.943   5.623  12.635 -0.2660 -0.5392  0.0230
13792TIP3   OH262866   1.488   2.821   2.238 -0.2091 -0.3499 -0.4016
13792TIP3    H162867   1.560   2.809   2.301 -0.1403  1.4216 -0.1204
13792TIP3    H262868   1.420   2.760   2.268  0.6658 -1.0957  0.1039
13793TIP3   OH262869   5.977   3.322  13.632 -0.1056  0.4660 -0.2124
13793TIP3    H162870   5.925   3.253  13.671 -1.5335  0.3691 -2.2047
13793TIP3    H262871   6.067   3.301  13.656 -0.5304 -1.9752 -0.6022
13794TIP3   OH262872   2.319   0.297   0.473 -0.2409  0.5002 -0.6878
13794TIP3    H162873   2.391   0.347   0.511  0.4848 -1.6510  0.8443
13794TIP3    H262874   2.347   0.279   0.383  0.1720  1.4653 -0.7595
13795TIP3   OH262875   3.422   4.969  13.998  0.0575 -0.2608  0.3673
13795TIP3    H162876   3.445   4.895  13.942 -0.3242  0.2042 -0.4241
13795TIP3    H262877   3.461   5.045  13.955  0.4458 -0.0063  1.1725
13796TIP3   OH262878   3.448   5.473   1.932  0.5189 -0.7136  0.0206
13796TIP3    H162879   3.533   5.504   1.901  0.0382  1.2532  0.5945
13796TIP3    H262880   3.415   5.417   1.861  1.2394  0.4553 -1.2502
13797TIP3   OH262881   4.249   0.730   1.294 -0.6372  0.4223 -0.6696
13797TIP3    H162882   4.339   0.761   1.287 -0.7520  0.9790  0.2449
13797TIP3    H262883   4.242   0.661   1.227  0.8499 -0.5544  0.1536
13798TIP3   OH262884   0.562   3.052  15.521  0.1037  0.2099  0.1648
13798TIP3    H162885   0.614   3.132  15.508  2.8917 -1.8275 -2.0375
13798TIP3    H262886   0.518   3.038  15.437 -0.4068 -0.5413  0.5508
13799TIP3   OH262887   5.255   4.727   4.110  0.3622 -0.4013  0.1867
13799TIP3    H162888   5.184   4.783   4.079  1.0916  0.8028  0.6847
13799TIP3    H262889   5.216   4.677   4.182  0.1073  0.4704  0.6532
13800TIP3   OH262890   3.177   1.453  11.332 -0.0631 -0.4751  0.0603
13800TIP3    H162891   3.259   1.442  11.380 -0.2077  0.5542  0.5415
13800TIP3    H262892   3.133   1.368  11.340  0.5134 -0.7239  0.6094
13801TIP3   OH262893   5.040   5.931  14.518  0.3672 -0.1019  0.0280
13801TIP3    H162894   4.994   5.962  14.596 -1.4778  0.4801 -1.2566
13801TIP3    H262895   4.976   5.939  14.448  2.1700 -0.1387 -1.6567
13802TIP3   OH262896   1.407   1.952   1.470  0.3221 -0.3892  0.6225
13802TIP3    H162897   1.431   2.027   1.415 -0.7955 -0.0605  0.5641
13802TIP3    H262898   1.354   1.896   1.413  1.3711 -1.3581  0.5939
13803TIP3   OH262899   5.487   5.854   4.286 -0.6345  0.2392 -0.0768
13803TIP3    H162900   5.527   5.894   4.209 -2.1657 -0.5145 -1.2964
13803TIP3    H262901   5.560   5.836   4.344  0.6701 -0.1160 -1.7811
13804TIP3   OH262902   5.745   2.768   0.059 -0.5151 -0.3840  0.1502
13804TIP3    H162903   5.660   2.796   0.027 -0.2875 -0.8749 -0.9036
13804TIP3    H262904   5.727   2.690   0.112 -0.8162  0.0533  0.6977
13805TIP3   OH262905   3.315   2.504   3.070  0.4510 -0.0654 -0.5660
13805TIP3    H162906   3.243   2.530   3.013  0.1175 -1.7459 -0.9204
13805TIP3    H262907   3.349   2.424   3.031  1.3343 -0.2763  0.6256
13806TIP3   OH262908   0.141   5.702   1.036  0.0503 -0.3824  0.0017
13806TIP3    H162909   0.233   5.702   1.062 -0.3976 -0.8345  1.6409
13806TIP3    H262910   0.131   5.627   0.979  0.9321  0.2877 -1.0388
13807TIP3   OH262911   2.526   6.320  13.742 -0.4479  0.4420 -0.3074
13807TIP3    H162912   2.435   6.326  13.714  0.3424  0.2669 -3.0387
13807TIP3    H262913   2.565   6.254  13.684  1.8295  1.8028 -0.3892
13808TIP3   OH262914   5.940   0.968   0.435 -0.4635  0.2761 -0.3529
13808TIP3    H162915   5.902   0.929   0.514  0.6010  0.6459  0.3515
13808TIP3    H262916   6.031   0.937   0.434 -0.9300 -1.1604 -2.3842
13809TIP3   OH262917   6.676   6.048  11.842 -0.4147  0.2187  0.0489
13809TIP3    H162918   6.595   6.090  11.871 -0.7551  0.6574 -1.4456
13809TIP3    H262919   6.648   5.992  11.769  1.0648  2.9862 -2.7532
13810TIP3   OH262920   1.109   1.219  14.634 -0.6147 -0.4152 -0.3218
13810TIP3    H162921   1.195   1.240  14.671 -1.8665 -0.8758  3.0047
13810TIP3    H262922   1.062   1.302  14.634 -0.8604 -0.5541 -0.1929
13811TIP3   OH262923   4.393   1.016   4.159  0.6303  0.8083 -0.4377
13811TIP3    H162924   4.311   1.027   4.206 -0.2289  1.7780 -2.1325
13811TIP3    H262925   4.442   1.097   4.175  0.4848  0.9927 -0.9227
13812TIP3   OH262926   2.159   4.180  15.151  0.2340  0.1806 -0.1858
13812TIP3    H162927   2.076   4.220  15.173  0.0176 -0.0362 -0.6061
13812TIP3    H262928   2.205   4.246  15.099 -0.2603 -0.2421 -1.1633
13813TIP3   OH262929   3.031   6.077   4.506  0.4094 -0.5395  0.0658
13813TIP3    H162930   3.095   6.052   4.440  1.5451  0.6684  0.6962
13813TIP3    H262931   2.959   6.015   4.495  1.5740 -1.7429 -0.8177
13814TIP3   OH262932   2.976   0.023  11.518  0.0627  0.1399 -0.2026
13814TIP3    H162933   2.896  -0.005  11.474 -0.9281 -0.4648  1.9192
13814TIP3    H262934   2.990   0.113  11.488 -1.4792  0.2872 -0.4953
13815TIP3   OH262935   2.232   3.311  16.884 -0.4411 -0.1678  0.5411
13815TIP3    H162936   2.292   3.252  16.838  0.1207 -3.3704  5.1185
13815TIP3    H262937   2.145   3.274  16.868 -0.6290  0.8482 -0.8872
13816TIP3   OH262938   6.300   3.029   2.043 -0.2168  0.1522  0.3838
13816TIP3    H162939   6.269   3.050   2.132 -1.4116  1.1423 -0.2384
13816TIP3    H262940   6.221   3.032   1.989  0.3480 -1.4109 -0.5619
13817TIP3   OH262941   2.366   2.833  12.590 -0.2578 -0.7797  0.5834
13817TIP3    H162942   2.385   2.926  12.603  0.3664 -1.0044  1.3534
13817TIP3    H262943   2.363   2.822  12.495 -0.1111 -0.0103  0.4871
13818TIP3   OH262944   5.936   4.615  17.213 -0.3124  0.1765 -0.0700
13818TIP3    H162945   5.860   4.670  17.196 -0.2244  0.2213 -0.3266
13818TIP3    H262946   5.918   4.534  17.165 -1.2431 -0.7007  1.7253
13819TIP3   OH262947   0.987   0.634   1.274 -0.5443 -0.7815  0.2126
13819TIP3    H162948   0.981   0.730   1.273 -1.0613 -0.8106  0.3175
13819TIP3    H262949   0.900   0.605   1.300 -0.3057 -1.2749  0.4725
13820TIP3   OH262950   3.520   2.996   4.363 -0.0467 -0.2899 -0.0917
13820TIP3    H162951   3.469   2.926   4.403  0.7627 -1.5059 -1.1847
13820TIP3    H262952   3.473   3.076   4.387 -1.5726 -1.2760  0.2551
13821TIP3   OH262953   2.051   6.287   2.801  0.2259  0.1020  0.1664
13821TIP3    H162954   2.127   6.262   2.749 -0.4566  0.2961 -0.9335
13821TIP3    H262955   2.074   6.372   2.839  0.2593  0.5241 -0.7950
13822TIP3   OH262956   5.551   5.068  13.772 -0.1544  0.5104 -0.5695
13822TIP3    H162957   5.593   5.042  13.690  1.4712 -0.2164  0.4721
13822TIP3    H262958   5.567   5.162  13.779  1.8595  0.1504  0.0906
13823TIP3   OH262959   5.513   2.705   2.117  0.3954 -0.7179  0.4882
13823TIP3    H162960   5.490   2.689   2.208 -2.2536 -3.4355 -0.5430
13823TIP3    H262961   5.472   2.789   2.096 -0.7557 -1.0930  1.2223
13824TIP3   OH262962   4.965   1.414  15.102 -0.4406  0.2742 -0.0590
13824TIP3    H162963   4.978   1.375  15.016  1.6641  0.0732  0.3214
13824TIP3    H262964   4.954   1.508  15.084  1.5509  0.4570 -0.4533
13825TIP3   OH262965   1.181   6.430  15.845  0.4829  0.5123  0.0554
13825TIP3    H162966   1.187   6.463  15.934 -1.8251 -0.7251  0.7378
13825TIP3    H262967   1.172   6.508  15.791 -0.7793  1.1853  1.1996
13826TIP3   OH262968   3.666   1.233   1.530 -0.0820  0.1586  0.0852
13826TIP3    H162969   3.718   1.301   1.486 -3.2341  0.9457 -2.6626
13826TIP3    H262970   3.706   1.151   1.502  0.4586  0.7692 -0.9895
13827TIP3   OH262971   6.349   3.003  16.944 -0.0028 -0.1766  0.3754
13827TIP3    H162972   6.423   2.986  16.885 -1.0313  0.4015 -1.1005
13827TIP3    H262973   6.370   2.953  17.023  1.4756 -0.8442 -0.4206
13828TIP3   OH262974   2.797   2.608  13.179 -0.0548 -0.5390 -0.5399
13828TIP3    H162975   2.737   2.533  13.180  0.8240 -1.2613 -1.0237
13828TIP3    H262976   2.874   2.577  13.131  0.0759  0.8650 -1.2855
13829TIP3   OH262977   6.599   3.289   4.513  0.3345 -0.1214  0.7544
13829TIP3    H162978   6.536   3.361   4.524 -0.3284 -0.3156 -1.4990
13829TIP3    H262979   6.564   3.238   4.440  3.2185 -0.1457 -0.6543
13830TIP3   OH262980   0.006   2.350   0.493  0.0017 -0.2351  0.2065
13830TIP3    H162981  -0.075   2.358   0.544 -0.1637 -0.5996  0.0030
13830TIP3    H262982   0.005   2.426   0.435  0.0139 -0.0119  0.5005
13831TIP3   OH262983   6.171   0.767   2.130  0.3219 -0.5478 -0.3200
13831TIP3    H162984   6.140   0.721   2.208  2.3910  0.3875  1.0971
13831TIP3    H262985   6.212   0.699   2.076 -1.0962 -1.1898 -0.6207
13832TIP3   OH262986   5.905   4.083   4.237  0.2161  0.4142  0.2769
13832TIP3    H162987   5.820   4.126   4.232 -0.0040 -0.0890 -0.5082
13832TIP3    H262988   5.943   4.094   4.150  0.2245 -0.8171  0.1085
13833TIP3   OH262989   1.077   1.913   1.184 -0.0460 -0.9215  0.3381
13833TIP3    H162990   1.162   1.956   1.170 -0.5796  0.3461  0.9026
13833TIP3    H262991   1.047   1.947   1.268 -1.5456 -0.6206 -0.3104
13834TIP3   OH262992   5.270   4.920   0.389  0.0845 -0.2942  0.1705
13834TIP3    H162993   5.305   4.966   0.313  1.0201 -0.3093  0.5763
13834TIP3    H262994   5.300   4.829   0.378 -0.2380 -0.4132  0.2773
13835TIP3   OH262995   4.352   4.774  12.398 -0.4943 -0.0018 -0.3514
13835TIP3    H162996   4.405   4.851  12.417 -0.7732  0.0400  0.2866
13835TIP3    H262997   4.300   4.761  12.478 -0.3386 -0.9345 -0.3953
13836TIP3   OH262998   3.092   5.184  14.006  0.0239  0.3033 -0.3654
13836TIP3    H162999   3.076   5.240  14.082 -0.6359 -1.2178  0.6578
13836TIP3    H263000   3.146   5.236  13.948  3.8429  0.1752  2.8515
13837TIP3   OH263001   5.012   4.471   5.768  0.2117  0.2015  0.1441
13837TIP3    H163002   5.099   4.440   5.746  0.1696 -0.3825  0.7918
13837TIP3    H263003   5.023   4.565   5.787  0.6200  0.2185 -0.1903
13838TIP3   OH263004   4.312   1.963  15.849  0.0355 -0.3915 -0.0268
13838TIP3    H163005   4.314   1.929  15.938  1.9804 -1.0435 -0.3007
13838TIP3    H263006   4.317   1.885  15.793 -0.5369  0.0513 -0.7136
13839TIP3   OH263007   4.806   1.024  12.490 -0.0288 -0.2267 -1.0715
13839TIP3    H163008   4.731   1.084  12.497 -0.0795 -0.6348  3.0116
13839TIP3    H263009   4.881   1.081  12.473 -0.5001  0.7192 -0.0356
13840TIP3   OH263010   3.359   5.454  14.099  0.3528 -0.3565 -0.5063
13840TIP3    H163011   3.357   5.374  14.046 -1.0386  0.4223 -1.6589
13840TIP3    H263012   3.446   5.491  14.082  1.5502 -2.3104  1.1183
13841TIP3   OH263013   5.395   6.015   1.417 -0.5698  0.0011 -0.5834
13841TIP3    H163014   5.311   5.985   1.452 -0.6322  1.7270  0.8215
13841TIP3    H263015   5.386   6.111   1.414  1.7823  0.2763  0.6652
13842TIP3   OH263016   6.027   1.681  11.510 -0.6155  0.0598  0.4974
13842TIP3    H163017   5.988   1.704  11.595 -0.2716 -0.7157  0.8654
13842TIP3    H263018   6.086   1.609  11.529  0.1663  0.4983 -0.2539
13843TIP3   OH263019   5.984   5.849   4.175  0.0334 -0.6321  0.4196
13843TIP3    H163020   5.959   5.760   4.198 -2.2231 -0.0319  0.4717
13843TIP3    H263021   6.038   5.879   4.248 -0.3566 -1.4824  1.0647
13844TIP3   OH263022   1.817   6.258  13.680 -0.0276 -0.3063  0.1204
13844TIP3    H163023   1.786   6.269  13.590  0.0537 -0.0597  0.1235
13844TIP3    H263024   1.787   6.338  13.725  0.2709 -0.2487  0.2168
13845TIP3   OH263025   2.911   5.436  11.648 -0.1770  0.4086  0.2213
13845TIP3    H163026   2.951   5.367  11.701  1.2949  1.0389 -0.0440
13845TIP3    H263027   2.888   5.393  11.566  1.6893  0.4464 -0.3461
13846TIP3   OH263028   0.002   1.018   5.408 -0.6189  0.4054 -0.1163
13846TIP3    H163029   0.019   1.060   5.324 -2.1604  1.6284  0.1630
13846TIP3    H263030   0.048   0.935   5.403  0.9989  1.3380 -1.3854
13847TIP3   OH263031   0.538   1.177   1.514  0.1334 -0.2845 -0.2353
13847TIP3    H163032   0.570   1.153   1.601 -0.6620  0.2226  0.2027
13847TIP3    H263033   0.523   1.271   1.519  2.9219  0.3002 -1.8414
13848TIP3   OH263034   3.940   6.282   0.236  0.2550 -0.2784 -0.4362
13848TIP3    H163035   3.945   6.258   0.329 -0.2601  0.3045 -0.2521
13848TIP3    H263036   3.943   6.378   0.237 -0.8397 -0.2393 -0.9534
13849TIP3   OH263037   1.671   3.631   1.767  0.2701  0.1844 -0.5955
13849TIP3    H163038   1.604   3.695   1.791 -1.6358 -1.8322 -0.3919
13849TIP3    H263039   1.746   3.653   1.822 -0.1580  2.5285 -0.8807
13850TIP3   OH263040   3.856   3.745  15.234  0.4631 -0.8278 -0.6565
13850TIP3    H163041   3.905   3.757  15.152  0.5467 -1.2285 -0.6654
13850TIP3    H263042   3.887   3.816  15.291 -1.3224  0.9237 -1.7796
13851TIP3   OH263043   3.334   1.797  15.960  0.7499 -0.3503  0.0171
13851TIP3    H163044   3.393   1.737  16.006 -0.8737 -0.9692  1.3235
13851TIP3    H263045   3.271   1.740  15.916  0.1853  0.3367 -0.0764
13852TIP3   OH263046   3.051   4.353   3.880  0.5887 -0.2930 -0.9191
13852TIP3    H163047   3.010   4.429   3.921  0.3939 -1.5283  1.2369
13852TIP3    H263048   3.134   4.386   3.847  0.3287  0.9490 -0.3727
13853TIP3   OH263049   5.654   2.295   2.809  0.3951  0.4689 -0.2005
13853TIP3    H163050   5.737   2.306   2.856 -0.3637 -0.1584  1.3237
13853TIP3    H263051   5.639   2.200   2.811 -1.0891  0.7053  0.8547
13854TIP3   OH263052   1.022   1.000   2.193  0.8022 -0.3126  0.1465
13854TIP3    H163053   0.929   1.020   2.185  0.8586 -0.7781 -2.1245
13854TIP3    H263054   1.025   0.907   2.217  0.6743 -0.2313  0.4740
13855TIP3   OH263055   4.570   0.533   4.060  0.2891  0.0987  0.0258
13855TIP3    H163056   4.591   0.548   3.968  0.6496 -0.5216  0.0042
13855TIP3    H263057   4.483   0.493   4.058  1.5379 -2.7693 -0.2577
13856TIP3   OH263058   3.142   6.287   5.452  0.0020  0.4555  0.1214
13856TIP3    H163059   3.235   6.262   5.448 -0.1280  0.2241 -1.4583
13856TIP3    H263060   3.099   6.210   5.489  0.4103  0.5384  0.8028
13857TIP3   OH263061   4.471   4.437   4.102 -0.1327  0.0058  0.0223
13857TIP3    H163062   4.467   4.359   4.157  1.0121  0.0697  0.2213
13857TIP3    H263063   4.565   4.450   4.087 -0.3083  1.3840  0.0562
13858TIP3   OH263064   1.056   0.888   6.269  0.5944  0.3167 -0.0778
13858TIP3    H163065   1.019   0.865   6.354 -0.1113  2.7137  0.2986
13858TIP3    H263066   1.109   0.812   6.244 -1.4395 -1.5567  1.1897
13859TIP3   OH263067   2.148   4.843   1.661  0.2757  0.1430 -0.5646
13859TIP3    H163068   2.075   4.782   1.666  2.0833 -1.9572  1.6454
13859TIP3    H263069   2.114   4.925   1.695 -1.4309 -0.4040 -0.9382
13860TIP3   OH263070   5.890   4.639   4.286  0.1128 -0.3644  0.5530
13860TIP3    H163071   5.860   4.722   4.249  0.4600 -0.1262  0.8021
13860TIP3    H263072   5.966   4.663   4.339 -1.2099 -0.4739  2.5624
13861TIP3   OH263073   2.694   6.477  14.883 -0.4870 -0.0706 -0.4521
13861TIP3    H163074   2.708   6.498  14.975 -0.6764 -1.8095 -0.0292
13861TIP3    H263075   2.782   6.478  14.844 -0.2267 -0.9977  0.1018
13862TIP3   OH263076   1.040   6.417  13.789 -0.2220  0.1660 -0.4007
13862TIP3    H163077   1.063   6.485  13.726  0.1804 -0.3572 -0.8145
13862TIP3    H263078   0.986   6.463  13.854  0.8010  1.1007 -0.1743
13863TIP3   OH263079   6.007   3.676   4.687  0.3800  0.0514  0.0889
13863TIP3    H163080   6.085   3.693   4.634 -0.2817  2.6539 -0.0836
13863TIP3    H263081   6.007   3.745   4.753  0.2782 -2.1793  2.5015
13864TIP3   OH263082   4.606   2.034   1.891  0.2128  0.1616  0.1465
13864TIP3    H163083   4.553   1.986   1.954  2.6450  1.1024  2.9952
13864TIP3    H263084   4.579   2.125   1.902  2.0497  0.5843  1.2807
13865TIP3   OH263085   4.984   0.761   4.274  0.2767  0.4155 -0.7885
13865TIP3    H163086   4.899   0.721   4.255  0.6652 -0.9631  0.2645
13865TIP3    H263087   5.046   0.689   4.263  1.1663  1.1225 -0.4020
13866TIP3   OH263088   2.777   4.033   2.659  0.3570 -0.1127 -0.0526
13866TIP3    H163089   2.759   4.120   2.697  0.1080 -0.3026  0.2694
13866TIP3    H263090   2.872   4.024   2.662  0.4152  0.3362 -0.4972
13867TIP3   OH263091   6.423   4.071   1.699 -0.1233  0.5342 -0.1059
13867TIP3    H163092   6.368   4.029   1.632 -3.1925  1.3652  1.7756
13867TIP3    H263093   6.436   4.004   1.765  2.3006 -0.0649 -1.1654
13868TIP3   OH263094   4.634   3.418  11.510 -0.4109  0.6741  0.0434
13868TIP3    H163095   4.663   3.327  11.511  0.5160  0.9339 -2.2055
13868TIP3    H263096   4.545   3.415  11.474 -0.4600  0.6335  0.1690
13869TIP3   OH263097   2.447   5.621   0.103 -0.0853  0.3294  0.0538
13869TIP3    H163098   2.377   5.587   0.158  0.9948 -2.9147 -0.4514
13869TIP3    H263099   2.415   5.611   0.013  0.6600 -0.4395 -0.1434
13870TIP3   OH263100   6.420   4.631   0.928  0.4915  0.1720  0.2150
13870TIP3    H163101   6.500   4.684   0.934  0.6300  0.0109 -0.1809
13870TIP3    H263102   6.435   4.557   0.987  0.2601  0.6202  0.8424
13871TIP3   OH263103   5.475   3.336  13.390 -0.6348  0.1926 -0.6731
13871TIP3    H163104   5.414   3.296  13.453 -0.9580 -0.6575 -1.5115
13871TIP3    H263105   5.514   3.409  13.438 -1.0855 -0.2681  0.4252
13872TIP3   OH263106   3.755   3.434   2.422 -0.3434 -0.3842 -0.2701
13872TIP3    H163107   3.698   3.481   2.483  0.2116 -1.4860  1.1269
13872TIP3    H263108   3.697   3.405   2.352 -0.9815  0.9389 -0.3115
13873TIP3   OH263109   6.013   0.131   1.059 -0.1623  0.2062  0.0832
13873TIP3    H163110   6.074   0.204   1.052 -0.1912  0.0909 -1.9176
13873TIP3    H263111   6.066   0.054   1.037 -0.3212 -0.2732  1.3623
13874TIP3   OH263112   0.496   3.808   3.387  0.5085 -0.3936  0.0315
13874TIP3    H163113   0.555   3.735   3.368  0.4429 -0.5773  0.5330
13874TIP3    H263114   0.464   3.790   3.476 -2.1407 -1.5605 -1.1033
13875TIP3   OH263115   5.713   2.178   5.768  0.0412 -0.1394 -0.3844
13875TIP3    H163116   5.697   2.266   5.803  1.8150 -0.0971  0.3536
13875TIP3    H263117   5.745   2.193   5.679  1.4218  0.0305  0.1259
13876TIP3   OH263118   5.926   4.395   1.515  0.2633  0.1368  0.2283
13876TIP3    H163119   5.943   4.332   1.445 -0.2653 -0.5313  0.6984
13876TIP3    H263120   5.932   4.343   1.595 -0.8617  0.5558  0.5793
13877TIP3   OH263121   5.477   6.048  13.852  0.1282  0.0058  0.1733
13877TIP3    H163122   5.448   5.960  13.877  1.4397 -0.4432  0.1437
13877TIP3    H263123   5.566   6.055  13.886 -0.0478  1.4203  0.3899
13878TIP3   OH263124   6.531   1.969  14.203  0.5280 -0.3688  0.5560
13878TIP3    H163125   6.526   2.063  14.184  0.3842 -0.8233 -1.7539
13878TIP3    H263126   6.618   1.957  14.242  0.4844  0.7359  1.0052
13879TIP3   OH263127   4.065   3.688   6.434  0.2960 -0.6133  0.3213
13879TIP3    H163128   3.982   3.696   6.388  1.8190 -1.9878 -2.8413
13879TIP3    H263129   4.068   3.597   6.464  1.2424 -0.9890 -0.8570
13880TIP3   OH263130   3.159   2.330  14.756  0.0329 -0.5668 -0.3216
13880TIP3    H163131   3.208   2.311  14.835  2.3105 -1.4249 -1.8811
13880TIP3    H263132   3.204   2.406  14.717 -0.0121 -1.1848 -1.6253
13881TIP3   OH263133   2.590   1.957   5.228  0.8319  0.0226  0.0285
13881TIP3    H163134   2.534   2.034   5.229 -0.6002 -0.9255  3.6009
13881TIP3    H263135   2.544   1.894   5.173 -0.5443  0.0036  1.1817
13882TIP3   OH263136   5.060   2.671   0.735 -0.7532  0.4152  0.1224
13882TIP3    H163137   4.980   2.694   0.781 -1.1870  1.0626 -0.9295
13882TIP3    H263138   5.126   2.664   0.804 -1.5118  0.7744  0.8968
13883TIP3   OH263139   2.637   2.468  11.320 -0.0491  0.1440 -0.6080
13883TIP3    H163140   2.627   2.435  11.410 -0.2196 -0.2701 -0.7787
13883TIP3    H263141   2.661   2.391  11.269 -0.7296  0.2252 -1.0595
13884TIP3   OH263142   2.803   6.739  11.768  0.0148  0.2178 -0.6453
13884TIP3    H163143   2.846   6.656  11.750  0.7307  0.3823  0.2599
13884TIP3    H263144   2.875   6.798  11.794 -0.6102  0.8211 -0.2732
13885TIP3   OH263145   0.075   2.169   0.703  0.1962 -0.1087  0.5768
13885TIP3    H163146   0.159   2.122   0.699 -0.3267 -1.3266  3.0422
13885TIP3    H263147   0.067   2.211   0.617  2.4542 -1.4937 -0.3537
13886TIP3   OH263148   1.355   5.024  16.013 -0.2134 -0.5014  0.1054
13886TIP3    H163149   1.304   4.995  15.938 -0.7408 -0.3453  0.4032
13886TIP3    H263150   1.443   5.040  15.978 -0.2220 -1.3009 -0.2963
13887TIP3   OH263151   3.086   1.077  15.698 -0.5621  0.0520 -0.1566
13887TIP3    H163152   3.179   1.074  15.718 -0.2717  1.0175 -1.3020
13887TIP3    H263153   3.063   1.170  15.705 -1.7299 -0.3397  1.3891
13888TIP3   OH263154   0.424   2.195  15.951  0.2395 -0.7016  0.0791
13888TIP3    H163155   0.455   2.248  16.025  1.0407  0.3299 -0.9804
13888TIP3    H263156   0.502   2.151  15.919  0.2013  0.1265 -1.1739
13889TIP3   OH263157   0.323   3.748   3.633  0.6096  0.2827 -0.4837
13889TIP3    H163158   0.356   3.700   3.709 -0.9204 -0.4764 -0.2934
13889TIP3    H263159   0.260   3.689   3.592 -0.8381  1.8818 -0.6041
13890TIP3   OH263160   5.632   4.192   6.522  0.0358  0.1350 -0.3323
13890TIP3    H163161   5.711   4.239   6.495 -0.1282  0.4643 -0.2424
13890TIP3    H263162   5.665   4.113   6.565  0.3559  0.8553  0.7874
13891TIP3   OH263163   1.029   5.012   3.239 -0.0312 -0.7258 -0.1047
13891TIP3    H163164   1.005   5.093   3.193  1.1653 -1.1165 -1.4539
13891TIP3    H263165   1.000   5.026   3.329  0.0324  1.1476 -0.3603
13892TIP3   OH263166   6.678   6.598  14.194  0.0542 -0.0682  0.3343
13892TIP3    H163167   6.646   6.671  14.141  0.0378 -0.6183 -0.4286
13892TIP3    H263168   6.727   6.639  14.265  1.8408  0.6413 -1.2649
13893TIP3   OH263169   1.732   1.029   2.225  0.5320  0.2156 -0.0225
13893TIP3    H163170   1.636   1.025   2.217  0.5460  1.0381 -0.6515
13893TIP3    H263171   1.748   1.096   2.291  0.6816  0.2734 -0.1175
13894TIP3   OH263172   3.399   0.891  12.994  0.3382  0.2568 -0.1134
13894TIP3    H163173   3.470   0.871  12.933 -0.7344  0.1014 -1.3415
13894TIP3    H263174   3.362   0.805  13.017  0.3504  0.3559  0.2778
13895TIP3   OH263175   1.016   2.523   4.730  0.6474 -0.2403  0.1973
13895TIP3    H163176   0.953   2.473   4.781  0.6792 -1.5962 -1.0238
13895TIP3    H263177   0.963   2.579   4.674  0.5495 -0.5178  0.0104
13896TIP3   OH263178   1.912   2.998   3.645 -0.1496  0.2052 -0.2735
13896TIP3    H163179   1.896   3.076   3.592  2.5541  0.7592 -0.3721
13896TIP3    H263180   1.973   2.946   3.592 -1.3142 -1.6116  0.1405
13897TIP3   OH263181   6.465   1.359  15.393  0.9974  0.0474 -0.3733
13897TIP3    H163182   6.515   1.285  15.427 -0.2744 -0.7925 -0.2912
13897TIP3    H263183   6.408   1.385  15.465  1.4878  1.1578 -0.3798
13898TIP3   OH263184   2.913   1.432  11.584  0.6371 -0.5479  0.4091
13898TIP3    H163185   2.875   1.489  11.518 -0.6788 -1.4944  0.3333
13898TIP3    H263186   2.923   1.347  11.540  0.9517 -0.8442  1.0437
13899TIP3   OH263187   5.171   1.681  16.439  1.2456  0.7427 -0.1997
13899TIP3    H163188   5.197   1.677  16.531 -1.2557  0.0114  0.5086
13899TIP3    H263189   5.129   1.766  16.430  0.4399  0.3263 -0.3773
13900TIP3   OH263190   3.107   0.540   3.454 -0.1331 -0.2095 -0.0012
13900TIP3    H163191   3.122   0.569   3.364 -0.7581 -0.3136 -0.1456
13900TIP3    H263192   3.179   0.578   3.504  0.5986 -0.7051 -0.6589
13901TIP3   OH263193   0.103   5.633  15.895  0.8553  0.3807  0.0287
13901TIP3    H163194   0.059   5.691  15.834  0.3274  1.6761  1.6220
13901TIP3    H263195   0.040   5.619  15.966  2.5317  1.2922  1.7503
13902TIP3   OH263196   2.234   6.579  16.793  0.5975 -0.9133  0.3116
13902TIP3    H163197   2.140   6.563  16.779  0.4488 -0.9660  1.3140
13902TIP3    H263198   2.245   6.672  16.771  0.4396 -1.0612 -0.4226
13903TIP3   OH263199   3.180   1.516  12.478  0.4060 -0.1264  0.2943
13903TIP3    H163200   3.164   1.501  12.385  0.0314 -0.6637  0.4437
13903TIP3    H263201   3.234   1.442  12.506  2.2798  1.1191  0.0400
13904TIP3   OH263202   6.176   0.906   1.838 -0.5660 -0.7585 -0.2832
13904TIP3    H163203   6.157   0.813   1.829  0.8250 -1.1853  0.9161
13904TIP3    H263204   6.168   0.941   1.749 -2.6182 -1.7046 -0.4905
13905TIP3   OH263205   1.681   3.083   1.884  0.0346 -0.2723 -0.0260
13905TIP3    H163206   1.634   3.104   1.804  0.8116  0.2296 -0.3548
13905TIP3    H263207   1.771   3.066   1.856 -0.2927 -2.8077  0.4010
13906TIP3   OH263208   5.668   6.396   4.344  0.1044  0.2199  0.2995
13906TIP3    H163209   5.579   6.429   4.350  0.6981  1.9118  0.0668
13906TIP3    H263210   5.679   6.371   4.252 -0.2561 -0.4044  0.4207
13907TIP3   OH263211   1.036   5.551  15.020 -0.0391 -0.1761 -0.0014
13907TIP3    H163212   1.034   5.624  15.081 -2.1343  0.0203 -0.2773
13907TIP3    H263213   0.959   5.499  15.041 -0.3399 -0.5546 -1.9151
13908TIP3   OH263214   5.593   6.771   3.720  0.0484 -0.2674 -0.4033
13908TIP3    H163215   5.685   6.765   3.694  0.7153  1.9550  1.3783
13908TIP3    H263216   5.582   6.861   3.751 -2.1268 -1.1946  1.6583
13909TIP3   OH263217   6.076   2.941  13.465  0.1615 -0.5024 -0.2278
13909TIP3    H163218   6.071   3.036  13.451  0.4869 -0.5113 -0.3926
13909TIP3    H263219   5.990   2.908  13.438  0.3719 -0.3750 -1.0673
13910TIP3   OH263220   3.427   2.979   1.021  0.7076 -0.2936 -1.0336
13910TIP3    H163221   3.342   2.945   1.047 -0.0120  0.4547 -2.3369
13910TIP3    H263222   3.481   2.902   1.009  0.4890 -0.7246  0.7293
13911TIP3   OH263223   5.467   5.930   0.922  0.2416 -0.0269  0.4811
13911TIP3    H163224   5.405   5.971   0.862 -1.9251 -1.8404  1.4250
13911TIP3    H263225   5.427   5.941   1.008  1.9524  0.0370  1.2922
13912TIP3   OH263226   0.096   2.727  14.707 -0.3938 -0.0525 -0.0931
13912TIP3    H163227   0.163   2.667  14.673  0.8585  2.0080 -1.3732
13912TIP3    H263228   0.085   2.701  14.798  0.9687 -1.4844 -0.3052
13913TIP3   OH263229   1.283   5.701   3.716 -0.5955 -0.3723  0.2742
13913TIP3    H163230   1.369   5.739   3.700 -0.2574 -0.7558  1.1250
13913TIP3    H263231   1.301   5.609   3.737 -1.0081  0.0679  2.6679
13914TIP3   OH263232   0.463   3.184   1.589  0.2454 -0.5884 -0.4536
13914TIP3    H163233   0.436   3.096   1.615 -0.1500 -0.5508 -0.7269
13914TIP3    H263234   0.392   3.241   1.617  0.2546 -0.4241 -0.7579
13915TIP3   OH263235   0.188   2.879   3.464  1.1728  0.0838  0.2851
13915TIP3    H163236   0.195   2.960   3.515  1.9535  1.0170 -1.2658
13915TIP3    H263237   0.245   2.893   3.389  1.5306 -2.0353  0.1371
13916TIP3   OH263238   6.307   5.435  15.340 -0.0912 -0.2608  0.4260
13916TIP3    H163239   6.255   5.355  15.348 -0.7970  0.0925 -0.4668
13916TIP3    H263240   6.397   5.404  15.337 -0.3226 -0.9839  0.6118
13917TIP3   OH263241   2.697   5.304   0.595  0.1349  0.3808  0.5124
13917TIP3    H163242   2.626   5.305   0.530  1.0009  0.5204 -0.4399
13917TIP3    H263243   2.669   5.366   0.662 -1.3920 -0.7583  0.9516
13918TIP3   OH263244   4.890   1.802  15.441  0.1756  0.0113 -0.3079
13918TIP3    H163245   4.857   1.734  15.500  0.6155  0.2913  0.2681
13918TIP3    H263246   4.972   1.767  15.407  0.8205  0.6113  0.6393
13919TIP3   OH263247   3.174   0.412   2.395 -0.1410 -0.1518 -0.4238
13919TIP3    H163248   3.180   0.418   2.300 -0.4264  2.2465 -0.3124
13919TIP3    H263249   3.102   0.350   2.410 -1.5581  1.1118 -1.7979
13920TIP3   OH263250   6.094   2.200   3.945 -0.4270  0.1315 -0.3405
13920TIP3    H163251   6.002   2.200   3.973  0.3487  0.9037  2.4226
13920TIP3    H263252   6.119   2.108   3.947 -1.1633 -0.0895 -1.1724
13921TIP3   OH263253   6.166   2.565  11.945  0.0030 -0.1168  0.1041
13921TIP3    H163254   6.233   2.604  12.001 -0.4865  0.2360  0.4444
13921TIP3    H263255   6.102   2.635  11.932  0.1125 -0.1887 -0.9021
13922TIP3   OH263256   4.894   6.690  15.640 -0.0365  0.3535  0.6249
13922TIP3    H163257   4.980   6.649  15.631  0.5825  1.6614  0.4414
13922TIP3    H263258   4.903   6.775  15.595 -1.6777  0.1311 -0.1759
13923TIP3   OH263259   6.431   2.558   2.237  0.6315 -0.1339  0.0378
13923TIP3    H163260   6.434   2.640   2.188 -3.9336 -1.0503 -2.0918
13923TIP3    H263261   6.471   2.494   2.178  1.5739  0.0198  0.5013
13924TIP3   OH263262   3.463   0.911  12.226  0.1959 -0.2895  0.1444
13924TIP3    H163263   3.368   0.917  12.223  0.2994  2.2233  0.1491
13924TIP3    H263264   3.485   0.836  12.172 -1.8355 -1.4702  0.9246
13925TIP3   OH263265   5.230   1.678   4.366 -0.1894 -0.1156 -0.1317
13925TIP3    H163266   5.178   1.622   4.424  0.5584 -1.4017 -0.6716
13925TIP3    H263267   5.165   1.723   4.312 -0.8500  0.4177  1.0749
13926TIP3   OH263268   3.003   2.502   4.194  0.0197  0.6555 -0.2800
13926TIP3    H163269   3.011   2.448   4.273  0.7983 -0.1039 -0.8645
13926TIP3    H263270   3.083   2.553   4.192  0.1842  0.3777 -0.7942
13927TIP3   OH263271   0.007   2.111   4.925  0.2526 -0.3967  0.2367
13927TIP3    H163272  -0.064   2.128   4.864 -0.3920 -1.9449  0.5467
13927TIP3    H263273  -0.036   2.098   5.010  0.9585 -0.5731  0.5790
13928TIP3   OH263274   6.153   2.581  10.861 -0.3865 -0.5191 -0.2964
13928TIP3    H163275   6.114   2.582  10.774 -0.4241 -1.7639 -0.3147
13928TIP3    H263276   6.246   2.564  10.845 -0.0303  1.2789 -0.1940
13929TIP3   OH263277   5.363   4.971   0.138 -0.4976 -0.4432  0.4829
13929TIP3    H163278   5.322   5.048   0.097 -1.9519 -0.3431  2.0714
13929TIP3    H263279   5.442   4.956   0.087 -1.1658  0.9816 -1.0145
13930TIP3   OH263280   4.009   1.828  12.664 -0.0434 -0.4070  0.1168
13930TIP3    H163281   4.093   1.810  12.707  0.8248  1.9233 -0.5314
13930TIP3    H263282   3.943   1.807  12.730  1.0313 -2.3744  0.5986
13931TIP3   OH263283   3.124   6.701  16.485  0.2278 -0.4467 -0.3655
13931TIP3    H163284   3.179   6.623  16.486  1.0427  0.1187 -0.4311
13931TIP3    H263285   3.103   6.715  16.393  2.3852  0.9874 -0.6893
13932TIP3   OH263286   6.017   5.361  11.718  0.5721  0.1330 -0.0147
13932TIP3    H163287   5.970   5.397  11.793  1.8838 -0.2922  1.0217
13932TIP3    H263288   5.949   5.342  11.654 -0.5341  0.7090  0.9819
13933TIP3   OH263289   6.484   6.755   6.228 -0.0478 -0.0400 -0.1563
13933TIP3    H163290   6.497   6.720   6.316 -1.7244 -1.7915 -0.5847
13933TIP3    H263291   6.392   6.781   6.226 -0.5655 -1.8842 -2.0053
13934TIP3   OH263292   5.936   3.266   4.889 -0.5314 -0.0075  0.5441
13934TIP3    H163293   5.850   3.298   4.859  0.2320  0.9885 -0.6443
13934TIP3    H263294   5.998   3.330   4.855  0.7114 -0.8463  1.2143
13935TIP3   OH263295   2.773   1.356   6.198  0.1565 -0.0016 -0.4605
13935TIP3    H163296   2.733   1.435   6.234  0.6495  0.2135 -0.3810
13935TIP3    H263297   2.706   1.288   6.208  0.7829 -0.2942  2.2129
13936TIP3   OH263298   5.463   2.556   4.654  0.6196 -0.0888 -0.3454
13936TIP3    H163299   5.453   2.476   4.705  2.2472 -0.1666 -0.1103
13936TIP3    H263300   5.534   2.603   4.698 -0.9002  1.8890  0.0217
13937TIP3   OH263301   6.514   4.400  15.896 -0.3769  0.2930 -0.9075
13937TIP3    H163302   6.558   4.478  15.929 -0.4019 -0.7841  1.7440
13937TIP3    H263303   6.420   4.418  15.905 -0.3762 -0.6854  1.3551
13938TIP3   OH263304   2.138   4.614   4.336 -0.2693  0.6672 -0.0601
13938TIP3    H163305   2.097   4.530   4.318 -0.3002  0.9229 -1.2287
13938TIP3    H263306   2.106   4.638   4.423  0.1478 -0.7635  0.5011
13939TIP3   OH263307   5.558   5.724  15.889  0.4680 -0.2165 -0.1715
13939TIP3    H163308   5.648   5.689  15.888  0.5918  0.1107 -0.6166
13939TIP3    H263309   5.535   5.732  15.797 -1.3501 -3.6411 -0.0993
13940TIP3   OH263310   3.122   3.949   0.801 -0.3172  0.0740 -0.0625
13940TIP3    H163311   3.037   3.931   0.761 -1.0938 -0.7536  1.8925
13940TIP3    H263312   3.178   3.878   0.770 -0.8933 -0.5219  0.2430
13941TIP3   OH263313   3.575   0.813  11.848  0.1530  0.3639  0.1859
13941TIP3    H163314   3.607   0.895  11.809 -2.0384  0.3923 -1.6590
13941TIP3    H263315   3.601   0.745  11.786  1.0098 -0.2271  1.1753
13942TIP3   OH263316   0.420   2.954   0.672 -0.1913  0.1314 -0.2585
13942TIP3    H163317   0.408   3.033   0.619  1.5737  0.0341 -0.8527
13942TIP3    H263318   0.360   2.890   0.633 -1.1313  0.9791 -0.2029
13943TIP3   OH263319   0.937   4.735   6.348  0.5667 -0.1235  0.2118
13943TIP3    H163320   0.962   4.827   6.344  1.8256 -0.4626  0.0376
13943TIP3    H263321   1.021   4.687   6.348 -0.0391 -1.2262  1.2813
13944TIP3   OH263322   6.010   2.516  14.276  0.5858 -0.2201  0.0305
13944TIP3    H163323   6.064   2.539  14.200 -0.5044 -0.9626 -0.9752
13944TIP3    H263324   5.992   2.423  14.265  1.2844 -0.5820  1.7626
13945TIP3   OH263325   3.779   1.399  11.989  0.5674  0.0518  0.1050
13945TIP3    H163326   3.774   1.469  11.925 -0.4891 -0.5367 -0.4727
13945TIP3    H263327   3.738   1.435  12.068  0.7653  0.3528  0.0717
13946TIP3   OH263328   4.856   1.141  15.170  0.5492  0.1990 -0.0689
13946TIP3    H163329   4.869   1.092  15.088 -0.4360  1.5271 -1.0347
13946TIP3    H263330   4.928   1.204  15.172  0.1684  0.6441 -0.2752
13947TIP3   OH263331   6.364   0.926  13.326  0.3533  0.1096 -0.0478
13947TIP3    H163332   6.285   0.873  13.319  0.7159 -0.5769  0.8469
13947TIP3    H263333   6.378   0.935  13.420  0.4730  1.5387 -0.1923
13948TIP3   OH263334   2.162   0.030   0.297  0.3344  0.3392 -0.0266
13948TIP3    H163335   2.233   0.090   0.322 -0.5856  1.4310  0.0447
13948TIP3    H263336   2.083   0.083   0.308 -0.3643 -0.3664 -1.6282
13949TIP3   OH263337   3.332   2.255   0.247  0.3498 -0.0805  0.2124
13949TIP3    H163338   3.415   2.219   0.278  1.6206  0.9969 -1.7804
13949TIP3    H263339   3.308   2.320   0.313  1.0601 -0.4604  0.8515
13950TIP3   OH263340   3.045   1.312  14.130  0.0687 -0.0991  0.0724
13950TIP3    H163341   3.048   1.240  14.193  2.8842  0.7324  0.9361
13950TIP3    H263342   2.967   1.362  14.155  0.4333 -0.4962  2.1043
13951TIP3   OH263343   5.595   3.794   2.712  0.0528 -0.1721  0.4950
13951TIP3    H163344   5.687   3.769   2.704  0.1837  0.6341 -0.6412
13951TIP3    H263345   5.574   3.778   2.804  1.7308  0.9766  1.0988
13952TIP3   OH263346   4.211   2.699   6.929 -0.0176  0.0805 -0.8708
13952TIP3    H163347   4.129   2.693   6.979  1.6498  3.1232  2.4995
13952TIP3    H263348   4.268   2.633   6.969  0.5527  0.8939 -0.3342
13953TIP3   OH263349   1.436   3.235   1.001  0.3097 -0.3366 -0.3537
13953TIP3    H163350   1.428   3.140   1.012  0.4699 -0.2543  0.5391
13953TIP3    H263351   1.468   3.266   1.086 -2.9741  0.9297  0.5036
13954TIP3   OH263352   4.007   1.522   6.048 -0.9697 -0.1566 -0.2783
13954TIP3    H163353   4.083   1.489   6.000 -0.9315 -0.1653 -0.2120
13954TIP3    H263354   4.040   1.597   6.096 -0.7073 -0.9255  0.7518
13955TIP3   OH263355   2.747   4.556  14.787  0.7952  0.1907 -0.1155
13955TIP3    H163356   2.792   4.626  14.739  2.3894 -1.1944 -0.6722
13955TIP3    H263357   2.817   4.506  14.829 -0.3941 -0.4829  1.1185
13956TIP3   OH263358   4.402   1.935  13.925  0.5337  0.4120 -0.2576
13956TIP3    H163359   4.324   1.938  13.869  0.1848  4.5235  0.2899
13956TIP3    H263360   4.369   1.903  14.009 -0.1229 -0.1018 -0.7060
13957TIP3   OH263361   5.896   0.466   3.996 -0.2439 -0.5103 -0.1232
13957TIP3    H163362   5.926   0.469   4.087  1.2823  1.0919 -0.6543
13957TIP3    H263363   5.806   0.498   3.999 -0.0140  0.0560  0.7517
13958TIP3   OH263364   3.131   5.366  14.209 -0.0374 -0.1631 -0.1164
13958TIP3    H163365   3.205   5.418  14.179 -0.1239  0.1221  0.1663
13958TIP3    H263366   3.126   5.383  14.303  1.7960 -2.9720  0.5626
13959TIP3   OH263367   0.952   4.307   5.253  0.0724 -0.4222  0.0773
13959TIP3    H163368   0.921   4.225   5.291  2.7792 -1.5600 -0.0044
13959TIP3    H263369   0.873   4.356   5.233 -1.5901 -2.6966  0.8314
13960TIP3   OH263370   5.775   2.616  15.188 -0.4300 -0.1588 -0.1147
13960TIP3    H163371   5.859   2.588  15.152 -0.0887  1.7395 -0.8743
13960TIP3    H263372   5.786   2.710  15.203 -2.0134 -0.1202  0.9355
13961TIP3   OH263373   0.519   0.734  13.465  0.0537 -0.0346 -0.1357
13961TIP3    H163374   0.455   0.705  13.400  0.9338 -1.7454 -0.2631
13961TIP3    H263375   0.487   0.697  13.548  0.1283  0.2623  0.0242
13962TIP3   OH263376   0.824   4.821  12.079 -0.0685  0.1098 -0.0687
13962TIP3    H163377   0.864   4.801  11.995 -0.3710 -0.2005 -0.1419
13962TIP3    H263378   0.888   4.792  12.144 -0.4682 -1.0197 -0.1754
13963TIP3   OH263379   4.700   3.586  16.622 -0.1445  0.5751 -0.3925
13963TIP3    H163380   4.684   3.500  16.581  0.7743  1.1206 -1.9473
13963TIP3    H263381   4.635   3.643  16.581  2.1526  1.6084 -2.7728
13964TIP3   OH263382   0.368   1.849  11.355  0.1356  0.1343 -0.7807
13964TIP3    H163383   0.393   1.795  11.281 -0.1844 -1.0053 -0.0709
13964TIP3    H263384   0.451   1.870  11.398  0.2319 -0.0730 -0.8663
13965TIP3   OH263385   5.019   4.799   5.248  0.1677  0.2908  0.3819
13965TIP3    H163386   5.109   4.801   5.217  0.3844 -0.1931  0.9633
13965TIP3    H263387   4.968   4.842   5.179  0.7278 -0.1745 -0.3291
13966TIP3   OH263388   2.434   5.913   6.473  0.1447 -0.2866  0.2296
13966TIP3    H163389   2.392   5.891   6.390  0.9445  1.7316 -0.7539
13966TIP3    H263390   2.380   5.984   6.509 -0.3105 -1.2787  1.5446
13967TIP3   OH263391   6.366   2.677   5.564 -0.3474  0.3323 -0.0823
13967TIP3    H163392   6.447   2.663   5.514  0.1643  1.4626  0.3981
13967TIP3    H263393   6.374   2.619   5.639 -0.6835 -0.6664 -0.7960
13968TIP3   OH263394   2.084   6.069   2.301  0.0353 -0.5845 -0.4710
13968TIP3    H163395   2.149   6.106   2.241 -0.9414 -1.5867 -2.2009
13968TIP3    H263396   2.006   6.058   2.247 -1.6843  0.8472  1.6286
13969TIP3   OH263397   0.717   0.895  16.231  1.0545  0.5943 -0.0209
13969TIP3    H163398   0.673   0.927  16.310  1.6128  1.7398 -0.1557
13969TIP3    H263399   0.687   0.954  16.161  0.5196 -0.4475 -0.6796
13970TIP3   OH263400   1.722   3.151   2.355  0.2161  0.6066 -0.9436
13970TIP3    H163401   1.678   3.112   2.279 -1.4203 -1.1838  0.8723
13970TIP3    H263402   1.758   3.076   2.402 -0.5717  1.5075  1.1295
13971TIP3   OH263403   6.664   4.586   2.919 -0.0719 -0.1554 -0.0605
13971TIP3    H163404   6.683   4.506   2.869  1.3142  0.7969 -1.0880
13971TIP3    H263405   6.597   4.631   2.869 -1.0030 -0.7655  0.6268
13972TIP3   OH263406   4.979   4.140   0.388 -0.5408  0.3771  0.3454
13972TIP3    H163407   4.931   4.093   0.319  1.1763  1.0231 -1.3528
13972TIP3    H263408   4.959   4.093   0.468 -2.9041 -0.1831 -0.5329
13973TIP3   OH263409   3.841   5.035  12.285 -0.2930  0.4071  1.1715
13973TIP3    H163410   3.811   4.961  12.233  2.5897  1.3382 -1.9894
13973TIP3    H263411   3.761   5.078  12.315 -2.0033 -2.6828  1.2689
13974TIP3   OH263412   6.713   5.127  14.850  0.2915  0.0642 -0.3896
13974TIP3    H163413   6.660   5.047  14.847 -0.3011  0.5122 -3.1914
13974TIP3    H263414   6.652   5.197  14.825  1.2786  1.1472  0.1538
13975TIP3   OH263415   2.658   3.181   0.828 -0.3024  0.5584 -0.4828
13975TIP3    H163416   2.566   3.154   0.838  0.1501 -0.4990  1.0265
13975TIP3    H263417   2.708   3.111   0.870  1.1709  1.3882 -0.8236
13976TIP3   OH263418   3.128   6.230   5.762 -0.5296  0.2017  0.1656
13976TIP3    H163419   3.173   6.198   5.683 -1.0460 -0.9336  0.3255
13976TIP3    H263420   3.122   6.154   5.819 -0.0873  1.0410  1.3534
13977TIP3   OH263421   0.218   2.119  15.203 -0.4378 -0.5713 -0.3359
13977TIP3    H163422   0.246   2.028  15.205  0.8371 -0.1767  1.1476
13977TIP3    H263423   0.156   2.124  15.130 -0.5393 -2.6125 -0.4184
13978TIP3   OH263424   6.022   5.332   2.340 -0.0276 -0.1533 -0.3028
13978TIP3    H163425   6.116   5.327   2.324  0.1611 -1.0564  0.9916
13978TIP3    H263426   6.004   5.259   2.399 -1.3868  0.5628  0.1906
13979TIP3   OH263427   3.645   5.417  12.092 -0.1678 -0.1824  0.0489
13979TIP3    H163428   3.731   5.460  12.097 -0.8364  1.6846 -3.3682
13979TIP3    H263429   3.661   5.329  12.129  4.0057 -0.9898 -3.2357
13980TIP3   OH263430   2.146   4.539  15.783 -0.0958 -0.0325 -0.3260
13980TIP3    H163431   2.241   4.535  15.796 -0.2910 -2.4787  0.6508
13980TIP3    H263432   2.133   4.518  15.691  0.2388 -1.5793 -0.0379
13981TIP3   OH263433   6.164   0.643   5.390 -0.2575 -0.7281  0.2231
13981TIP3    H163434   6.234   0.585   5.363  0.0804 -0.8626  1.3894
13981TIP3    H263435   6.085   0.588   5.390 -0.2935 -0.6866 -0.6316
13982TIP3   OH263436   0.437   2.494  11.676  0.2583  0.5068 -0.5927
13982TIP3    H163437   0.430   2.443  11.595  1.0676  2.4737 -1.9208
13982TIP3    H263438   0.488   2.571  11.652  1.2951  0.6790  2.0172
13983TIP3   OH263439   1.469   3.641  15.107  0.2826 -0.4202  0.6932
13983TIP3    H163440   1.437   3.728  15.130  0.3189 -0.3098  0.3177
13983TIP3    H263441   1.488   3.645  15.014  3.5668  0.2051  1.3114
13984TIP3   OH263442   0.798   0.557   2.434  0.4137  0.0395  0.4541
13984TIP3    H163443   0.818   0.473   2.393  0.1524  0.4683 -0.5693
13984TIP3    H263444   0.883   0.591   2.462  0.5544 -0.4367  0.6073
13985TIP3   OH263445   0.758   5.369  13.119 -0.1178 -0.4001  0.2127
13985TIP3    H163446   0.831   5.423  13.089 -0.0138 -0.8783 -0.4150
13985TIP3    H263447   0.683   5.429  13.120  0.1320 -0.0815  0.1576
13986TIP3   OH263448   1.351   0.731  11.860  0.5964 -0.3187  0.0925
13986TIP3    H163449   1.300   0.653  11.836 -0.1094  0.0161  0.4902
13986TIP3    H263450   1.423   0.733  11.797 -0.6717 -0.0122 -1.3760
13987TIP3   OH263451   3.756   2.956  15.835  0.4696 -0.4322 -0.2926
13987TIP3    H163452   3.728   3.047  15.821 -0.4522 -0.2831  2.2773
13987TIP3    H263453   3.675   2.905  15.826 -0.4788 -0.2058  5.2280
13988TIP3   OH263454   3.521   1.351   1.300 -0.1367  0.2642 -0.5922
13988TIP3    H163455   3.532   1.278   1.361  0.1463 -0.0316 -0.9842
13988TIP3    H263456   3.473   1.417   1.349 -0.5671 -0.2658 -0.2918
13989TIP3   OH263457   0.764   3.100   1.249 -0.4084 -0.3203 -0.2220
13989TIP3    H163458   0.705   3.027   1.267 -0.0403 -0.1034  2.0270
13989TIP3    H263459   0.849   3.058   1.233  0.1754 -0.3997  2.6461
13990TIP3   OH263460   3.165   5.439   2.965 -0.3985  0.0655 -0.5402
13990TIP3    H163461   3.122   5.524   2.955 -1.8153 -0.6720 -0.8724
13990TIP3    H263462   3.095   5.375   2.953  1.0069 -1.2100 -2.2225
13991TIP3   OH263463   0.613   0.635  16.584  0.3321  0.7206  0.6633
13991TIP3    H163464   0.680   0.680  16.533  0.1230  0.2994  0.0175
13991TIP3    H263465   0.634   0.657  16.675  1.7006  0.0994  0.5062
13992TIP3   OH263466   1.137   4.486  17.225 -0.1558 -0.4481 -0.0242
13992TIP3    H163467   1.225   4.456  17.246  0.0583  1.1249  1.3929
13992TIP3    H263468   1.091   4.485  17.309 -0.9002  0.6612 -0.4082
13993TIP3   OH263469   3.345   6.276   4.806  1.1514 -0.1180 -0.3312
13993TIP3    H163470   3.401   6.338   4.760  0.9367 -0.6758 -1.3537
13993TIP3    H263471   3.270   6.264   4.748  2.1295 -2.8767 -1.0999
13994TIP3   OH263472   5.731   5.204   0.487  0.2661 -0.1142  0.3337
13994TIP3    H163473   5.726   5.153   0.406  2.1558 -0.2681  0.2950
13994TIP3    H263474   5.643   5.239   0.498 -0.0642 -0.2098 -1.7129
13995TIP3   OH263475   0.996   0.573   0.739  0.2975 -0.0566 -0.5293
13995TIP3    H163476   1.001   0.478   0.739  1.0177 -0.0264  0.5947
13995TIP3    H263477   0.990   0.597   0.831  0.9578  1.0210 -0.7516
13996TIP3   OH263478   2.928   2.398   3.500 -0.1313 -0.1387 -0.3054
13996TIP3    H163479   2.983   2.431   3.428  0.0923 -0.0506 -0.0934
13996TIP3    H263480   2.839   2.420   3.474 -0.3022 -2.4052 -1.8138
13997TIP3   OH263481   1.485   2.990   4.667 -0.8519 -0.3329 -0.0801
13997TIP3    H163482   1.399   3.028   4.686 -0.1816  0.5775  1.1787
13997TIP3    H263483   1.470   2.895   4.670 -2.0799 -0.1849 -1.1395
13998TIP3   OH263484   4.645   5.943   3.013 -0.0636 -0.0134  0.2198
13998TIP3    H163485   4.706   6.009   3.044 -1.5598  0.5649  1.9795
13998TIP3    H263486   4.603   5.909   3.092 -3.4479  0.9854 -1.0414
13999TIP3   OH263487   5.096   2.809  12.829 -0.3417  0.3769 -0.2423
13999TIP3    H163488   5.104   2.721  12.792 -1.0527  0.1209  0.1957
13999TIP3    H263489   5.088   2.867  12.754 -0.6751 -0.0202 -0.5132
14000TIP3   OH263490   0.498   6.449   1.557 -0.3804 -0.4708 -0.1187
14000TIP3    H163491   0.473   6.470   1.467  0.8912 -1.3701 -0.7010
14000TIP3    H263492   0.583   6.492   1.569  0.4221 -2.0302 -0.0451
14001TIP3   OH263493   3.226   0.893  15.400  0.2482 -0.2463 -0.0766
14001TIP3    H163494   3.187   0.806  15.392  1.7817 -1.0192  0.6184
14001TIP3    H263495   3.256   0.898  15.491  1.4987  0.4299 -0.5095
14002TIP3   OH263496   3.121   5.245   0.003 -0.2873 -0.1741  0.1720
14002TIP3    H163497   3.123   5.190  -0.075  1.5254  0.6381 -0.3958
14002TIP3    H263498   3.125   5.335  -0.031  0.1383  0.1971  1.1770
14003TIP3   OH263499   0.983   3.598   1.923  0.5903 -0.6259 -0.1882
14003TIP3    H163500   0.956   3.625   2.011  0.6905  0.1095 -0.3779
14003TIP3    H263501   1.065   3.552   1.937 -0.3990 -2.2622  0.3155
14004TIP3   OH263502   5.811   5.033  12.379  0.0353  0.6150 -0.0011
14004TIP3    H163503   5.780   4.971  12.314  0.5226  0.8201 -0.4328
14004TIP3    H263504   5.864   4.981  12.439  0.7305  0.6608 -0.5570
14005TIP3   OH263505   1.574   6.500  13.486 -0.5632  0.4252 -0.0788
14005TIP3    H163506   1.577   6.577  13.429  0.3686  0.6561  0.2871
14005TIP3    H263507   1.512   6.524  13.555 -0.3273  0.8131 -0.0024
14006TIP3   OH263508   5.979   1.325  17.245 -0.4069 -0.7107 -0.5923
14006TIP3    H163509   5.906   1.323  17.308 -0.3830  1.6718 -0.4313
14006TIP3    H263510   6.048   1.273  17.287 -0.5634  0.4385  1.1726
14007TIP3   OH263511   4.584   1.544  16.928 -0.0071 -0.4252 -0.0500
14007TIP3    H163512   4.499   1.500  16.936  0.5244 -1.1694  1.8455
14007TIP3    H263513   4.648   1.475  16.945  0.9688  0.2621 -0.8861
14008TIP3   OH263514   3.338   3.203   2.970 -0.1058  0.2406 -0.1821
14008TIP3    H163515   3.398   3.277   2.974 -0.3863  0.4931 -0.6336
14008TIP3    H263516   3.368   3.144   3.040  0.5759  0.4267 -0.3131
14009TIP3   OH263517   1.810   0.014  11.661  0.7773 -0.1197  0.4232
14009TIP3    H163518   1.843  -0.076  11.662  1.2731  0.0382 -0.3691
14009TIP3    H263519   1.779   0.030  11.750 -1.5526 -1.8802 -0.0203
14010TIP3   OH263520   3.986   3.897  16.466  0.4339  0.2099 -0.4714
14010TIP3    H163521   3.943   3.981  16.483 -1.2164 -0.8354  0.6854
14010TIP3    H263522   4.042   3.883  16.542  0.7336  0.2791 -0.6796
14011TIP3   OH263523   0.380   3.019   5.101 -0.4129 -0.0045  1.3115
14011TIP3    H163524   0.397   2.925   5.100 -1.9911 -0.2906 -0.2443
14011TIP3    H263525   0.347   3.038   5.013  0.6401  2.1397  1.3615
14012TIP3   OH263526   3.782   5.864  16.207 -0.0094 -0.9302 -0.0107
14012TIP3    H163527   3.809   5.915  16.131 -0.8983 -0.7925 -0.2347
14012TIP3    H263528   3.700   5.823  16.180 -1.6014  1.0099  1.6722
14013TIP3   OH263529   6.349   3.467   4.250 -0.1533  0.2363  0.1039
14013TIP3    H163530   6.441   3.481   4.272  0.0854 -2.2886  0.9438
14013TIP3    H263531   6.321   3.548   4.208  2.5233  0.9607 -0.3712
14014TIP3   OH263532   5.313   2.751   4.489  0.3789 -0.2118 -0.1540
14014TIP3    H163533   5.364   2.707   4.557  0.3716  0.9095  0.6036
14014TIP3    H263534   5.339   2.843   4.497  0.0329 -0.0073 -1.3741
14015TIP3   OH263535   5.554   1.846  11.620  0.6998 -0.3309  0.1832
14015TIP3    H163536   5.617   1.878  11.685 -0.6508  1.1630  0.7830
14015TIP3    H263537   5.584   1.758  11.599  2.8142  0.2301  0.7001
14016TIP3   OH263538   5.434   6.655  12.680  1.0393  0.3941  0.3550
14016TIP3    H163539   5.465   6.571  12.646 -0.0503 -0.0345  0.3766
14016TIP3    H263540   5.398   6.700  12.604  0.6014  0.3611  0.5374
14017TIP3   OH263541   3.865   1.100   1.327  0.5647  0.0596 -0.3500
14017TIP3    H163542   3.810   1.025   1.303  0.1282  0.7637 -1.5901
14017TIP3    H263543   3.868   1.153   1.248  2.5551  0.3361 -0.0988
14018TIP3   OH263544   1.570   3.914   4.067 -0.1578 -0.0611  0.0287
14018TIP3    H163545   1.647   3.969   4.085 -0.9137  0.9173  0.3114
14018TIP3    H263546   1.496   3.968   4.094 -1.0515 -0.3132 -1.8636
14019TIP3   OH263547   1.862   2.399  14.359 -0.0097  0.4627 -0.2224
14019TIP3    H163548   1.921   2.376  14.430  0.8167 -0.8878 -1.3184
14019TIP3    H263549   1.902   2.359  14.281  0.1918  3.5640 -1.8045
14020TIP3   OH263550   5.289   5.837  14.466  0.2042 -0.0461 -0.1707
14020TIP3    H163551   5.259   5.811  14.379  0.9885  0.1258 -0.5034
14020TIP3    H263552   5.210   5.862  14.513 -0.3869 -1.5276 -0.3592
14021TIP3   OH263553   5.891   5.516   3.674  0.1761  0.5330 -0.2318
14021TIP3    H163554   5.980   5.547   3.654 -0.5451  1.8124 -1.5568
14021TIP3    H263555   5.886   5.521   3.769  1.7727 -0.2356 -0.0900
14022TIP3   OH263556   0.502   3.935  13.014 -0.0388 -0.2545  0.1681
14022TIP3    H163557   0.554   4.000  13.062 -1.3407  0.7023  0.3178
14022TIP3    H263558   0.567   3.875  12.977  1.1784  1.0189  0.1980
14023TIP3   OH263559   2.688   0.182  11.948  0.1204  0.2057 -0.0064
14023TIP3    H163560   2.678   0.123  11.873 -1.3969 -0.1004  0.4256
14023TIP3    H263561   2.645   0.136  12.020  1.8671  0.3535  1.1417
14024TIP3   OH263562   3.490   6.282  13.300  0.5402 -0.2797 -0.5910
14024TIP3    H163563   3.439   6.363  13.303  2.8651  1.1855  0.9470
14024TIP3    H263564   3.497   6.261  13.207 -1.6887  0.2033 -0.8945
14025TIP3   OH263565   0.230   3.914  17.153 -0.0520  0.6653  0.7022
14025TIP3    H163566   0.213   3.859  17.230 -0.6226 -0.9854 -0.5718
14025TIP3    H263567   0.145   3.921  17.110  0.3298  1.3090  0.0568
14026TIP3   OH263568   0.873   6.242  13.606  0.0531 -0.3166  0.4144
14026TIP3    H163569   0.911   6.289  13.680  2.0874 -0.1251 -0.7109
14026TIP3    H263570   0.921   6.273  13.530 -1.7940 -0.7447 -0.9777
14027TIP3   OH263571   4.714   1.363  15.362 -0.7607  0.0586 -0.4465
14027TIP3    H163572   4.747   1.287  15.314  0.0967 -0.6248  1.2119
14027TIP3    H263573   4.634   1.331  15.405  0.7940 -0.5422  2.0416
14028TIP3   OH263574   5.737   2.243  16.602 -0.2005  0.0248  0.4123
14028TIP3    H163575   5.725   2.330  16.640 -1.0828  0.6359 -1.1967
14028TIP3    H263576   5.831   2.226  16.609  0.0498  1.3072  0.3215
14029TIP3   OH263577   2.925   0.770  11.666  0.0853 -1.0786  0.0197
14029TIP3    H163578   2.987   0.703  11.695  3.0961  2.1212  1.2380
14029TIP3    H263579   2.942   0.780  11.572  1.1030 -0.5133  0.2670
14030TIP3   OH263580   1.429   1.084  13.732  0.4819 -0.6511  0.1358
14030TIP3    H163581   1.500   1.138  13.765 -0.2519  0.0691  0.5428
14030TIP3    H263582   1.443   0.998  13.772  0.8152 -0.3691  0.6252
14031TIP3   OH263583   1.894   0.025  16.981  0.1235  0.3497 -0.5078
14031TIP3    H163584   1.953   0.055  16.912  0.0744  1.0185 -0.2660
14031TIP3    H263585   1.887   0.100  17.041 -1.1952  0.3834 -0.6830
14032TIP3   OH263586   6.149   6.056  12.425 -0.0509  0.0872 -0.3782
14032TIP3    H163587   6.100   6.032  12.504 -0.4439  2.4965  0.1362
14032TIP3    H263588   6.239   6.031  12.445 -0.1450  0.6962  0.8400
14033TIP3   OH263589   2.768   6.146   4.408  0.5313 -0.1882 -0.1969
14033TIP3    H163590   2.706   6.218   4.417 -0.1948 -1.1343  2.9314
14033TIP3    H263591   2.854   6.185   4.428  0.4198  0.2578 -0.5847
14034TIP3   OH263592   1.141   6.258  14.284  0.0568  0.5140 -0.0929
14034TIP3    H163593   1.064   6.247  14.229 -0.0044  1.0081 -0.1088
14034TIP3    H263594   1.129   6.343  14.326 -0.8476 -0.7063  2.2164
14035TIP3   OH263595   4.283   2.977  16.892 -0.2145 -0.5908  0.6801
14035TIP3    H163596   4.334   2.970  16.973  3.7540  1.3829 -1.4865
14035TIP3    H263597   4.256   3.069  16.889  0.4583 -0.4357 -0.7022
14036TIP3   OH263598   6.257   3.397  12.042 -0.1444  0.3276 -0.2549
14036TIP3    H163599   6.211   3.445  12.111  2.2616 -1.5783  2.8544
14036TIP3    H263600   6.224   3.307  12.049  1.9744 -0.4512  0.1874
14037TIP3   OH263601   5.025   0.813  11.795  0.2611 -0.5968 -0.0389
14037TIP3    H163602   4.959   0.757  11.837 -0.4939  0.4706  0.2348
14037TIP3    H263603   5.088   0.831  11.864 -0.1973 -0.0420  0.2381
14038TIP3   OH263604   1.918   4.459  12.079 -0.1542 -0.3079  0.3430
14038TIP3    H163605   1.868   4.380  12.101 -0.4992 -0.6358 -1.5219
14038TIP3    H263606   1.924   4.507  12.161  0.2965 -2.4026  1.5871
14039TIP3   OH263607   3.289   1.748  14.440  0.5255 -0.1550 -0.1788
14039TIP3    H163608   3.346   1.812  14.483  1.2759 -0.7048 -0.3534
14039TIP3    H263609   3.334   1.726  14.359  0.1055 -0.6567 -0.2790
14040TIP3   OH263610   5.059   5.801  12.612  0.5691 -0.4323  0.2996
14040TIP3    H163611   4.976   5.838  12.583  0.1734 -0.4318  1.4049
14040TIP3    H263612   5.074   5.727  12.554 -0.4709 -0.7519  0.4337
14041TIP3   OH263613   4.716   6.497   0.727 -0.4580  0.0913  0.4303
14041TIP3    H163614   4.638   6.551   0.731  0.9030  2.1308  0.1301
14041TIP3    H263615   4.789   6.559   0.731  1.1540 -1.3730 -3.8495
14042TIP3   OH263616   2.354   3.998   0.183  0.1048  0.2171 -0.6216
14042TIP3    H163617   2.419   4.008   0.253 -0.0641 -1.3760 -0.2084
14042TIP3    H263618   2.395   3.938   0.121 -0.7156 -0.2974 -0.6730
14043TIP3   OH263619   4.466   6.556  17.266 -0.0924 -0.7684 -0.0298
14043TIP3    H163620   4.519   6.622  17.311  0.3265 -1.3617  0.3454
14043TIP3    H263621   4.442   6.597  17.183 -1.7162  0.7202  1.1426
14044TIP3   OH263622   3.672   4.479   5.079  0.0590 -0.0317  0.1862
14044TIP3    H163623   3.629   4.409   5.128 -0.2624  0.4744  0.6365
14044TIP3    H263624   3.674   4.448   4.989  1.1883 -1.2180  0.6181
14045TIP3   OH263625   3.550   5.229   1.692 -0.1725  0.0621  0.0529
14045TIP3    H163626   3.461   5.248   1.720  0.3075  0.9880  0.9775
14045TIP3    H263627   3.586   5.313   1.664  1.8524  0.5860  3.8563
14046TIP3   OH263628   2.764   1.646  13.223  0.8626  0.0124 -0.1457
14046TIP3    H163629   2.753   1.606  13.310 -0.6947  0.5470 -0.1011
14046TIP3    H263630   2.722   1.584  13.163  1.6885 -0.2140 -0.5022
14047TIP3   OH263631   5.346   6.037   5.203 -0.6478 -0.4080  0.0072
14047TIP3    H163632   5.310   5.958   5.242 -2.5541  0.5382  0.1951
14047TIP3    H263633   5.359   6.097   5.277  0.0997 -0.2618 -0.2309
14048TIP3   OH263634   6.101   4.685   4.453 -0.3842 -0.2394  0.2105
14048TIP3    H163635   6.163   4.665   4.523 -1.2270  1.7661  1.5987
14048TIP3    H263636   6.135   4.640   4.376  2.6070  0.5564  1.0289
14049TIP3   OH263637   4.267   3.523  11.610 -0.1672  0.4163 -0.1614
14049TIP3    H163638   4.246   3.615  11.596 -0.3139  0.5679  0.9522
14049TIP3    H263639   4.274   3.515  11.705  0.3405 -0.6151 -0.2791
14050TIP3   OH263640   5.028   2.770   3.282  0.3864 -0.0237 -0.2037
14050TIP3    H163641   5.032   2.683   3.322  2.0356 -0.6389 -1.6098
14050TIP3    H263642   5.103   2.771   3.222 -1.0497  1.4463 -2.0240
14051TIP3   OH263643   2.434   2.620   0.171 -0.2755 -0.1541  0.0148
14051TIP3    H163644   2.523   2.654   0.176 -0.7097  1.2420 -1.5145
14051TIP3    H263645   2.421   2.575   0.255  0.5137  2.9369  1.8519
14052TIP3   OH263646   4.091   0.139  17.254 -0.2059  0.0684  0.6219
14052TIP3    H163647   4.138   0.173  17.330  3.2325  1.3215 -1.9229
14052TIP3    H263648   4.112   0.045  17.252 -0.3793  0.0168  1.2498
14053TIP3   OH263649   1.472   4.454  12.142 -0.2470 -0.1529 -0.2785
14053TIP3    H163650   1.404   4.414  12.089  0.0405 -0.0561 -0.7290
14053TIP3    H263651   1.494   4.388  12.207 -0.5711 -0.2925 -0.3108
14054TIP3   OH263652   0.980   4.330  15.225 -0.2774 -0.2028 -0.3291
14054TIP3    H163653   0.933   4.365  15.149  0.6342 -0.1091 -0.8660
14054TIP3    H263654   1.045   4.270  15.187  1.0761  0.8571  0.2832
14055TIP3   OH263655   3.950   0.160  14.218  0.2179 -0.4594 -0.1872
14055TIP3    H163656   3.976   0.070  14.200  1.3085 -0.1365 -0.3017
14055TIP3    H263657   4.029   0.212  14.200 -0.2994  0.4811  0.1821
14056TIP3   OH263658   0.904   0.108   4.204  0.0350  0.2026  0.0163
14056TIP3    H163659   0.980   0.088   4.259  1.7721 -0.0133 -2.4031
14056TIP3    H263660   0.936   0.174   4.142 -1.8225  0.2737 -0.8929
14057TIP3   OH263661   0.124   3.442  13.466  0.1806 -0.2280 -0.2183
14057TIP3    H163662   0.160   3.530  13.474  0.2140 -0.2507 -0.1228
14057TIP3    H263663   0.053   3.438  13.530  1.4902 -0.9400  1.2431
14058TIP3   OH263664   3.716   2.020   4.564 -0.7701 -0.0425  1.0221
14058TIP3    H163665   3.702   1.973   4.647 -1.4902  1.4061  1.7369
14058TIP3    H263666   3.766   2.097   4.589 -0.2667 -0.0347 -0.0272
14059TIP3   OH263667   0.610   5.650  14.622  0.3461  0.0805  0.6633
14059TIP3    H163668   0.631   5.741  14.598 -1.8962 -0.1041 -2.2375
14059TIP3    H263669   0.563   5.658  14.705 -0.1873  1.6320  0.2329
14060TIP3   OH263670   3.678   6.120   3.673  0.3341 -0.3118  0.0714
14060TIP3    H163671   3.734   6.127   3.751  0.5092  0.3388 -0.1099
14060TIP3    H263672   3.589   6.117   3.708  0.2792  2.1528  0.2110
14061TIP3   OH263673   0.540   1.439   2.149 -0.2822 -0.1061  0.1002
14061TIP3    H163674   0.612   1.499   2.129 -2.7720  2.4090 -1.4971
14061TIP3    H263675   0.534   1.440   2.245  1.1081  0.4684  0.1931
14062TIP3   OH263676   0.300   3.650   0.344  1.0127 -0.2120  0.0542
14062TIP3    H163677   0.365   3.720   0.337 -0.4966  1.2875  0.6255
14062TIP3    H263678   0.347   3.571   0.317  2.1517  1.3735 -2.9477
14063TIP3   OH263679   6.217   1.266   3.564 -0.4136 -0.2544  0.0040
14063TIP3    H163680   6.190   1.244   3.475 -1.2323 -0.6796  0.3445
14063TIP3    H263681   6.184   1.193   3.617  0.8486 -0.4539  0.5339
14064TIP3   OH263682   4.062   4.609  11.224 -0.0026 -0.2848  0.1532
14064TIP3    H163683   4.022   4.671  11.163  0.2188  1.1429  1.4160
14064TIP3    H263684   3.989   4.578  11.277 -0.0692 -0.8903 -0.2910
14065TIP3   OH263685   0.681   3.730  15.273 -0.5169  0.1474  0.6580
14065TIP3    H163686   0.733   3.804  15.243  0.7967 -1.0646 -0.0780
14065TIP3    H263687   0.741   3.679  15.327 -1.1387 -0.8867  0.3828
14066TIP3   OH263688   2.318   5.849  12.228  0.1783  0.0195 -0.2472
14066TIP3    H163689   2.361   5.929  12.196  1.2010 -0.3702  0.1197
14066TIP3    H263690   2.308   5.794  12.150 -1.2748  0.8361 -0.6443
14067TIP3   OH263691   2.057   6.234   4.480  0.7585  0.4810 -0.5960
14067TIP3    H163692   2.086   6.314   4.524  1.0386  0.6211 -1.0288
14067TIP3    H263693   2.026   6.264   4.395 -1.9735  0.5140  0.3752
14068TIP3   OH263694   2.810   2.675   6.221  0.3361 -0.1320 -0.4296
14068TIP3    H163695   2.722   2.676   6.183 -0.0621  0.8617  0.5018
14068TIP3    H263696   2.796   2.688   6.315  1.3047 -2.5561  0.1046
14069TIP3   OH263697   5.099   6.124  10.722 -0.7523 -0.5620 -0.0378
14069TIP3    H163698   5.089   6.070  10.801  0.8643 -0.2985  0.3705
14069TIP3    H263699   5.034   6.090  10.661 -1.9803 -0.8191  1.3857
14070TIP3   OH263700   5.676   0.730   3.888  0.0244  0.0032  0.3286
14070TIP3    H163701   5.757   0.764   3.925  0.3446 -0.1078 -0.2672
14070TIP3    H263702   5.622   0.807   3.871 -1.0493 -0.0827  3.1601
14071TIP3   OH263703   2.927   1.643   3.625 -0.0058  0.2145  0.0979
14071TIP3    H163704   2.977   1.684   3.555  1.0733  0.2741  0.8878
14071TIP3    H263705   2.894   1.716   3.677 -0.9552  0.1758 -0.4457
14072TIP3   OH263706   4.291   3.505  15.234  0.2509 -0.2485  0.0767
14072TIP3    H163707   4.212   3.452  15.246 -0.4342  0.9782  1.1565
14072TIP3    H263708   4.303   3.510  15.139 -1.3188  0.0417 -0.1185
14073TIP3   OH263709   2.223   3.046  10.971 -0.0572 -0.5363 -0.2849
14073TIP3    H163710   2.293   3.102  11.004 -0.6995  0.5841 -0.7910
14073TIP3    H263711   2.255   2.957  10.986  0.8334 -0.0508  0.8346
14074TIP3   OH263712   4.467   4.168   4.193 -0.2458 -0.2785  0.3428
14074TIP3    H163713   4.518   4.224   4.252 -0.9961 -1.0095  1.7001
14074TIP3    H263714   4.479   4.080   4.228 -1.9515 -0.5310  0.3068
14075TIP3   OH263715   4.020   2.128  11.996  0.7594  0.5759 -0.8550
14075TIP3    H163716   4.040   2.110  11.904  0.5646  0.4058 -0.8634
14075TIP3    H263717   4.004   2.042  12.034  1.9302  0.5445 -0.4061
14076TIP3   OH263718   4.183   6.407  12.817  0.2414  0.3711 -0.5342
14076TIP3    H163719   4.226   6.325  12.844  0.5605  1.0780  1.1490
14076TIP3    H263720   4.090   6.384  12.811  0.2608 -0.0040  0.4238
14077TIP3   OH263721   0.051   5.459   0.889  0.0267 -0.1826 -0.4977
14077TIP3    H163722  -0.016   5.395   0.912  0.8246 -0.8412  0.0238
14077TIP3    H263723   0.016   5.503   0.811 -1.1670 -0.2618 -0.0261
14078TIP3   OH263724   0.371   2.805   5.280 -0.0137  0.4727  0.5149
14078TIP3    H163725   0.301   2.770   5.225 -0.4815  1.3171  0.5695
14078TIP3    H263726   0.346   2.780   5.369  1.2326 -1.7308  0.2769
14079TIP3   OH263727   2.575   3.057  12.115 -1.0200 -0.1629  0.2991
14079TIP3    H163728   2.641   3.027  12.052 -0.6078 -0.4671  0.8828
14079TIP3    H263729   2.569   3.151  12.100 -1.7334 -0.3955 -0.9722
14080TIP3   OH263730   2.823   6.232   3.431 -0.1598  0.0968  0.6915
14080TIP3    H163731   2.742   6.217   3.381 -1.4011  0.9493  2.3825
14080TIP3    H263732   2.814   6.174   3.507  0.9765 -0.0443  0.7160
14081TIP3   OH263733   5.858   4.478  14.657 -0.2413  0.1978  0.3358
14081TIP3    H163734   5.831   4.568  14.638  0.2622  0.3345  0.2455
14081TIP3    H263735   5.926   4.487  14.724 -0.6638 -0.1637  0.8154
14082TIP3   OH263736   0.300   0.231   2.241  0.0845  0.2090 -0.4070
14082TIP3    H163737   0.350   0.156   2.270 -1.7343 -1.5213 -1.5574
14082TIP3    H263738   0.217   0.226   2.290 -0.5697  0.7232 -1.4306
14083TIP3   OH263739   1.554   3.994   5.410 -0.1247 -0.4418  0.0815
14083TIP3    H163740   1.569   3.981   5.317  1.0663  0.9208  0.0804
14083TIP3    H263741   1.477   3.939   5.429  0.5238 -1.9091 -1.3701
14084TIP3   OH263742   4.635   2.477   6.076  0.2909  0.4618 -0.0730
14084TIP3    H163743   4.677   2.545   6.024  0.6407  0.5323  0.2961
14084TIP3    H263744   4.542   2.500   6.077  0.2279  0.2720 -0.9479
14085TIP3   OH263745   2.533   5.556  11.856 -0.5629 -0.2358  0.2958
14085TIP3    H163746   2.605   5.573  11.917 -0.6731  0.8263  0.1348
14085TIP3    H263747   2.503   5.643  11.829 -1.6990 -0.6754  0.1129
14086TIP3   OH263748   2.850   5.192   0.019  0.8178 -0.1827 -0.1312
14086TIP3    H163749   2.936   5.235   0.024  0.6379  0.2703 -0.7477
14086TIP3    H263750   2.845   5.161  -0.072 -0.8137  2.2388 -0.9286
14087TIP3   OH263751   0.483   1.913   0.873 -0.7011  0.4969 -0.2093
14087TIP3    H163752   0.553   1.940   0.933  0.1298  1.9321 -1.7737
14087TIP3    H263753   0.528   1.861   0.806 -1.3792  0.1577 -0.4073
14088TIP3   OH263754   3.074   4.343  16.327  0.1049  0.1170 -0.8705
14088TIP3    H163755   3.091   4.437  16.325 -0.8668  0.3082 -0.6452
14088TIP3    H263756   3.157   4.303  16.353  0.5489  0.9050 -1.0816
14089TIP3   OH263757   4.351   5.193   4.348  0.2664 -0.2732  0.2584
14089TIP3    H163758   4.430   5.213   4.397  0.4880  1.2707 -0.7025
14089TIP3    H263759   4.284   5.251   4.385 -0.4348 -1.5654  1.0665
14090TIP3   OH263760   2.247   1.950  13.455  0.3752 -0.0735 -0.2395
14090TIP3    H163761   2.218   2.004  13.528 -0.1683 -0.4875 -0.1504
14090TIP3    H263762   2.208   1.992  13.378  0.7484  0.2213 -0.2677
14091TIP3   OH263763   6.631   2.669  16.900  0.1207 -0.1618  0.2035
14091TIP3    H163764   6.626   2.665  16.996  2.3230 -1.1424  0.3275
14091TIP3    H263765   6.637   2.577  16.873  1.3691  0.1779 -0.7298
14092TIP3   OH263766   2.015   5.161  11.102  0.0696  0.1498 -0.2021
14092TIP3    H163767   2.085   5.219  11.070 -1.1603  2.8750  1.8789
14092TIP3    H263768   1.940   5.182  11.047 -0.7009  1.4186  1.2949
14093TIP3   OH263769   2.655   3.816  12.845 -0.4285  0.5969 -0.2026
14093TIP3    H163770   2.653   3.892  12.786 -1.7282  2.2061  1.8339
14093TIP3    H263771   2.747   3.807  12.869  0.0012  0.3889 -1.8697
14094TIP3   OH263772   1.732   6.029   3.700  0.5990  0.6732 -0.4981
14094TIP3    H163773   1.793   6.074   3.641  2.1438  0.9135  1.2517
14094TIP3    H263774   1.787   5.993   3.769 -1.1106 -0.2910  0.3939
14095TIP3   OH263775   5.501   6.434   0.977  0.3483  0.1043 -0.0262
14095TIP3    H163776   5.466   6.421   0.889  0.6376 -0.5874 -0.0420
14095TIP3    H263777   5.508   6.529   0.986 -2.5906  0.3429  0.3790
14096TIP3   OH263778   3.633   5.945  11.788  0.7312  0.0986  0.6834
14096TIP3    H163779   3.596   5.982  11.869  0.7144 -2.6200  1.9784
14096TIP3    H263780   3.726   5.964  11.794  0.8574 -0.8013  1.7518
14097TIP3   OH263781   4.938   4.083   4.866  0.1428  0.3227  0.3319
14097TIP3    H163782   4.982   4.018   4.811  0.0492  0.7574 -0.2530
14097TIP3    H263783   5.000   4.100   4.937  1.3207  1.6355 -0.9881
14098TIP3   OH263784   0.603   5.727   3.924  0.4708 -0.1433 -0.2654
14098TIP3    H163785   0.600   5.750   4.017 -0.5115 -1.1545 -0.0375
14098TIP3    H263786   0.592   5.632   3.922 -1.3406  0.0595 -1.4913
14099TIP3   OH263787   1.707   3.870  12.975 -0.0088  0.0319  0.1956
14099TIP3    H163788   1.708   3.788  12.926 -1.8440 -0.6394  1.2328
14099TIP3    H263789   1.646   3.926  12.928  0.6903  0.5491 -0.1022
14100TIP3   OH263790   6.152   0.469   4.625  0.2815  0.4680  0.4283
14100TIP3    H163791   6.199   0.511   4.697  0.1097 -0.4441  1.0788
14100TIP3    H263792   6.150   0.535   4.555  1.0138  1.1194  1.0251
14101TIP3   OH263793   6.634   5.712   0.259 -0.5867 -0.1285 -0.3663
14101TIP3    H163794   6.582   5.789   0.285 -0.3172 -0.0771  0.0297
14101TIP3    H263795   6.573   5.658   0.209 -1.3606 -0.6107  1.0737
14102TIP3   OH263796   6.531   5.426   3.054  0.4820 -0.3636 -0.5984
14102TIP3    H163797   6.601   5.470   3.103  0.9383 -2.2232  0.4429
14102TIP3    H263798   6.569   5.342   3.028  0.1750  0.4817 -3.9930
14103TIP3   OH263799   2.505   1.480   2.401  0.4343  0.1565  0.9443
14103TIP3    H163800   2.521   1.386   2.405  1.1319  0.0902 -2.2782
14103TIP3    H263801   2.546   1.508   2.319 -0.6911  3.0945  1.3232
14104TIP3   OH263802   6.539   5.709   1.880  0.1863 -0.1055 -0.7116
14104TIP3    H163803   6.513   5.617   1.875  2.0920 -0.6126 -1.7504
14104TIP3    H263804   6.472   5.756   1.829  0.2374 -1.1411 -1.7511
14105TIP3   OH263805   1.693   5.425  14.340  0.3674 -0.3500 -0.6034
14105TIP3    H163806   1.637   5.500  14.362  1.8028  0.9481 -1.2964
14105TIP3    H263807   1.733   5.400  14.423  0.2951 -0.0019 -0.4636
14106TIP3   OH263808   4.544   2.286   1.469 -0.3850  0.3413  0.8898
14106TIP3    H163809   4.500   2.369   1.490  0.3239  0.9185  0.1391
14106TIP3    H263810   4.474   2.221   1.469 -1.0914  1.0869  0.6796
14107TIP3   OH263811   4.176   6.715   1.490 -0.1482  0.1668  0.3918
14107TIP3    H163812   4.266   6.725   1.521  0.6487 -0.1443 -1.6921
14107TIP3    H263813   4.151   6.627   1.516  1.0930 -0.6905 -1.2439
14108TIP3   OH263814   5.387   5.973  10.103  0.2019  0.8028 -0.4082
14108TIP3    H163815   5.340   6.017  10.174 -1.0603  2.2054 -2.0448
14108TIP3    H263816   5.318   5.942  10.045  1.1930 -1.1495 -0.5739
14109TIP3   OH263817   2.601   2.466   4.109  0.4196 -0.2745  0.2548
14109TIP3    H163818   2.612   2.372   4.125  1.4119  0.2242  2.7979
14109TIP3    H263819   2.508   2.481   4.125  0.3050 -0.7899  0.0931
14110TIP3   OH263820   2.895   5.438  13.733 -0.4343 -0.1096 -0.0527
14110TIP3    H163821   2.894   5.533  13.723  0.7684  0.0536  1.2317
14110TIP3    H263822   2.974   5.419  13.783  0.2293 -1.9517 -1.7365
14111TIP3   OH263823   5.404   5.317  11.020 -0.5444 -0.0771  0.2515
14111TIP3    H163824   5.389   5.382  10.951  0.4705 -1.0360 -0.9161
14111TIP3    H263825   5.387   5.233  10.977  0.5331 -0.7082  1.0325
14112TIP3   OH263826   5.413   6.706   0.990 -0.0630 -0.3061 -0.0208
14112TIP3    H163827   5.358   6.711   0.912 -0.6732 -0.7477  0.3781
14112TIP3    H263828   5.442   6.797   1.004 -2.4173  0.3357  0.9763
14113TIP3   OH263829   1.886   0.267  17.117 -0.0072  0.2062  0.2743
14113TIP3    H163830   1.819   0.294  17.180  0.0482 -0.9376  0.8373
14113TIP3    H263831   1.883   0.334  17.049  0.4603  1.9124  1.8716
14114TIP3   OH263832   4.817   6.518   6.128  0.1906 -0.3673  0.2981
14114TIP3    H163833   4.782   6.605   6.144 -1.1161 -0.9421  0.6708
14114TIP3    H263834   4.827   6.479   6.215 -0.3032 -0.9820  0.0879
14115TIP3   OH263835   2.556   0.753  11.082  0.4094  0.3642 -0.6400
14115TIP3    H163836   2.628   0.694  11.105  0.7748  0.3111 -1.8789
14115TIP3    H263837   2.491   0.695  11.042 -0.1364  0.4795  0.0845
14116TIP3   OH263838   6.580   0.274   5.150  0.6474  0.3657  0.5094
14116TIP3    H163839   6.572   0.210   5.080 -1.6846  1.3110 -0.1618
14116TIP3    H263840   6.515   0.247   5.215 -1.1395  2.5834 -0.2758
14117TIP3   OH263841   3.589   3.265   5.294 -0.2859  0.3857  0.0042
14117TIP3    H163842   3.627   3.281   5.381  0.4871  0.3077 -0.3089
14117TIP3    H263843   3.605   3.172   5.278 -0.9542  0.2646  0.0209
14118TIP3   OH263844   1.142   2.719   1.919  0.8342 -0.0607 -0.0877
14118TIP3    H163845   1.209   2.782   1.945 -0.1287  0.8867  0.1105
14118TIP3    H263846   1.186   2.666   1.852  1.3021  1.5768 -1.1336
14119TIP3   OH263847   0.515   2.616   5.673  0.0407  0.1771  0.2287
14119TIP3    H163848   0.602   2.643   5.702  0.1126  0.0069  0.1675
14119TIP3    H263849   0.463   2.697   5.676 -0.1152  0.0503  1.4194
14120TIP3   OH263850   6.680   1.726  15.901  0.3572 -0.1146 -0.1103
14120TIP3    H163851   6.654   1.677  15.823 -0.6872  0.6886 -0.2918
14120TIP3    H263852   6.770   1.752  15.884 -0.3570  1.4075 -1.7954
14121TIP3   OH263853   1.953   0.606  11.612  0.2831  0.3323 -0.1834
14121TIP3    H163854   2.017   0.551  11.566  0.4029 -0.6423  1.1193
14121TIP3    H263855   1.978   0.600  11.704  0.3516  2.6815 -0.0225
14122TIP3   OH263856   5.032   5.964  11.378 -0.3495  0.0517  0.3805
14122TIP3    H163857   5.116   5.922  11.398  1.1021  1.7665 -1.8440
14122TIP3    H263858   4.986   5.968  11.462  1.8103 -0.8478  1.6428
14123TIP3   OH263859   1.942   4.470  14.479 -0.0431  0.4830 -0.2474
14123TIP3    H163860   2.018   4.503  14.430  1.5136 -1.9602  0.3997
14123TIP3    H263861   1.933   4.379  14.449  0.8736 -1.0464  3.8161
14124TIP3   OH263862   5.751   6.819   2.446 -0.1385  0.2688 -0.2027
14124TIP3    H163863   5.800   6.758   2.390  1.6070 -0.5889  2.1312
14124TIP3    H263864   5.784   6.905   2.422 -1.0834  0.1325 -2.0630
14125TIP3   OH263865   3.788   4.320   1.314 -0.0696  0.2368  0.3712
14125TIP3    H163866   3.713   4.298   1.258 -0.3973 -0.5705  1.1072
14125TIP3    H263867   3.849   4.247   1.303  1.3170  1.6254 -1.4094
14126TIP3   OH263868   2.358   2.651   3.174  0.0964 -0.0086  0.0555
14126TIP3    H163869   2.373   2.657   3.269 -1.1626  2.6553  0.1306
14126TIP3    H263870   2.323   2.737   3.150  2.0787 -0.0436 -3.1494
14127TIP3   OH263871   5.919   0.631   2.528 -0.2738  0.1606  0.2544
14127TIP3    H163872   5.854   0.581   2.577 -0.0668 -0.2337  0.1292
14127TIP3    H263873   5.870   0.703   2.489 -0.2638  1.0653  1.8657
14128TIP3   OH263874   0.264   1.922  12.881  0.3781  0.0478  0.0686
14128TIP3    H163875   0.230   1.838  12.913  0.5543 -0.2150 -0.4406
14128TIP3    H263876   0.334   1.944  12.943 -0.5203  0.4559  0.9619
14129TIP3   OH263877   0.626   1.253  17.292 -0.1528  0.7843 -0.6064
14129TIP3    H163878   0.711   1.290  17.270 -0.5934  0.7239 -2.4350
14129TIP3    H263879   0.586   1.318  17.351  0.8277  1.1699 -0.3601
14130TIP3   OH263880   0.022   3.450   4.532  0.0688  0.0598 -0.1831
14130TIP3    H163881   0.110   3.417   4.547  0.4210  0.8072 -0.5486
14130TIP3    H263882  -0.034   3.372   4.530  0.8325 -0.4758 -0.6941
14131TIP3   OH263883   6.099   2.240   0.606 -0.3925 -0.6201 -0.6249
14131TIP3    H163884   6.044   2.237   0.684  1.4258 -0.1691  0.6807
14131TIP3    H263885   6.182   2.201   0.633  1.8357  3.5676 -1.0360
14132TIP3   OH263886   4.989   4.331  14.379  0.4120  0.3890  0.0328
14132TIP3    H163887   5.028   4.418  14.378  0.6513  0.2806 -0.0597
14132TIP3    H263888   4.896   4.347  14.393  0.8135  0.5442  2.8690
14133TIP3   OH263889   0.013   4.599   2.194  0.4807  0.0957  0.4431
14133TIP3    H163890  -0.062   4.623   2.248 -0.2747 -3.0027  0.8654
14133TIP3    H263891  -0.015   4.519   2.149  2.5865  0.3698 -1.4048
14134TIP3   OH263892   0.522   2.485  11.951 -0.4008  0.1057  0.1749
14134TIP3    H163893   0.486   2.404  11.987  1.0086 -1.3039 -1.5098
14134TIP3    H263894   0.492   2.488  11.861  1.5313  0.1821 -0.5026
14135TIP3   OH263895   1.062   3.494   2.228 -0.8427  0.3931  0.2236
14135TIP3    H163896   1.061   3.453   2.315 -2.7597  1.6177  0.7938
14135TIP3    H263897   1.132   3.448   2.181  0.1790 -0.3181  2.3859
14136TIP3   OH263898   2.398   3.193   5.779 -0.5445  0.2566  0.0879
14136TIP3    H163899   2.411   3.100   5.760 -1.7457 -0.0121  0.5293
14136TIP3    H263900   2.407   3.200   5.874  0.3122  0.7319 -0.0209
14137TIP3   OH263901   0.265   2.769   4.730 -0.7999  0.0941 -0.4600
14137TIP3    H163902   0.249   2.759   4.636 -0.9286  0.5725 -0.4901
14137TIP3    H263903   0.200   2.713   4.772  0.0552 -1.0866 -0.6833
14138TIP3   OH263904   3.327   1.882   2.797  0.0582 -0.6463  0.2038
14138TIP3    H163905   3.275   1.960   2.777  3.3813  1.5968 -0.2823
14138TIP3    H263906   3.287   1.812   2.745 -2.3531  0.9909 -0.2218
14139TIP3   OH263907   3.135   3.245  12.533 -0.1951  0.5129  0.8924
14139TIP3    H163908   3.063   3.238  12.596 -1.3018 -0.4598 -0.4603
14139TIP3    H263909   3.122   3.171  12.473  2.1947  0.0432  0.8904
14140TIP3   OH263910   0.237   4.399   2.295 -0.5360  0.0297  0.8877
14140TIP3    H163911   0.172   4.405   2.225 -0.6397 -0.0214  0.9797
14140TIP3    H263912   0.205   4.329   2.352 -0.6506  0.3343  1.1960
14141TIP3   OH263913   4.568   0.417   2.496 -0.2697  0.4103 -0.4028
14141TIP3    H163914   4.617   0.498   2.482 -0.9813  0.6900 -1.3302
14141TIP3    H263915   4.557   0.412   2.591 -1.5918  2.2515 -0.4187
14142TIP3   OH263916   1.284   0.647   1.905 -0.2429 -1.0828  0.3039
14142TIP3    H163917   1.262   0.560   1.937 -0.4527 -0.7336  1.1157
14142TIP3    H263918   1.201   0.683   1.873 -0.3972 -0.7292  1.0722
14143TIP3   OH263919   0.516   1.764  12.297 -0.1463 -0.3376  0.2131
14143TIP3    H163920   0.520   1.811  12.380 -1.7405 -0.5861  0.4429
14143TIP3    H263921   0.607   1.758  12.268  0.1644  2.2719  0.5423
14144TIP3   OH263922   3.216   6.524   2.246  0.0868  0.3608  0.5793
14144TIP3    H163923   3.174   6.485   2.169 -2.7297  1.5950  1.4104
14144TIP3    H263924   3.217   6.453   2.311  2.1603 -0.5794 -0.4248
14145TIP3   OH263925   5.846   6.570   2.650  0.4022 -0.0745  0.0407
14145TIP3    H163926   5.854   6.548   2.743  2.2234  3.6545  0.8557
14145TIP3    H263927   5.930   6.542   2.612 -0.7046 -2.4890 -0.7701
14146TIP3   OH263928   0.960   6.333  13.154 -0.0667 -0.3741 -0.4023
14146TIP3    H163929   0.999   6.327  13.067  2.4666 -0.6918  0.7150
14146TIP3    H263930   0.933   6.425  13.162  0.2021 -0.2170 -1.2927
14147TIP3   OH263931   6.007   0.698  14.787 -0.7334 -0.1004 -0.2638
14147TIP3    H163932   5.941   0.764  14.808  0.5591  1.5468 -1.2244
14147TIP3    H263933   6.068   0.701  14.861  0.0384  0.7415 -0.9219
14148TIP3   OH263934   4.419   4.341  15.871  0.0321  0.4290  0.2292
14148TIP3    H163935   4.328   4.313  15.868 -0.2705  1.3110  0.7971
14148TIP3    H263936   4.462   4.293  15.801 -0.9731  0.3674 -0.3508
14149TIP3   OH263937   3.765   4.251  11.476 -0.4122  0.1415  0.0722
14149TIP3    H163938   3.842   4.194  11.476 -0.4482  0.0673 -2.0107
14149TIP3    H263939   3.693   4.194  11.450 -1.1279  0.3061  1.6216
14150TIP3   OH263940   1.513   5.850   0.016 -0.4259 -0.4042 -0.0149
14150TIP3    H163941   1.432   5.810  -0.015 -1.2455  0.7957  0.5558
14150TIP3    H263942   1.511   5.839   0.111  0.3362 -0.8200 -0.0361
14151TIP3   OH263943   3.449   1.053  12.760 -0.0555  0.0298  0.3838
14151TIP3    H163944   3.406   1.024  12.841  0.5037 -0.7344  0.4129
14151TIP3    H263945   3.414   1.141  12.745  0.2169  0.3915  1.7434
14152TIP3   OH263946   5.110   2.416   3.083 -0.3521  0.7081  0.0989
14152TIP3    H163947   5.058   2.340   3.057 -0.1895  0.5046  0.3680
14152TIP3    H263948   5.165   2.434   3.006  1.0015 -0.6451  0.7274
14153TIP3   OH263949   3.107   2.831   5.590 -0.1152  0.2263  0.0338
14153TIP3    H163950   3.072   2.874   5.669  0.7994  0.0783  0.5312
14153TIP3    H263951   3.171   2.769   5.624  1.7881  1.6209 -0.9458
14154TIP3   OH263952   5.423   0.708   2.894  0.0686  0.1770 -0.1263
14154TIP3    H163953   5.348   0.767   2.883  0.3020  0.6191  0.5742
14154TIP3    H263954   5.464   0.705   2.807  1.1737  2.6136  0.2395
14155TIP3   OH263955   4.538   3.405  15.644 -0.3975 -0.5628  0.3354
14155TIP3    H163956   4.463   3.404  15.703  1.7035 -0.3063  3.0736
14155TIP3    H263957   4.609   3.445  15.694  1.9196 -1.8008 -1.7880
14156TIP3   OH263958   2.150   5.992   1.926  0.2929 -0.0980  0.5019
14156TIP3    H163959   2.139   6.078   1.887  2.7126  1.4123  2.9491
14156TIP3    H263960   2.215   5.948   1.871 -1.0399 -0.4362 -0.8229
14157TIP3   OH263961   3.950   4.533   2.084  0.1888 -0.7434  0.2990
14157TIP3    H163962   3.993   4.527   2.170 -1.7233  0.2778  1.3599
14157TIP3    H263963   3.910   4.447   2.072  0.9543 -1.0821  0.1622
14158TIP3   OH263964   4.302   1.791  15.642  0.0305  0.4872 -0.1322
14158TIP3    H163965   4.306   1.876  15.597 -0.0105 -0.4806 -1.9777
14158TIP3    H263966   4.313   1.726  15.573  1.3196 -1.0132  1.4292
14159TIP3   OH263967   1.232   2.118  13.872  0.3035 -0.6346 -0.2801
14159TIP3    H163968   1.240   2.144  13.780 -0.0465 -1.2169 -0.4772
14159TIP3    H263969   1.148   2.153  13.900  0.6230 -0.0531 -0.0454
14160TIP3   OH263970   1.507   3.015  12.822  0.3364  0.5741 -0.6458
14160TIP3    H163971   1.545   2.928  12.825  0.9397  0.8609 -0.1326
14160TIP3    H263972   1.419   3.001  12.787 -0.1969 -0.4507  1.0596
14161TIP3   OH263973   0.591   3.348  11.137  0.6738  0.0934 -0.0071
14161TIP3    H163974   0.595   3.406  11.062  0.0984  0.1095 -0.0243
14161TIP3    H263975   0.603   3.260  11.101  0.6778  0.1265 -0.0849
14162TIP3   OH263976   2.430   4.148   2.786  0.3334 -0.2207  0.8015
14162TIP3    H163977   2.435   4.240   2.759  0.9878 -0.9274 -1.6176
14162TIP3    H263978   2.380   4.106   2.716  0.9037 -1.8835  1.3863
14163TIP3   OH263979   1.073   6.376   2.813 -0.3261 -0.2951 -0.0685
14163TIP3    H163980   1.035   6.400   2.728 -1.9557  1.4377  1.0987
14163TIP3    H263981   1.163   6.407   2.809 -0.3629 -0.3389 -1.2230
14164TIP3   OH263982   0.838   1.261  14.786  0.9812 -0.1663  0.4524
14164TIP3    H163983   0.886   1.342  14.769 -0.4010  0.1345 -2.3046
14164TIP3    H263984   0.869   1.201  14.718 -0.6792 -0.7473  0.1841
14165TIP3   OH263985   6.087   5.925  13.720 -0.2193 -0.1993  0.1892
14165TIP3    H163986   6.050   5.844  13.686 -1.7167  1.0367 -1.2042
14165TIP3    H263987   6.159   5.946  13.659 -0.5757  0.1202 -0.1230
14166TIP3   OH263988   1.033   5.186  15.054  0.5672  0.6056 -0.0799
14166TIP3    H163989   1.036   5.200  14.959  1.9129  2.7504  0.2211
14166TIP3    H263990   0.977   5.256  15.087  1.1284  0.6495  0.8158
14167TIP3   OH263991   5.135   5.921   3.490  0.4546  0.0414  0.2398
14167TIP3    H163992   5.117   5.827   3.494  0.4147 -0.0009 -0.7877
14167TIP3    H263993   5.072   5.960   3.550  0.2386 -0.5550  0.4050
14168TIP3   OH263994   1.456   5.610   4.635 -0.2275  0.2065 -0.5500
14168TIP3    H163995   1.381   5.653   4.674 -1.3793 -1.4281 -0.9207
14168TIP3    H263996   1.485   5.547   4.702  0.9384  0.9655 -0.3287
14169TIP3   OH263997   2.828   3.265  11.848  0.2497  0.0952  0.8136
14169TIP3    H163998   2.758   3.235  11.791  0.7862 -0.1513  0.2764
14169TIP3    H263999   2.784   3.289  11.930 -0.3589 -0.8321  0.7698
14170TIP3   OH264000   5.553   0.648   2.355  0.3537  0.0801 -0.8870
14170TIP3    H164001   5.599   0.731   2.369  1.2926 -0.8391  1.7468
14170TIP3    H264002   5.610   0.598   2.296  0.6191  0.6291 -1.0953
14171TIP3   OH264003   4.274   6.198  16.558 -0.1188  0.8240  0.1538
14171TIP3    H164004   4.299   6.120  16.509  1.1067  1.8967 -0.9762
14171TIP3    H264005   4.334   6.200  16.633 -0.1640  0.6650  0.1940
14172TIP3   OH264006   6.062   5.770  15.141 -0.1486  0.0038  0.1486
14172TIP3    H164007   5.998   5.838  15.162  2.1656  1.8191  1.6285
14172TIP3    H264008   6.056   5.759  15.046  0.3836  3.3245 -0.3397
14173TIP3   OH264009   4.410   0.348  12.350  0.2772 -0.1759 -0.1341
14173TIP3    H164010   4.492   0.307  12.378  1.0255  2.0931  1.1289
14173TIP3    H264011   4.398   0.317  12.260  0.6641 -3.2883  0.8171
14174TIP3   OH264012   3.831   5.675  12.255 -0.2332 -0.0332 -0.0331
14174TIP3    H164013   3.852   5.677  12.162  0.3935 -2.7392  0.0198
14174TIP3    H264014   3.735   5.668  12.258 -0.0943 -2.4717 -0.5469
14175TIP3   OH264015   3.249   0.269  14.400 -0.2963 -0.0180 -0.3261
14175TIP3    H164016   3.344   0.271  14.393 -0.2181  0.8827  0.8891
14175TIP3    H264017   3.227   0.175  14.401  0.6826 -0.2472  0.5832
14176TIP3   OH264018   1.668   6.756   0.875  0.6299 -0.4800  0.8167
14176TIP3    H164019   1.580   6.769   0.838  1.1420  0.2267 -0.1646
14176TIP3    H264020   1.654   6.697   0.949 -0.5781 -0.9717  0.2145
14177TIP3   OH264021   4.939   3.598  15.977 -0.0156  0.4216  0.1613
14177TIP3    H164022   4.975   3.513  16.002 -3.2668 -1.2302 -0.5021
14177TIP3    H264023   4.996   3.629  15.906  1.6211 -0.8538  0.9000
14178TIP3   OH264024   0.694   3.351  16.986 -0.2603  0.3890 -0.3146
14178TIP3    H164025   0.723   3.260  16.994  0.2635  0.6084  0.3006
14178TIP3    H264026   0.673   3.361  16.893 -0.2437 -0.3373 -0.3977
14179TIP3   OH264027   6.397   1.320   4.033 -0.0717  0.5885  0.4520
14179TIP3    H164028   6.328   1.318   4.100 -0.5095 -0.1151 -0.0067
14179TIP3    H264029   6.452   1.394   4.057 -1.7681  2.0255  0.0632
14180TIP3   OH264030   4.251   3.991   5.223 -0.7763 -0.0572 -0.2491
14180TIP3    H164031   4.345   3.998   5.233 -0.8060 -0.7718  0.5582
14180TIP3    H264032   4.228   4.059   5.159  0.1193  0.9430  0.4757
14181TIP3   OH264033   2.814   2.586  13.528  0.2349 -0.6673  0.3147
14181TIP3    H164034   2.831   2.521  13.460  1.1995 -0.8997  0.7662
14181TIP3    H264035   2.891   2.582  13.585  0.1146  0.5675  0.5841
14182TIP3   OH264036   3.853   6.278  14.464 -0.1958  0.8314  0.1576
14182TIP3    H164037   3.888   6.293  14.552 -1.3936 -0.7225  0.9483
14182TIP3    H264038   3.758   6.288  14.474 -0.3814  0.2037 -0.8492
14183TIP3   OH264039   3.136   5.536   4.100  0.3516 -0.8254 -0.5023
14183TIP3    H164040   3.077   5.573   4.034  0.3337 -1.9575 -1.1413
14183TIP3    H264041   3.124   5.591   4.177 -0.7100 -0.3608 -0.9913
14184TIP3   OH264042   1.446   0.298  11.546 -0.2912  0.5275  0.3977
14184TIP3    H164043   1.400   0.347  11.479 -1.2217  0.2192  0.8096
14184TIP3    H264044   1.525   0.266  11.503 -0.9950  0.1486 -0.6124
14185TIP3   OH264045   4.864   2.273  12.629 -0.5027 -0.2519 -0.5039
14185TIP3    H164046   4.848   2.288  12.536 -1.3990  0.9884 -0.1549
14185TIP3    H264047   4.943   2.218  12.631 -1.7723 -2.2157 -2.0586
14186TIP3   OH264048   0.557   2.495   0.514  0.4416 -0.1809 -0.2720
14186TIP3    H164049   0.462   2.498   0.527  0.3719  0.7290 -0.9269
14186TIP3    H264050   0.592   2.486   0.602 -0.1934  1.2647  0.1478
14187TIP3   OH264051   4.050   6.530   5.517  0.0591  0.2860  0.4592
14187TIP3    H164052   3.988   6.505   5.449  1.9137 -0.8524 -0.8620
14187TIP3    H264053   4.067   6.449   5.565  0.9751  0.4541  0.4292
14188TIP3   OH264054   5.849   6.694  10.802  0.3271  0.4198  0.0477
14188TIP3    H164055   5.905   6.639  10.748 -2.0353 -1.1598 -0.8629
14188TIP3    H264056   5.884   6.685  10.890  0.8483 -1.4117 -0.3269
14189TIP3   OH264057   3.220   6.353  16.800 -0.2141  0.0653 -0.1461
14189TIP3    H164058   3.185   6.295  16.868  1.5085  0.4061  1.0738
14189TIP3    H264059   3.302   6.311  16.773  0.2697  1.1463 -0.3541
14190TIP3   OH264060   4.837   0.016  13.265 -0.5125  0.1213 -0.1682
14190TIP3    H164061   4.825  -0.063  13.212 -2.1756  0.2186  0.0134
14190TIP3    H264062   4.926   0.009  13.299 -0.8154 -1.9513  0.2817
14191TIP3   OH264063   4.123   1.418  11.334  0.2259 -0.1706  0.1087
14191TIP3    H164064   4.039   1.463  11.322 -0.3609 -0.6420  2.2318
14191TIP3    H264065   4.143   1.382  11.248 -1.3967  0.5537 -0.5946
14192TIP3   OH264066   0.744   6.693   0.724 -0.3917 -0.0293 -0.2657
14192TIP3    H164067   0.657   6.709   0.689 -1.0087 -1.3047  0.6580
14192TIP3    H264068   0.730   6.632   0.797  1.0645  1.0888  0.9837
14193TIP3   OH264069   3.223   6.028  11.472  0.0628  0.2937  0.3094
14193TIP3    H164070   3.199   5.984  11.390  0.9048  0.5601 -0.0835
14193TIP3    H264071   3.313   5.999  11.490 -0.5640 -0.7983  1.8311
14194TIP3   OH264072   6.793   3.151  16.131 -0.1470 -0.9269  0.3655
14194TIP3    H164073   6.753   3.238  16.124  2.7018  0.4519  0.6885
14194TIP3    H264074   6.820   3.129  16.042  2.4573  0.1720  0.8603
14195TIP3   OH264075   2.784   3.952   1.409  0.2155 -0.2173 -0.2551
14195TIP3    H164076   2.790   4.039   1.370 -0.9360 -0.3517 -0.7598
14195TIP3    H264077   2.832   3.959   1.491  1.2776  0.5174 -0.9270
14196TIP3   OH264078   2.831   3.189   3.625  0.7249 -0.2340  0.3295
14196TIP3    H164079   2.857   3.199   3.534  0.1818 -0.3992  0.1537
14196TIP3    H264080   2.738   3.211   3.626 -0.0491 -3.3311  0.2830
14197TIP3   OH264081   4.295   4.835   0.572  0.0633 -0.1403  0.3938
14197TIP3    H164082   4.201   4.841   0.585  0.0313 -0.8420  0.5393
14197TIP3    H264083   4.307   4.846   0.477  0.0556  2.2272  0.6414
14198TIP3   OH264084   6.057   1.769   6.116  0.1077  0.0609 -0.3533
14198TIP3    H164085   5.994   1.803   6.053 -1.2437 -2.5954 -0.4721
14198TIP3    H264086   6.023   1.683   6.141  1.3021  0.4872  3.0105
14199TIP3   OH264087   0.088   5.158   3.397 -0.2246 -0.4219 -0.5614
14199TIP3    H164088   0.055   5.120   3.315 -2.0132  0.7772 -0.4281
14199TIP3    H264089   0.102   5.250   3.377 -1.5594  0.0837  0.7079
14200TIP3   OH264090   1.236   3.995   3.422  0.7997  0.6132  0.4030
14200TIP3    H164091   1.282   3.935   3.364 -1.6744 -1.6229  0.6910
14200TIP3    H264092   1.197   3.939   3.489 -1.2371  2.5639  0.9075
14201TIP3   OH264093   5.588   5.432  11.199 -0.4211 -0.4723 -0.1978
14201TIP3    H164094   5.547   5.516  11.221  0.6054  0.2116 -0.8616
14201TIP3    H264095   5.523   5.387  11.145 -0.2362  0.6754 -1.4005
14202TIP3   OH264096   3.447   0.974  15.576  0.2920 -0.0510 -0.0960
14202TIP3    H164097   3.446   0.947  15.485  1.3723 -1.3106  0.2496
14202TIP3    H264098   3.529   0.938  15.611  0.1608  0.8761  1.2288
14203TIP3   OH264099   3.845   0.805   5.388 -0.2963 -0.2139 -0.4232
14203TIP3    H164100   3.855   0.806   5.483  1.3445 -1.6790 -0.5448
14203TIP3    H264101   3.792   0.882   5.368 -2.0289 -0.7844  1.8158
14204TIP3   OH264102   6.681   5.548  17.095  0.2216  0.5661 -0.4673
14204TIP3    H164103   6.597   5.505  17.112  0.6183 -0.1731 -0.4079
14204TIP3    H264104   6.740   5.478  17.071  1.0051  1.0148  0.1358
14205TIP3   OH264105   4.252   6.018  15.667  0.1785  0.0120  0.5455
14205TIP3    H164106   4.291   6.104  15.649 -0.0737  0.2114  0.9481
14205TIP3    H264107   4.324   5.965  15.701  0.3930 -0.0135  0.0491
14206TIP3   OH264108   1.850   4.392  11.177  0.1716  0.3739 -0.4437
14206TIP3    H164109   1.849   4.318  11.116 -0.4802  1.2243 -1.4744
14206TIP3    H264110   1.907   4.362  11.249 -0.4435 -1.2946 -0.6133
14207TIP3   OH264111   1.219   1.307  15.556  0.3846  0.6113 -0.3267
14207TIP3    H164112   1.152   1.252  15.596 -0.3192  1.4704 -0.3233
14207TIP3    H264113   1.187   1.325  15.467  0.9821  0.3713 -0.5934
14208TIP3   OH264114   6.769   4.482  13.334 -0.0194  0.0937 -0.7394
14208TIP3    H164115   6.830   4.550  13.363 -0.3172 -0.7749  2.0556
14208TIP3    H264116   6.686   4.527  13.321  0.0306  0.4289  0.1354
14209TIP3   OH264117   5.276   1.784   0.087  0.6829 -0.2857 -0.7431
14209TIP3    H164118   5.189   1.752   0.111  0.5524  0.4564 -0.2267
14209TIP3    H264119   5.259   1.855   0.025  0.7984  1.7161  1.4345
14210TIP3   OH264120   5.362   4.030  14.584 -0.3816  0.1919  0.0725
14210TIP3    H164121   5.308   4.081  14.523 -0.1862 -1.6275 -1.6600
14210TIP3    H264122   5.428   4.092  14.615 -1.6619  1.6547 -0.0922
14211TIP3   OH264123   6.497   6.785   4.352  0.1239 -0.0166  0.2892
14211TIP3    H164124   6.527   6.768   4.263  0.5310  1.4647  0.1138
14211TIP3    H264125   6.498   6.881   4.359 -2.2397 -0.0222  1.0906
14212TIP3   OH264126   3.108   1.759   0.969  0.2950  0.7633 -0.7537
14212TIP3    H164127   3.120   1.772   1.063  1.3209 -1.3594 -0.5650
14212TIP3    H264128   3.021   1.721   0.961  0.1554  1.0655 -0.6799
14213TIP3   OH264129   2.293   0.475  12.098 -0.6655  0.1970  0.3132
14213TIP3    H164130   2.310   0.466  12.004  0.9339  0.1477  0.5863
14213TIP3    H264131   2.248   0.560  12.106 -0.1941  0.5265 -0.4303
14214TIP3   OH264132   0.588   0.197   4.207  0.5416  0.4188 -0.3791
14214TIP3    H164133   0.568   0.272   4.152 -1.2398 -1.1925 -2.0323
14214TIP3    H264134   0.502   0.165   4.235  1.3757  0.6718  2.6365
14215TIP3   OH264135   1.049   4.163  16.151  0.1930 -0.1134 -0.2834
14215TIP3    H164136   1.068   4.178  16.243 -1.9403  1.1886 -0.0227
14215TIP3    H264137   1.121   4.205  16.104  0.2569  0.9219  0.7408
14216TIP3   OH264138   2.965   0.095   3.497 -0.0597 -0.2841 -0.1187
14216TIP3    H164139   2.930   0.022   3.447 -0.3334 -0.5469  0.4455
14216TIP3    H264140   2.935   0.173   3.451 -0.9540 -0.5162  0.0673
14217TIP3   OH264141   0.846   5.236   5.420  0.1079 -0.3566  0.2508
14217TIP3    H164142   0.872   5.196   5.503  1.3346  0.2915  0.1854
14217TIP3    H264143   0.911   5.206   5.357  1.5229  2.3373  0.3721
14218TIP3   OH264144   1.489   6.139   4.127 -0.4163  0.1201  0.8507
14218TIP3    H164145   1.564   6.195   4.109 -2.5796  2.4786 -1.1107
14218TIP3    H264146   1.483   6.082   4.050 -1.5445  1.0002  0.2738
14219TIP3   OH264147   2.049   4.659  13.893  1.1878  0.0232 -0.3374
14219TIP3    H164148   2.048   4.726  13.962  1.3971 -1.2136  0.8880
14219TIP3    H264149   1.957   4.637  13.879  1.2054 -0.4155  0.2330
14220TIP3   OH264150   3.746   1.105   4.911 -0.1683  0.1734  0.2427
14220TIP3    H164151   3.667   1.051   4.910 -1.5849  2.1625 -2.7948
14220TIP3    H264152   3.722   1.183   4.961 -0.9089  1.7652 -2.4881
14221TIP3   OH264153   0.354   6.593   3.251  0.2693  0.4085  0.0962
14221TIP3    H164154   0.368   6.521   3.189  0.2639  1.4104 -1.0874
14221TIP3    H264155   0.439   6.637   3.256  0.3071  0.2511  0.9140
14222TIP3   OH264156   6.277   4.723   2.936 -0.5283 -0.0687 -0.1955
14222TIP3    H164157   6.334   4.690   2.867 -1.3685 -0.6430 -0.6120
14222TIP3    H264158   6.266   4.649   2.996 -1.1654 -0.0794 -0.3260
14223TIP3   OH264159   5.454   4.432   4.723  0.2158 -1.0580 -0.6067
14223TIP3    H164160   5.451   4.403   4.632  1.6671 -0.6568 -0.7863
14223TIP3    H264161   5.537   4.398   4.757 -0.1293 -0.8712  0.4621
14224TIP3   OH264162   1.099   0.655   5.604  0.5534  0.2643  0.6137
14224TIP3    H164163   1.103   0.747   5.631 -0.1800  0.7449 -0.8826
14224TIP3    H264164   1.170   0.645   5.540 -0.6879  0.3349 -0.7968
14225TIP3   OH264165   3.914   0.114  16.543  0.0010  0.5830 -0.1113
14225TIP3    H164166   3.909   0.089  16.451 -0.6264 -0.3508  0.1755
14225TIP3    H264167   3.950   0.037  16.587  0.2895  1.0232  0.4347
14226TIP3   OH264168   2.197   4.491   2.914  0.1851 -0.6860 -0.4310
14226TIP3    H164169   2.143   4.420   2.948  0.2992 -1.2176 -1.3329
14226TIP3    H264170   2.197   4.477   2.819 -2.1562  2.1800 -0.9081
14227TIP3   OH264171   1.101   0.096  11.066 -0.2829 -0.8736  0.1776
14227TIP3    H164172   1.167   0.064  11.005 -2.0958 -1.8284 -1.3350
14227TIP3    H264173   1.138   0.177  11.101  0.8775 -0.4111 -2.0351
14228TIP3   OH264174   4.104   2.750  17.037 -0.0079 -0.3862 -0.7645
14228TIP3    H164175   4.190   2.789  17.056  0.2272 -1.2943  0.0662
14228TIP3    H264176   4.058   2.818  16.987  1.0146  0.2957 -0.8018
14229TIP3   OH264177   2.440   4.725  11.143  0.1381  0.1649 -0.2891
14229TIP3    H164178   2.443   4.684  11.057  0.6933 -3.3257  1.3051
14229TIP3    H264179   2.530   4.753  11.159  0.3055 -0.3403 -0.3328
14230TIP3   OH264180   3.436   1.456   2.694 -0.5013  0.1263 -0.3423
14230TIP3    H164181   3.408   1.541   2.658 -0.0386  0.3790 -0.1227
14230TIP3    H264182   3.487   1.416   2.623 -0.1334  0.3424 -0.2059
14231TIP3   OH264183   6.487   5.272   6.153 -0.1039  0.4172  0.5457
14231TIP3    H164184   6.578   5.248   6.167 -0.5717 -1.4178  0.5983
14231TIP3    H264185   6.476   5.355   6.199  0.8310 -0.7442  2.9493
14232TIP3   OH264186   5.198   3.863   5.141 -0.2038 -0.3112 -0.4347
14232TIP3    H164187   5.144   3.942   5.138 -3.2095 -2.2561  0.3255
14232TIP3    H264188   5.223   3.848   5.050 -0.1545  1.1275 -0.6770
14233TIP3   OH264189   6.421   2.626   1.304 -0.2390  0.4343  0.0978
14233TIP3    H164190   6.412   2.547   1.357 -0.4393 -1.5649 -2.7965
14233TIP3    H264191   6.492   2.675   1.345  0.3521 -1.5877  1.5594
14234TIP3   OH264192   2.537   1.986   0.929 -0.2843  0.2212  0.8377
14234TIP3    H164193   2.627   1.962   0.906 -0.5760  0.9212 -1.0935
14234TIP3    H264194   2.503   1.909   0.975  1.1098 -0.2728  1.0732
14235TIP3   OH264195   2.925   3.253  12.740 -0.0574  0.4084  0.0853
14235TIP3    H164196   2.941   3.161  12.719 -1.8830  0.1598 -0.3306
14235TIP3    H264197   2.947   3.261  12.832 -0.5561 -0.6373  0.3125
14236TIP3   OH264198   1.339   6.104   5.896  0.1577 -0.1812  0.1947
14236TIP3    H164199   1.318   6.072   5.809  0.1298  0.5999 -0.0924
14236TIP3    H264200   1.393   6.182   5.881 -1.0245  0.7864  0.8382
14237TIP3   OH264201   4.381   4.459  11.686  0.1051 -0.0113 -0.3489
14237TIP3    H164202   4.391   4.423  11.597 -0.1785 -1.1915  0.0773
14237TIP3    H264203   4.470   4.482  11.713  0.1243  0.8948 -1.1510
14238TIP3   OH264204   4.788   5.953   5.128  0.3415  0.1406  0.0449
14238TIP3    H164205   4.697   5.927   5.114  0.6352  0.1017 -1.8444
14238TIP3    H264206   4.783   6.043   5.160 -0.3379  0.3088 -0.5271
14239TIP3   OH264207   0.129   3.937  15.772  0.0129  0.4316 -0.4008
14239TIP3    H164208   0.105   3.921  15.863 -0.6199  1.7526 -0.3159
14239TIP3    H264209   0.224   3.936  15.771  0.0274  0.9469  0.3860
14240TIP3   OH264210   5.485   5.798  13.634  0.0234  0.2270  0.2250
14240TIP3    H164211   5.553   5.851  13.592  0.0622 -1.2231 -1.6328
14240TIP3    H264212   5.419   5.862  13.660  1.1421  1.4405  0.1672
14241TIP3   OH264213   4.575   4.732   1.364  0.2855  0.2091 -0.0256
14241TIP3    H164214   4.617   4.660   1.316  3.8263  1.9211  0.2959
14241TIP3    H264215   4.546   4.792   1.295  0.3579  0.0466 -0.2005
14242TIP3   OH264216   0.687   2.971  13.325  0.0177  0.3815  1.2132
14242TIP3    H164217   0.694   3.048  13.269 -3.0415 -0.9370 -1.1189
14242TIP3    H264218   0.638   3.001  13.401 -0.9756  0.8452  0.4076
14243TIP3   OH264219   5.107   2.596   6.018 -0.4482 -0.7877 -0.3087
14243TIP3    H164220   5.059   2.564   6.094  0.0119 -0.7840 -0.0089
14243TIP3    H264221   5.151   2.675   6.050  1.4146 -1.9312  0.0240
14244TIP3   OH264222   5.686   4.883   6.237  0.3568  0.1582  0.4260
14244TIP3    H164223   5.749   4.954   6.246  0.0092  0.4799  0.3603
14244TIP3    H264224   5.610   4.913   6.287  0.2937 -0.2693  0.5887
14245TIP3   OH264225   0.870   3.508  16.628  0.5315 -0.0943 -0.2380
14245TIP3    H164226   0.938   3.513  16.561  0.6370 -0.2394 -0.1409
14245TIP3    H264227   0.867   3.416  16.653 -1.4032 -0.5524 -2.0087
14246TIP3   OH264228   0.044   3.838   1.242 -0.0514 -0.1203 -0.3530
14246TIP3    H164229   0.124   3.874   1.203 -0.6115 -0.5510 -1.9063
14246TIP3    H264230   0.064   3.745   1.255 -0.3391 -0.2492 -0.8387
14247TIP3   OH264231   1.825   0.442  10.709  0.4575 -0.8182  0.3901
14247TIP3    H164232   1.737   0.475  10.692  1.4782  0.6065 -2.5519
14247TIP3    H264233   1.818   0.348  10.699 -0.6746 -0.6887 -0.1163
14248TIP3   OH264234   1.885   4.948  12.222  0.0091 -0.0055 -0.3635
14248TIP3    H164235   1.937   5.028  12.231  0.4338 -0.4544  1.3479
14248TIP3    H264236   1.945   4.885  12.182  0.1848  0.0528 -0.1946
14249TIP3   OH264237   5.112   3.156  16.998 -0.4881 -0.7296 -0.5014
14249TIP3    H164238   5.055   3.224  16.962 -0.6289 -1.0238 -0.8221
14249TIP3    H264239   5.083   3.075  16.957 -0.3904 -1.0046 -0.0279
14250TIP3   OH264240   3.372   3.575  15.097  0.1895 -0.0648  0.0110
14250TIP3    H164241   3.403   3.662  15.072  0.4035 -0.3278 -0.6371
14250TIP3    H264242   3.301   3.592  15.159  2.1268  0.5254  2.1155
14251TIP3   OH264243   0.178   6.725  12.329  0.0529 -0.0648  0.2330
14251TIP3    H164244   0.209   6.776  12.254 -0.0019 -0.5900 -0.1470
14251TIP3    H264245   0.132   6.789  12.383 -1.3131  0.0284 -0.9814
14252TIP3   OH264246   6.406   4.573  15.351 -0.1194  0.3002 -0.3477
14252TIP3    H164247   6.471   4.623  15.402 -2.0719  2.2010  0.3647
14252TIP3    H264248   6.381   4.502  15.409  0.3331  0.3471 -0.0871
14253TIP3   OH264249   3.260   1.142   5.121  0.1289  0.6930  0.0813
14253TIP3    H164250   3.219   1.212   5.173  0.5676  1.0002  0.0079
14253TIP3    H264251   3.298   1.186   5.046 -1.9337  0.0533 -1.3837
14254TIP3   OH264252   3.279   5.935   0.708 -0.1058 -0.0835  0.6228
14254TIP3    H164253   3.294   5.862   0.648  2.4474  0.6257  0.3402
14254TIP3    H264254   3.304   6.013   0.658 -1.7650  0.8844  1.2749
14255TIP3   OH264255   0.867   3.481   1.319  0.4727  0.6165  0.4165
14255TIP3    H164256   0.795   3.418   1.326  2.0559 -1.2509  0.0514
14255TIP3    H264257   0.866   3.509   1.228 -0.3825  1.3189  0.6346
14256TIP3   OH264258   0.435   3.533  11.408  0.1036 -0.1812  1.1664
14256TIP3    H164259   0.418   3.443  11.438 -1.5019 -0.3972 -0.3142
14256TIP3    H264260   0.529   3.545  11.423  0.6898 -2.6900 -0.0312
14257TIP3   OH264261   2.851   5.325   3.191  0.4992 -0.2675  0.2642
14257TIP3    H164262   2.891   5.396   3.241  1.4323 -0.7300  0.1736
14257TIP3    H264263   2.840   5.362   3.103 -2.4287  1.0362  1.0826
14258TIP3   OH264264   5.560   0.933   5.914 -0.0244 -0.2797 -0.0531
14258TIP3    H164265   5.486   0.874   5.898  0.4439 -0.6088 -1.0242
14258TIP3    H264266   5.634   0.874   5.929  0.0414  0.0504  0.9241
14259TIP3   OH264267   6.725   2.778  13.623  0.2654 -0.0028 -0.6044
14259TIP3    H164268   6.814   2.763  13.654  0.7030  1.1672 -1.2611
14259TIP3    H264269   6.688   2.691  13.611  0.1678 -0.5450  2.9453
14260TIP3   OH264270   5.206   2.915  11.211  0.0768  0.1408 -0.1973
14260TIP3    H164271   5.279   2.963  11.250  0.2889 -0.0860 -0.3182
14260TIP3    H264272   5.157   2.982  11.163 -0.8728  0.6702  1.4279
14261TIP3   OH264273   0.880   1.243   1.869 -0.0888 -0.3165 -0.5790
14261TIP3    H164274   0.837   1.225   1.953  0.5709 -1.3268 -0.4537
14261TIP3    H264275   0.973   1.230   1.886  0.1733  0.7915 -1.1364
14262TIP3   OH264276   2.653   5.384  14.746  1.3578  0.4926 -0.2787
14262TIP3    H164277   2.687   5.294  14.748  1.2593  0.4753  0.7589
14262TIP3    H264278   2.703   5.429  14.814  2.4330  1.6033 -1.7706
14263TIP3   OH264279   2.916   4.044  12.002 -0.4558  0.4997  0.4368
14263TIP3    H164280   2.849   3.982  11.975  0.9415 -0.6600 -0.4780
14263TIP3    H264281   2.998   3.995  11.995  0.6746  2.4376 -0.2608
14264TIP3   OH264282   6.223   2.745  13.588  0.2484  0.0307 -0.0736
14264TIP3    H164283   6.214   2.834  13.553  2.0290  0.1992 -0.1469
14264TIP3    H264284   6.277   2.700  13.524 -0.5002 -1.0576  0.0608
14265TIP3   OH264285   2.745   0.542  11.951 -0.2797  0.2411 -0.3061
14265TIP3    H164286   2.655   0.564  11.927 -0.2333  0.4948 -0.2491
14265TIP3    H264287   2.736   0.479  12.023 -0.4392 -1.6946 -1.9578
14266TIP3   OH264288   2.712   5.498  16.625 -0.4572  0.0959 -0.4605
14266TIP3    H164289   2.707   5.472  16.718  1.5844 -3.3834 -1.2285
14266TIP3    H264290   2.784   5.560  16.621 -1.3914  1.2718  0.4573
14267TIP3   OH264291   1.800   0.896   1.972  0.2300 -0.3235 -0.0333
14267TIP3    H164292   1.772   0.926   2.058 -1.6407 -0.0391 -0.7270
14267TIP3    H264293   1.810   0.801   1.982 -2.7435 -0.6820 -0.2190
14268TIP3   OH264294   3.137   0.949  17.033 -0.1006  0.7909  0.3586
14268TIP3    H164295   3.185   0.984  17.109  0.8074  0.1418  0.0981
14268TIP3    H264296   3.181   0.987  16.957  1.7476 -1.8714  0.0194
14269TIP3   OH264297   0.594   2.987  10.703  0.3927  0.0632  0.6916
14269TIP3    H164298   0.574   3.005  10.612 -1.9640 -1.0696  0.9409
14269TIP3    H264299   0.515   3.011  10.751  0.4881 -2.1228  2.0587
14270TIP3   OH264300   2.530   1.026   0.411 -0.1965 -0.0975 -0.9529
14270TIP3    H164301   2.543   1.006   0.504 -0.1391  1.0033 -0.7091
14270TIP3    H264302   2.601   1.088   0.391 -1.4080  1.2396 -1.1926
14271TIP3   OH264303   4.093   3.221  14.477 -0.3838 -0.2515 -0.1967
14271TIP3    H164304   4.125   3.183  14.558 -1.1184 -1.1433 -0.3170
14271TIP3    H264305   4.008   3.178  14.462 -0.0891 -0.3653 -1.6094
14272TIP3   OH264306   4.800   2.109  16.046  0.1500  0.5985 -0.3102
14272TIP3    H164307   4.729   2.101  16.109  0.6006  1.0290  0.2628
14272TIP3    H264308   4.792   2.032  15.990 -0.3198  0.2720  0.2044
14273TIP3   OH264309   4.294   3.499  12.378  0.4739 -0.7623 -0.8101
14273TIP3    H164310   4.387   3.498  12.354 -0.1360  0.0387 -3.3359
14273TIP3    H264311   4.285   3.576  12.435  1.4275 -1.1517 -0.1078
14274TIP3   OH264312   4.687   6.481  15.640 -0.5000  0.1397  0.4847
14274TIP3    H164313   4.658   6.509  15.726  0.6133  0.3913  0.7839
14274TIP3    H264314   4.777   6.511  15.634  0.6547 -3.0612  0.6924
14275TIP3   OH264315   1.929   6.199  16.873  0.1657 -0.0477  0.3093
14275TIP3    H164316   1.848   6.197  16.924  0.0654 -2.1504  0.1399
14275TIP3    H264317   1.961   6.108  16.876  2.5368  0.7478  0.4103
14276TIP3   OH264318   5.142   3.548  12.152 -0.3328  0.1339 -0.6776
14276TIP3    H164319   5.076   3.557  12.221  0.0166 -3.1985  0.1602
14276TIP3    H264320   5.114   3.472  12.102  3.2732 -1.9391  0.2491
14277TIP3   OH264321   6.020   6.527   0.537  0.5146 -0.1111 -0.1903
14277TIP3    H164322   5.936   6.573   0.534  1.0137  0.8060 -0.0688
14277TIP3    H264323   6.081   6.590   0.573  1.1703 -0.9292  0.1464
14278TIP3   OH264324   1.211   6.075   2.419 -0.0518 -0.2648 -0.1706
14278TIP3    H164325   1.210   6.063   2.324 -2.1021  0.1970 -0.2307
14278TIP3    H264326   1.182   6.165   2.432  2.9895  0.6293  0.8060
14279TIP3   OH264327   5.863   3.466   2.711 -0.6760  0.2495 -0.4706
14279TIP3    H164328   5.930   3.534   2.708  0.2875 -0.6617  0.2110
14279TIP3    H264329   5.889   3.404   2.642  0.0670 -0.9006  0.8162
14280TIP3   OH264330   3.133   3.703   1.225 -0.7022  0.4453  0.2792
14280TIP3    H164331   3.185   3.774   1.263  1.1431 -0.2323 -0.9369
14280TIP3    H264332   3.168   3.623   1.265  1.9691 -0.3770 -3.4965
14281TIP3   OH264333   5.805   6.045  14.388  0.5968 -0.3493  0.0408
14281TIP3    H164334   5.762   5.962  14.367  2.1322 -0.7673 -1.5817
14281TIP3    H264335   5.898   6.024  14.392  0.9957  1.2829 -0.3722
14282TIP3   OH264336   6.596   1.340  13.929 -0.0503 -0.4057 -0.3931
14282TIP3    H164337   6.661   1.309  13.865 -1.4277  0.9349 -2.4967
14282TIP3    H264338   6.611   1.286  14.007  3.4503 -0.2739 -0.8974
14283TIP3   OH264339   2.751   5.530  14.994  0.1158 -0.2331 -0.4779
14283TIP3    H164340   2.834   5.577  14.999  1.1967 -2.0962 -0.2685
14283TIP3    H264341   2.755   5.467  15.066 -0.7851 -1.4127 -1.4319
14284TIP3   OH264342   1.894   2.952   2.378  0.1497  0.1554 -0.9070
14284TIP3    H164343   1.911   3.001   2.297  3.3510  0.7851  0.0777
14284TIP3    H264344   1.980   2.940   2.417 -1.0308 -2.7302  0.9570
14285TIP3   OH264345   0.252   5.959  15.585  0.2259 -0.1920 -0.3810
14285TIP3    H164346   0.273   5.880  15.535 -0.0210 -1.3814  1.3615
14285TIP3    H264347   0.329   5.974  15.640  0.5830  1.2344 -1.2455
14286TIP3   OH264348   0.469   1.982   3.786  0.0736  0.2710  0.6646
14286TIP3    H164349   0.548   1.929   3.797 -0.6465 -0.3076  3.6397
14286TIP3    H264350   0.492   2.067   3.822 -0.1582  0.5872  0.0597
14287TIP3   OH264351   3.089   3.019  14.189  0.4302  0.0802 -0.0369
14287TIP3    H164352   3.174   3.014  14.146  0.1475 -0.3905 -0.5442
14287TIP3    H264353   3.028   3.039  14.118 -0.3252 -2.6389 -0.1729
14288TIP3   OH264354   2.397   2.457  11.904  0.2437  0.2695  0.9766
14288TIP3    H164355   2.457   2.512  11.854  0.9195  0.3999  1.9176
14288TIP3    H264356   2.327   2.517  11.932  0.5426  0.4795  1.2860
14289TIP3   OH264357   2.118   4.031  12.200  0.1012 -0.0792 -0.2389
14289TIP3    H164358   2.181   4.102  12.190 -1.0710  0.8787 -1.0106
14289TIP3    H264359   2.034   4.075  12.211 -0.8363 -1.3167 -2.1017
14290TIP3   OH264360   5.198   3.946   1.279 -0.2360 -0.2550  0.6154
14290TIP3    H164361   5.274   3.996   1.309  0.8797 -1.0587 -0.8303
14290TIP3    H264362   5.208   3.860   1.318 -0.3126 -0.4208  0.2707
14291TIP3   OH264363   4.818   2.302  12.350  0.2871 -0.2249 -0.4287
14291TIP3    H164364   4.874   2.380  12.351 -1.2467  0.9060  0.8716
14291TIP3    H264365   4.789   2.294  12.259  1.0290  0.2976 -0.7137
14292TIP3   OH264366   2.973   3.821  16.005 -0.5673 -0.1541  0.5985
14292TIP3    H164367   2.935   3.870  15.931 -0.0869  1.0183  1.1254
14292TIP3    H264368   2.900   3.805  16.064 -0.4506  1.2216  1.1274
14293TIP3   OH264369   3.906   4.377  14.870  0.1699  0.0155 -0.5739
14293TIP3    H164370   3.833   4.314  14.875 -1.0717  1.5023  0.4427
14293TIP3    H264371   3.965   4.351  14.941 -1.7412  1.6651  1.6963
14294TIP3   OH264372   6.036   3.216   6.270 -0.4735 -0.2741  0.3562
14294TIP3    H164373   5.948   3.220   6.307 -1.7108 -0.9212 -2.3806
14294TIP3    H264374   6.049   3.301   6.229 -1.0313 -1.1379 -1.7217
14295TIP3   OH264375   4.829   1.726  13.407  0.7014  0.2861  0.1320
14295TIP3    H164376   4.777   1.704  13.330  1.5199 -0.8380 -0.1268
14295TIP3    H264377   4.856   1.641  13.441  0.1659  0.7664  1.7936
14296TIP3   OH264378   2.264   3.023   3.613  0.1060  0.0729 -0.1974
14296TIP3    H164379   2.195   2.969   3.574  0.3312 -1.4478  1.3886
14296TIP3    H264380   2.326   3.039   3.542 -0.6700 -0.5952 -1.0366
14297TIP3   OH264381   1.244   5.736  12.289 -0.0459 -0.3132  0.0477
14297TIP3    H164382   1.197   5.789  12.353 -1.3167 -1.4122  0.0220
14297TIP3    H264383   1.209   5.648  12.299 -0.0407 -0.5665 -1.9391
14298TIP3   OH264384   5.167   4.547   0.523  0.0312 -0.2532 -0.6294
14298TIP3    H164385   5.076   4.556   0.493  0.0147  0.8300 -0.2504
14298TIP3    H264386   5.219   4.575   0.448  0.0677 -1.2331 -0.9781
14299TIP3   OH264387   2.498   1.360   0.938 -0.3929 -0.0906 -0.4695
14299TIP3    H164388   2.518   1.267   0.934  0.8711  0.1963 -1.2707
14299TIP3    H264389   2.471   1.375   1.028  1.4082 -0.8463  0.2069
14300TIP3   OH264390   3.833   1.052   0.264 -0.5567 -0.7942 -0.3506
14300TIP3    H164391   3.859   0.981   0.206  1.5585  0.7295 -1.3275
14300TIP3    H264392   3.851   1.132   0.214 -1.3736  0.4774  1.3263
14301TIP3   OH264393   0.373   6.446   0.423 -0.6860 -0.1016 -0.5451
14301TIP3    H164394   0.430   6.477   0.353 -0.9468 -0.0707 -0.7475
14301TIP3    H264395   0.432   6.422   0.494 -0.4398  0.1793 -0.6558
14302TIP3   OH264396   0.182   4.546   1.071  0.0013 -0.0136 -0.3460
14302TIP3    H164397   0.216   4.600   0.999  1.5147  0.9169  1.0318
14302TIP3    H264398   0.125   4.482   1.028  0.6002  0.7476 -2.3362
14303TIP3   OH264399   5.807   4.240  14.971 -0.0072 -0.2155 -0.4074
14303TIP3    H164400   5.852   4.270  14.892 -0.6003  1.2725 -0.1768
14303TIP3    H264401   5.796   4.146  14.957  0.9106 -0.1610 -1.5907
14304TIP3   OH264402   5.338   0.757  11.713 -0.5216 -0.3263 -0.8216
14304TIP3    H164403   5.370   0.667  11.719 -0.0921 -0.2060 -1.3078
14304TIP3    H264404   5.412   0.807  11.680 -0.4443  0.3915  0.4241
14305TIP3   OH264405   6.590   6.380   0.148 -0.0974  0.0404  0.2439
14305TIP3    H164406   6.684   6.392   0.162 -0.4533  1.6329  1.5235
14305TIP3    H264407   6.577   6.402   0.056  0.7575  0.0921  0.1291
14306TIP3   OH264408   1.187   1.307  15.289 -0.3876 -0.1786 -0.7376
14306TIP3    H164409   1.272   1.339  15.259 -1.0843  1.2052 -1.2747
14306TIP3    H264410   1.143   1.279  15.209  0.0144 -2.0693 -0.3342
14307TIP3   OH264411   2.181   4.729  12.835  0.3779 -0.1832 -0.0955
14307TIP3    H164412   2.150   4.712  12.746  1.8979 -1.2035 -0.4372
14307TIP3    H264413   2.223   4.815  12.829  0.7512 -0.3887 -0.4311
14308TIP3   OH264414   1.307   3.662  12.117 -0.0343  0.0709  0.7618
14308TIP3    H164415   1.244   3.714  12.068  0.4212  0.8699  1.0172
14308TIP3    H264416   1.368   3.629  12.051  0.3139  0.7705  0.7326
14309TIP3   OH264417   1.462   6.356  14.998 -0.5531 -0.0579  0.2437
14309TIP3    H164418   1.427   6.445  15.005 -1.7203 -0.5132  0.2604
14309TIP3    H264419   1.552   6.363  15.028 -0.2218  1.3874 -1.0623
14310TIP3   OH264420   1.473   2.223   1.844 -0.2461  0.0445 -0.1624
14310TIP3    H164421   1.489   2.181   1.928  1.7599  0.3878 -0.3338
14310TIP3    H264422   1.421   2.160   1.794  0.5069 -1.1321  0.5218
14311TIP3   OH264423   1.067   1.522  11.515  0.1231  0.5732 -0.8321
14311TIP3    H164424   1.160   1.497  11.514  0.3150  1.3081 -1.4420
14311TIP3    H264425   1.030   1.470  11.587  0.5860 -1.2503 -1.8628
14312TIP3   OH264426   2.700   5.247   5.382 -0.2768 -0.8750 -0.3360
14312TIP3    H164427   2.781   5.222   5.337  1.2224  1.0343  1.2029
14312TIP3    H264428   2.673   5.168   5.429  1.0553 -1.3465 -0.3395
14313TIP3   OH264429   5.434   0.439   4.307  0.0213 -0.0917  0.3214
14313TIP3    H164430   5.472   0.484   4.383 -2.5084 -0.6305  1.9545
14313TIP3    H264431   5.421   0.509   4.243 -0.9874  1.0040  1.6839
14314TIP3   OH264432   5.485   0.742   3.344 -0.0109 -0.3057  0.2255
14314TIP3    H164433   5.430   0.664   3.345  1.4624 -1.3532  1.6585
14314TIP3    H264434   5.445   0.800   3.409 -1.1222  0.1849 -0.8617
14315TIP3   OH264435   3.255   2.909  11.793  0.4265 -0.0771 -0.0927
14315TIP3    H164436   3.189   2.956  11.743 -0.2320  0.7034  1.4714
14315TIP3    H264437   3.311   2.978  11.829 -0.3440 -0.4683  1.9334
14316TIP3   OH264438   4.916   6.047   2.631  0.7439  0.0878 -0.5151
14316TIP3    H164439   4.957   5.995   2.562 -1.6245 -0.2353 -1.7008
14316TIP3    H264440   4.877   5.983   2.690 -0.8350  0.4783 -1.1320
14317TIP3   OH264441   5.948   6.434   2.333 -0.5504 -0.0166 -0.1359
14317TIP3    H164442   5.873   6.381   2.361 -1.1533 -0.1194 -1.9070
14317TIP3    H264443   6.022   6.398   2.381 -0.9169 -2.6247 -1.4547
14318TIP3   OH264444   1.489   2.444  16.054 -0.3071  0.3237  0.0258
14318TIP3    H164445   1.538   2.376  16.007 -0.3203 -1.0095  1.8796
14318TIP3    H264446   1.526   2.526  16.023  3.3803 -0.6510  1.5939
14319TIP3   OH264447   3.333   4.037   0.573  0.2257  0.1661 -0.5571
14319TIP3    H164448   3.361   4.126   0.594 -0.6046  0.1255  0.8410
14319TIP3    H264449   3.241   4.034   0.599 -0.2512 -0.5839 -2.2495
14320TIP3   OH264450   0.515   0.166  11.724 -0.0412  0.0611 -0.2611
14320TIP3    H164451   0.452   0.094  11.713  1.6237 -1.5611  0.5173
14320TIP3    H264452   0.503   0.220  11.646 -2.2381 -0.3354 -0.2415
14321TIP3   OH264453   6.648   2.630  11.276  0.6122 -0.1202  0.3268
14321TIP3    H164454   6.628   2.537  11.276  0.6470 -0.1272 -0.2936
14321TIP3    H264455   6.638   2.657  11.185  1.2042  0.3535  0.3961
14322TIP3   OH264456   4.940   2.593  15.016 -0.3714 -0.0673 -0.4051
14322TIP3    H164457   5.011   2.544  14.975 -1.4164 -0.6231 -1.5768
14322TIP3    H264458   4.982   2.674  15.046  1.0612 -1.0344  0.2535
14323TIP3   OH264459   3.226   5.902  14.338  0.2505  0.4466  0.0460
14323TIP3    H164460   3.134   5.896  14.364 -0.5980  0.3266 -2.8540
14323TIP3    H264461   3.243   5.821  14.289  1.8206  0.6135  0.2785
14324TIP3   OH264462   5.822   6.436  12.421 -0.1979  0.2954  0.3246
14324TIP3    H164463   5.866   6.428  12.506 -1.3509  0.2466  0.9308
14324TIP3    H264464   5.893   6.451  12.358  0.5764  1.3542  1.4317
14325TIP3   OH264465   1.529   6.431  15.391  0.1880 -0.6732 -0.3835
14325TIP3    H164466   1.548   6.468  15.477  1.6629 -1.1413 -0.4918
14325TIP3    H264467   1.435   6.446  15.378  0.3290  1.0983  0.4865
14326TIP3   OH264468   4.694   0.750   5.911 -0.6735 -0.1188  0.0365
14326TIP3    H164469   4.750   0.773   5.837 -0.9673  1.2227  0.2149
14326TIP3    H264470   4.662   0.662   5.891 -0.6342  0.1820 -1.3560
14327TIP3   OH264471   1.907   6.473   5.395 -0.6847 -0.6087  0.4400
14327TIP3    H164472   1.815   6.450   5.406 -0.7261 -0.0683  1.2101
14327TIP3    H264473   1.952   6.388   5.389 -1.0401 -0.8863  1.6323
14328TIP3   OH264474   4.618   2.235  13.106 -0.1644 -0.1313 -0.3223
14328TIP3    H164475   4.602   2.178  13.031  0.4540  0.2536 -0.7380
14328TIP3    H264476   4.586   2.321  13.079 -1.0968 -0.2672  0.3055
14329TIP3   OH264477   2.568   1.638  12.183 -0.4370 -0.3454  0.1562
14329TIP3    H164478   2.600   1.710  12.237 -0.7858 -0.3867  0.4196
14329TIP3    H264479   2.561   1.564  12.244 -0.7649 -0.4126  0.0368
14330TIP3   OH264480   0.832   6.505  16.111  0.2497 -0.1603  0.0017
14330TIP3    H164481   0.751   6.478  16.155 -1.3525 -0.4963 -3.0497
14330TIP3    H264482   0.859   6.584  16.158 -2.1719  0.3076  0.6977
14331TIP3   OH264483   0.473   2.888   5.747 -0.0562  0.1506 -0.2264
14331TIP3    H164484   0.492   2.972   5.788  0.3704  0.0194 -0.1471
14331TIP3    H264485   0.451   2.909   5.656 -0.2901  0.3772 -0.1182
14332TIP3   OH264486   4.534   4.418   1.107 -0.4112  0.2949  0.8265
14332TIP3    H164487   4.556   4.417   1.014 -0.0600 -0.6509  0.9188
14332TIP3    H264488   4.462   4.356   1.115 -0.5055  0.4499  1.1738
14333TIP3   OH264489   5.309   6.286   1.531 -0.3586 -0.4764 -0.3194
14333TIP3    H164490   5.226   6.238   1.528 -1.6717  1.6424  0.8007
14333TIP3    H264491   5.284   6.376   1.552  2.3966 -0.2173  2.2127
14334TIP3   OH264492   5.059   1.932  16.379  0.2931  0.2111  0.4509
14334TIP3    H164493   4.969   1.950  16.407 -0.1251 -0.4884 -0.4074
14334TIP3    H264494   5.102   2.017  16.379 -0.9637  0.8792 -1.1820
14335TIP3   OH264495   2.604   4.802  12.289  0.4418 -0.2677 -0.6596
14335TIP3    H164496   2.668   4.789  12.219 -0.6909 -0.2560 -1.7234
14335TIP3    H264497   2.545   4.869  12.255 -0.2246 -0.3845  0.2502
14336TIP3   OH264498   0.194   0.378   2.008  0.2084 -0.2227 -0.1537
14336TIP3    H164499   0.207   0.331   2.090 -0.1597 -2.4793 -1.3513
14336TIP3    H264500   0.103   0.408   2.012 -0.0191 -0.9163 -0.0094
14337TIP3   OH264501   6.798   2.866   3.926  0.0599  0.0593 -0.0333
14337TIP3    H164502   6.861   2.935   3.905 -1.3280  1.1715 -0.6139
14337TIP3    H264503   6.760   2.893   4.009  1.6442 -1.5642  1.2598
14338TIP3   OH264504   4.925   6.271  16.326 -0.8842 -0.0273 -0.4422
14338TIP3    H164505   4.947   6.185  16.362 -2.1362 -1.4094 -2.8137
14338TIP3    H264506   4.892   6.321  16.400  2.2984 -0.6792  1.5149
14339TIP3   OH264507   6.155   5.451  12.438 -0.1341 -0.4355  0.0954
14339TIP3    H164508   6.171   5.434  12.531  0.6561  1.7720  0.3764
14339TIP3    H264509   6.071   5.408  12.420 -0.1509 -1.1307  1.7483
14340TIP3   OH264510   5.908   2.905  12.048  0.1010 -0.4646 -0.6268
14340TIP3    H164511   5.903   2.890  12.143 -1.7379 -1.0807 -0.7904
14340TIP3    H264512   5.817   2.900  12.019  0.4605  1.6042 -2.1610
14341TIP3   OH264513   5.543   1.405   1.977  0.0823 -0.2081 -0.0545
14341TIP3    H164514   5.623   1.368   1.941  0.4913  2.7369 -2.2633
14341TIP3    H264515   5.475   1.342   1.953  1.3443 -1.5424 -0.1960
14342TIP3   OH264516   2.519   0.346  15.649 -0.0005  0.2639 -0.4202
14342TIP3    H164517   2.588   0.408  15.673  0.2346 -0.1717  0.0298
14342TIP3    H264518   2.526   0.338  15.553  2.6297 -2.1380 -0.0963
14343TIP3   OH264519   4.354   3.437   4.635 -0.7954 -0.2897  0.4073
14343TIP3    H164520   4.420   3.485   4.584 -2.1992  0.4166 -0.7755
14343TIP3    H264521   4.317   3.502   4.694 -1.5621 -0.2767 -0.0708
14344TIP3   OH264522   1.930   3.892   2.877 -0.5401 -0.3299 -0.3999
14344TIP3    H164523   1.932   3.866   2.785  1.6864  2.2173 -1.1406
14344TIP3    H264524   2.020   3.878   2.907 -1.2803 -1.2296  1.4297
14345TIP3   OH264525   0.391   0.087   3.113  0.4936 -0.1253  0.3954
14345TIP3    H164526   0.454   0.066   3.182  0.3085 -1.3028  0.2159
14345TIP3    H264527   0.444   0.091   3.033 -0.0165 -3.6511 -0.1630
14346TIP3   OH264528   4.438   1.458   0.069 -0.1975  0.1329 -0.3634
14346TIP3    H164529   4.489   1.536   0.048  0.1055  0.0309  0.0066
14346TIP3    H264530   4.487   1.386   0.030 -1.4170  0.3108 -2.3150
14347TIP3   OH264531   5.931   4.464   0.990 -0.6909 -0.0581 -0.1265
14347TIP3    H164532   6.002   4.479   0.927 -0.4328 -2.2700 -0.3790
14347TIP3    H264533   5.949   4.525   1.061  2.1484 -1.4223  0.3770
14348TIP3   OH264534   5.120   2.497   1.278  0.3576  0.0002 -0.2112
14348TIP3    H164535   5.193   2.444   1.247 -0.4200 -1.1577 -0.0720
14348TIP3    H264536   5.045   2.468   1.226 -0.1314  0.7904  0.0368
14349TIP3   OH264537   0.721   5.777   2.539  0.0963 -0.2151  0.0979
14349TIP3    H164538   0.670   5.735   2.470  0.7656 -0.5158 -0.2133
14349TIP3    H264539   0.658   5.833   2.585  0.5009  3.1025 -3.2245
14350TIP3   OH264540   5.357   2.174  13.364  0.8115  0.0550  0.5691
14350TIP3    H164541   5.301   2.237  13.408 -0.1755  0.1538 -0.8159
14350TIP3    H264542   5.442   2.218  13.358  0.4147  0.8305  0.5737
14351TIP3   OH264543   1.336   5.258  13.309 -0.7737 -0.5369 -0.0721
14351TIP3    H164544   1.390   5.299  13.241  0.4276 -1.0436  0.5676
14351TIP3    H264545   1.257   5.313  13.314  0.7046  1.5596  0.5872
14352TIP3   OH264546   2.035   6.203  13.853  0.2873 -0.4425 -0.1395
14352TIP3    H164547   1.979   6.236  13.783 -1.1309 -0.4154  0.9842
14352TIP3    H264548   1.974   6.163  13.916  1.5864 -1.0536  0.7580
14353TIP3   OH264549   2.962   2.127  11.232 -0.1508  0.2238 -0.5507
14353TIP3    H164550   3.028   2.129  11.163  0.3219 -0.5497 -0.1405
14353TIP3    H264551   3.002   2.074  11.302 -0.5542  1.1134  0.3749
14354TIP3   OH264552   5.814   2.600  11.972  0.9864 -0.0106 -0.4908
14354TIP3    H164553   5.770   2.686  11.975  0.3071 -0.3079 -1.6432
14354TIP3    H264554   5.870   2.600  12.050 -3.7946 -1.0997  3.2146
14355TIP3   OH264555   1.545   3.308   1.270 -0.3007  1.0469 -0.5413
14355TIP3    H164556   1.641   3.313   1.279 -0.4894 -0.4002  3.3820
14355TIP3    H264557   1.516   3.398   1.285  0.3985  1.3505 -0.9461
14356TIP3   OH264558   1.457   5.548  13.336 -0.0333 -0.3042  0.1255
14356TIP3    H164559   1.457   5.486  13.409 -0.6941  2.7045  2.7817
14356TIP3    H264560   1.364   5.566  13.321  0.0987 -0.9168 -1.5115
14357TIP3   OH264561   0.955   4.405  13.214 -0.4087 -0.5452  0.1975
14357TIP3    H164562   0.963   4.406  13.310  1.9549  1.2809  0.0295
14357TIP3    H264563   0.922   4.492  13.192  1.7919  0.0810 -0.7960
14358TIP3   OH264564   5.593   5.374   4.194 -0.1816  0.1819 -0.2633
14358TIP3    H164565   5.520   5.421   4.235 -0.7619 -2.5207  1.9609
14358TIP3    H264566   5.560   5.352   4.107 -0.5684  2.2739 -0.6709
14359TIP3   OH264567   3.428   4.997   0.665 -0.4994  0.3830 -0.0247
14359TIP3    H164568   3.372   4.929   0.703 -1.8313  0.4331 -1.8183
14359TIP3    H264569   3.387   5.079   0.690 -1.3446  0.4180 -1.4202
14360TIP3   OH264570   4.083   4.646   0.178  0.0060  0.2264  0.2734
14360TIP3    H164571   4.024   4.711   0.142 -1.4939 -0.6510  1.0991
14360TIP3    H264572   4.064   4.566   0.128 -0.5510 -0.4286  1.5071
14361TIP3   OH264573   1.750   1.338  13.050  0.2220  0.5345 -0.0499
14361TIP3    H164574   1.812   1.401  13.086  3.3379 -0.4243 -3.4244
14361TIP3    H264575   1.732   1.370  12.962  1.1548 -2.7301 -1.5047
14362TIP3   OH264576   2.713   4.765  11.292  0.2278  0.2323 -0.4018
14362TIP3    H164577   2.701   4.859  11.300  0.2175  0.2166 -0.2289
14362TIP3    H264578   2.724   4.734  11.382 -1.1349 -0.1141 -0.3415
14363TIP3   OH264579   5.089   1.097   5.850  0.1920  0.5372 -0.1452
14363TIP3    H164580   4.998   1.107   5.823  0.1163 -0.0411 -0.1079
14363TIP3    H264581   5.085   1.048   5.932  0.5936 -0.5273 -0.7485
14364TIP3   OH264582   4.886   6.362  15.243 -0.0753  0.7722 -0.3874
14364TIP3    H164583   4.818   6.298  15.266  0.1381  0.8006  0.3189
14364TIP3    H264584   4.854   6.403  15.163 -1.6366  1.8927  0.8021
14365TIP3   OH264585   3.089   4.882  11.865  0.0316  0.3074  0.2523
14365TIP3    H164586   3.183   4.897  11.855  0.1465  0.1277  1.0163
14365TIP3    H264587   3.083   4.799  11.913 -0.5476 -0.8030 -1.6854
14366TIP3   OH264588   6.701   2.625  12.984 -0.4943  0.0685 -0.5881
14366TIP3    H164589   6.792   2.602  12.968 -0.3716  0.5125 -0.5456
14366TIP3    H264590   6.698   2.720  12.972 -0.9959  0.0273 -0.8003
14367TIP3   OH264591   5.704   6.337  16.998  0.2782 -0.0419 -0.2097
14367TIP3    H164592   5.736   6.362  17.085  1.4256 -2.5273  0.1168
14367TIP3    H264593   5.778   6.350  16.940  0.8743 -2.5017 -0.0504
14368TIP3   OH264594   1.796   6.807  13.904 -0.5030  0.0757 -0.1970
14368TIP3    H164595   1.749   6.799  13.821 -3.1191  2.4965  0.9824
14368TIP3    H264596   1.865   6.871  13.887  1.8663 -2.6935 -1.6289
14369TIP3   OH264597   0.107   5.369  17.177  0.4180 -0.2913 -0.2513
14369TIP3    H164598   0.200   5.387  17.185  0.1975  0.4206  0.8576
14369TIP3    H264599   0.071   5.387  17.264 -0.5093 -2.0563 -0.2351
14370TIP3   OH264600   5.517   6.592  16.614  0.3116 -0.2810  0.4162
14370TIP3    H164601   5.540   6.612  16.704  0.9504 -0.4790  0.3021
14370TIP3    H264602   5.521   6.496  16.609  0.1983 -0.2750  0.1977
14371TIP3   OH264603   3.325   1.961  14.819 -0.0242 -0.0719 -0.5182
14371TIP3    H164604   3.336   2.029  14.752  0.5076 -0.2183 -0.5845
14371TIP3    H264605   3.403   1.970  14.875 -0.0851 -0.4511 -0.3731
14372TIP3   OH264606   0.068   1.312   2.822 -0.6001 -0.1315  0.3304
14372TIP3    H164607   0.060   1.349   2.734 -1.4092  1.5545  1.0832
14372TIP3    H264608  -0.001   1.246   2.827  1.5193 -2.5569 -1.3852
14373TIP3   OH264609   0.126   4.037  13.551  0.2821 -0.2379  0.0183
14373TIP3    H164610   0.200   4.068  13.498 -1.2870 -0.1002 -2.1254
14373TIP3    H264611   0.089   4.117  13.589  1.1305 -0.2979  1.0185
14374TIP3   OH264612   5.820   5.865  11.797  0.4575 -0.2716 -0.2963
14374TIP3    H164613   5.838   5.924  11.870  0.8407 -0.3351 -0.3344
14374TIP3    H264614   5.907   5.837  11.768  0.2999 -0.3999 -0.6483
14375TIP3   OH264615   6.516   2.002  13.574  0.4484 -1.0939 -0.4981
14375TIP3    H164616   6.437   1.950  13.582 -0.7821  0.3147 -3.0292
14375TIP3    H264617   6.542   1.993  13.483  0.2007  2.6554 -1.0262
14376TIP3   OH264618   3.128   1.496   5.855  0.4763 -0.0708  0.0054
14376TIP3    H164619   3.167   1.582   5.838  2.3134 -0.3084  2.6660
14376TIP3    H264620   3.167   1.439   5.789  3.8694 -0.0393  1.8342
14377TIP3   OH264621   2.673   5.879   0.588  0.5372  0.4247  0.2411
14377TIP3    H164622   2.612   5.915   0.524  0.8811  1.7044  0.6110
14377TIP3    H264623   2.645   5.917   0.671  0.9322 -0.1511  0.6405
14378TIP3   OH264624   6.359   6.097   5.378  0.3478  0.1267 -0.1940
14378TIP3    H164625   6.346   6.146   5.460 -1.8987  0.1479 -0.5302
14378TIP3    H264626   6.362   6.164   5.310 -0.9581 -0.0784 -0.4617
14379TIP3   OH264627   5.838   2.263   5.517  0.4185 -0.0070 -0.1914
14379TIP3    H164628   5.810   2.351   5.542  0.3113 -0.0616 -0.1159
14379TIP3    H264629   5.917   2.276   5.465 -0.0253  0.1811 -0.8310
14380TIP3   OH264630   5.766   1.637  13.965  0.3510 -0.2415 -0.1681
14380TIP3    H164631   5.733   1.560  14.012 -0.2011  1.0633  1.6608
14380TIP3    H264632   5.746   1.620  13.873 -0.9368 -1.7020  0.3618
14381TIP3   OH264633   2.798   6.187   1.071  0.1243 -0.2489  0.2626
14381TIP3    H164634   2.711   6.221   1.094 -1.1699 -2.3372 -1.4566
14381TIP3    H264635   2.823   6.235   0.993 -0.7444 -1.6532 -0.8919
14382TIP3   OH264636   6.760   4.541   2.543  0.0970  1.0375 -0.0752
14382TIP3    H164637   6.789   4.450   2.535 -0.4726  0.9016 -0.5696
14382TIP3    H264638   6.840   4.589   2.567 -0.2678 -0.0923  3.6390
14383TIP3   OH264639   1.114   0.153  12.678  0.3389  0.4807  0.0301
14383TIP3    H164640   1.175   0.224  12.657 -0.7889  1.4978  0.1322
14383TIP3    H264641   1.027   0.194  12.675 -0.3008 -0.8120  0.4473
14384TIP3   OH264642   2.979   1.595   3.903 -0.7172 -0.0194  0.1088
14384TIP3    H164643   2.979   1.589   3.808 -0.2933  0.4214  0.0750
14384TIP3    H264644   2.962   1.506   3.934 -0.8930 -0.1527 -0.3790
14385TIP3   OH264645   2.142   5.085  16.327  0.6267 -0.5152 -0.2323
14385TIP3    H164646   2.202   5.052  16.260 -0.5895 -2.1813 -0.5102
14385TIP3    H264647   2.080   5.014  16.341 -0.9424  0.9788  0.4913
14386TIP3   OH264648   3.891   3.454  13.504  0.2508  0.2892 -0.6511
14386TIP3    H164649   3.955   3.391  13.537 -0.2351  1.1933  2.2099
14386TIP3    H264650   3.905   3.456  13.410  1.7731 -2.4250 -0.5408
14387TIP3   OH264651   1.757   4.642  13.186 -0.5231 -0.5274 -0.3671
14387TIP3    H164652   1.826   4.576  13.176 -0.0808  0.0220 -0.9601
14387TIP3    H264653   1.784   4.714  13.129 -0.1269  0.8864  1.5764
14388TIP3   OH264654   3.300   5.493  13.146 -0.0376 -0.4635  0.9229
14388TIP3    H164655   3.262   5.577  13.120  1.9380  0.3261  0.4959
14388TIP3    H264656   3.225   5.440  13.172 -1.4080  1.0991  0.2569
14389TIP3   OH264657   4.471   2.768  11.254  0.4757 -0.1025 -0.6085
14389TIP3    H164658   4.408   2.708  11.294  1.2586  0.7079  1.8894
14389TIP3    H264659   4.513   2.715  11.186 -0.5827 -1.6295 -0.1072
14390TIP3   OH264660   6.020   4.267  12.745  0.2435  0.6532  0.3959
14390TIP3    H164661   5.969   4.328  12.691 -0.6463  0.7164  1.2832
14390TIP3    H264662   5.989   4.284  12.834  0.3909 -0.7232  0.7072
14391TIP3   OH264663   1.966   5.366   3.596 -0.0631  0.2762  0.0142
14391TIP3    H164664   1.899   5.399   3.536 -1.0848 -2.0327 -0.1791
14391TIP3    H264665   1.954   5.271   3.595  2.0780 -0.0394  1.3449
14392TIP3   OH264666   1.084   2.579  13.201 -0.4664 -0.1248  0.2426
14392TIP3    H164667   1.151   2.621  13.148 -0.0863 -0.6489  0.3094
14392TIP3    H264668   1.001   2.604  13.158 -0.2174  0.2465 -0.0277
14393TIP3   OH264669   1.952   4.276  14.769  0.2093  0.0026  0.3304
14393TIP3    H164670   1.898   4.222  14.828  1.6243 -2.2279 -0.3562
14393TIP3    H264671   1.889   4.312  14.706 -0.6672 -1.5345  0.2961
14394TIP3   OH264672   5.311   1.110  12.071  0.0128  0.6697  1.0401
14394TIP3    H164673   5.398   1.078  12.093  1.0315  2.4221 -0.3342
14394TIP3    H264674   5.271   1.038  12.022  1.2834  0.4770  0.2651
14395TIP3   OH264675   2.491   5.878   0.023  0.2773 -0.0636 -0.3519
14395TIP3    H164676   2.564   5.873  -0.038  1.3143  3.3659  0.5008
14395TIP3    H264677   2.478   5.788   0.052  1.2897 -1.3996 -3.7951
14396TIP3   OH264678   6.108   0.412  12.619 -0.3643  0.3699 -0.4054
14396TIP3    H164679   6.188   0.464  12.627 -0.8908  0.9406  1.4280
14396TIP3    H264680   6.117   0.367  12.535  2.3381 -0.3344  0.2057
14397TIP3   OH264681   4.893   3.444  11.600  0.7960  0.3132 -0.2433
14397TIP3    H164682   4.810   3.449  11.552  0.6336 -1.4150 -0.1523
14397TIP3    H264683   4.896   3.525  11.650 -2.4936 -1.1111  2.4544
14398TIP3   OH264684   2.949   5.179   5.282  0.0713 -0.0377  0.4971
14398TIP3    H164685   2.965   5.230   5.203  0.5734  2.6688  2.2775
14398TIP3    H264686   3.029   5.188   5.334 -0.9065 -0.2705  2.1071
14399TIP3   OH264687   3.812   5.479   0.182  0.1145 -0.1306 -0.2519
14399TIP3    H164688   3.765   5.417   0.238 -0.2993  1.1529  0.8403
14399TIP3    H264689   3.826   5.431   0.100 -1.4982 -1.1690  0.0501
14400TIP3   OH264690   6.012   2.374   4.813  0.7648 -0.1085  0.5145
14400TIP3    H164691   6.027   2.332   4.728  0.4233 -0.6153  0.7042
14400TIP3    H264692   6.091   2.355   4.863  0.2547 -1.2667  0.8973
14401TIP3   OH264693   6.197   5.660  13.959  0.3361 -0.3700 -0.0263
14401TIP3    H164694   6.146   5.590  13.918 -0.4343 -0.4908  1.1344
14401TIP3    H264695   6.286   5.625  13.964  0.5288 -0.2017 -1.9566
14402TIP3   OH264696   4.019   4.674   3.549  0.7046  0.0763 -0.1380
14402TIP3    H164697   4.016   4.737   3.621  2.4521  1.9187 -1.6057
14402TIP3    H264698   4.072   4.602   3.584  0.9459  0.6293  0.6793
14403TIP3   OH264699   0.404   2.712  15.328  0.3778  0.4854  0.2510
14403TIP3    H164700   0.496   2.691  15.343  0.1082 -0.4316  0.6915
14403TIP3    H264701   0.402   2.751  15.241  1.0521 -0.4733 -0.2120
14404TIP3   OH264702   3.448   0.018   1.593  0.4305 -0.1190  0.1998
14404TIP3    H164703   3.484  -0.071   1.584  2.1318  0.6667 -0.9299
14404TIP3    H264704   3.354   0.007   1.579  0.5189 -1.8558  0.8369
14405TIP3   OH264705   4.068   4.797  15.140  0.4097  0.5068  0.1606
14405TIP3    H164706   4.131   4.797  15.212  0.6729 -1.2657 -0.0244
14405TIP3    H264707   4.095   4.723  15.085 -1.5404  0.0032 -0.1812
14406TIP3   OH264708   4.620   1.445   4.691  0.1577 -0.2474 -0.5794
14406TIP3    H164709   4.644   1.533   4.720 -0.3845  0.2383 -1.5789
14406TIP3    H264710   4.632   1.390   4.769  3.0733  0.2232 -0.6451
14407TIP3   OH264711   3.250   5.073  16.788 -0.5418 -0.2295  0.3161
14407TIP3    H164712   3.276   5.055  16.878  0.6364 -0.7680 -0.1218
14407TIP3    H264713   3.186   5.144  16.795  0.3000  0.4234  1.4998
14408TIP3   OH264714   3.337   4.386   2.175  0.2448  0.1928 -0.0369
14408TIP3    H164715   3.378   4.461   2.134 -1.6821  0.3986 -1.6456
14408TIP3    H264716   3.394   4.312   2.153  1.0481  0.8471 -0.1596
14409TIP3   OH264717   5.742   3.258   1.971  0.3561 -0.1809  0.4561
14409TIP3    H164718   5.673   3.196   1.994  0.3358 -0.7376 -1.0619
14409TIP3    H264719   5.817   3.204   1.949 -0.0840  0.2548 -2.2378
14410TIP3   OH264720   0.578   6.159   2.358 -0.1511 -0.0208 -0.2522
14410TIP3    H164721   0.655   6.112   2.390 -1.1023 -0.9464  0.7412
14410TIP3    H264722   0.514   6.090   2.342 -0.8905  0.7751 -0.7174
14411TIP3   OH264723   0.594   1.162   4.185  0.1295  0.3494  0.3560
14411TIP3    H164724   0.547   1.156   4.102 -0.2734  1.9298  0.4594
14411TIP3    H264725   0.679   1.122   4.167 -0.5139 -0.7217 -0.3822
14412TIP3   OH264726   2.946   0.719  13.205  0.2060  0.2139  1.1031
14412TIP3    H164727   2.999   0.647  13.238  0.4331  0.6019  1.5813
14412TIP3    H264728   2.856   0.693  13.225  0.2962  0.1236  1.3959
14413TIP3   OH264729   5.322   3.945  16.344  0.3780  0.0268  0.5671
14413TIP3    H164730   5.256   4.004  16.379 -1.9036 -2.8115  1.3098
14413TIP3    H264731   5.373   3.918  16.420  1.6081  1.2592  0.1834
14414TIP3   OH264732   5.984   1.637   3.981 -0.2180  0.1321  0.1055
14414TIP3    H164733   5.908   1.578   3.988  0.0237  0.0016  1.7447
14414TIP3    H264734   6.021   1.617   3.895  0.0220 -2.3282  0.7356
14415TIP3   OH264735   5.495   0.028  14.895 -0.2606 -0.0908 -0.5861
14415TIP3    H164736   5.576   0.000  14.851  0.6674 -1.4134  1.8436
14415TIP3    H264737   5.435  -0.046  14.883  0.0728 -0.5513  0.5299
14416TIP3   OH264738   3.016   1.480  13.874  0.6237  0.1940 -0.7322
14416TIP3    H164739   3.045   1.424  13.946 -0.1497 -0.9158 -1.2661
14416TIP3    H264740   3.094   1.529  13.848  0.9933  0.3396  0.6232
14417TIP3   OH264741   4.223   0.380   5.594  0.3125  0.3860 -0.4375
14417TIP3    H164742   4.215   0.339   5.680  2.9135  1.6257  0.4514
14417TIP3    H264743   4.142   0.431   5.584  0.9557  2.0757  2.3266
14418TIP3   OH264744   2.934   5.311  11.396  0.7250 -0.3341  0.5716
14418TIP3    H164745   2.873   5.342  11.329  1.0029 -0.5987  0.1913
14418TIP3    H264746   2.969   5.229  11.360  2.9185  0.8953 -0.1932
14419TIP3   OH264747   1.399   4.938  14.664  0.1700 -1.1073 -0.0081
14419TIP3    H164748   1.312   4.901  14.679 -0.7845  1.2596  0.5277
14419TIP3    H264749   1.388   5.032  14.680  2.4655 -0.5524 -1.4496
14420TIP3   OH264750   3.071   4.136   4.860  0.2445  0.0361  0.1362
14420TIP3    H164751   3.004   4.201   4.881 -1.2708 -1.1043 -1.0778
14420TIP3    H264752   3.112   4.168   4.780  1.2512  0.8010  0.9510
14421TIP3   OH264753   6.302   3.037   2.862 -0.2278  0.3074 -0.3578
14421TIP3    H164754   6.228   3.004   2.913 -0.5140  0.5589 -0.6062
14421TIP3    H264755   6.378   3.019   2.917 -0.4039 -0.5642 -0.4025
14422TIP3   OH264756   0.012   5.815  12.253 -0.3755 -0.1982 -0.4709
14422TIP3    H164757   0.031   5.741  12.311 -2.0930 -1.1439 -1.0716
14422TIP3    H264758  -0.082   5.809  12.237 -0.4064  1.7146 -1.1117
14423TIP3   OH264759   6.561   3.598  11.697 -0.0928 -0.6184  0.8872
14423TIP3    H164760   6.531   3.523  11.747 -0.3494 -1.1442 -0.0339
14423TIP3    H264761   6.549   3.572  11.605  1.5669 -0.1687  0.5304
14424TIP3   OH264762   0.317   3.261  15.116  0.0503  0.3970  0.2363
14424TIP3    H164763   0.236   3.222  15.085 -0.2035  1.5324 -0.5486
14424TIP3    H264764   0.348   3.315  15.043  3.3414 -2.6568 -0.8353
14425TIP3   OH264765   0.404   4.381  16.118 -0.0170  0.0699 -0.0302
14425TIP3    H164766   0.328   4.345  16.072 -1.1547  1.5759  0.6427
14425TIP3    H264767   0.472   4.387  16.050 -0.2299 -1.9950 -0.4643
14426TIP3   OH264768   0.741   5.247   0.457 -0.3846  0.1847  0.5232
14426TIP3    H164769   0.733   5.238   0.552  1.4126  0.3027  0.7077
14426TIP3    H264770   0.655   5.223   0.423 -0.5933 -1.3306  2.0843
14427TIP3   OH264771   6.486   3.138   0.460  0.4863 -0.3994  0.3199
14427TIP3    H164772   6.477   3.177   0.373  2.7785  0.9443  0.6361
14427TIP3    H264773   6.510   3.211   0.517  1.2813 -1.6496  1.6218
14428TIP3   OH264774   5.582   0.991   3.797 -0.0629  0.2828 -0.0502
14428TIP3    H164775   5.573   1.072   3.847 -0.9056  1.4607 -2.0543
14428TIP3    H264776   5.492   0.962   3.782  0.2556 -1.8422  1.8906
14429TIP3   OH264777   1.480   2.477  13.626  0.5727  0.2917 -0.1859
14429TIP3    H164778   1.541   2.415  13.666 -1.5314 -1.4031  0.4610
14429TIP3    H264779   1.487   2.460  13.532  1.5506  0.5592 -0.1706
14430TIP3   OH264780   1.556   0.752   1.288 -0.2468  0.4022  0.1761
14430TIP3    H164781   1.484   0.795   1.241 -0.8308  1.8332  2.3413
14430TIP3    H264782   1.631   0.811   1.276 -0.0781  0.1604  0.0311
14431TIP3   OH264783   6.768   3.030   0.513  0.1907 -0.8806 -0.0825
14431TIP3    H164784   6.677   3.032   0.483  0.4090 -3.4076 -1.1034
14431TIP3    H264785   6.771   2.960   0.578  1.5492 -1.3899 -0.6596
14432TIP3   OH264786   3.535   6.736   6.636  0.1374  0.5307  0.0109
14432TIP3    H164787   3.616   6.703   6.673  0.9010  2.7288  0.3696
14432TIP3    H264788   3.510   6.671   6.570  2.8139  0.3868 -0.9304
14433TIP3   OH264789   2.885   2.024   5.222  0.0835  0.3038 -0.1053
14433TIP3    H164790   2.884   1.972   5.142  0.9431  1.6043 -0.9908
14433TIP3    H264791   2.818   1.984   5.278 -0.0039 -1.0720 -1.1758
14434TIP3   OH264792   1.253   0.440   4.430 -0.1032 -0.4583  0.4445
14434TIP3    H164793   1.265   0.475   4.342  0.6652  0.4233  0.8868
14434TIP3    H264794   1.340   0.410   4.456 -0.8416 -3.3395 -0.1547
14435TIP3   OH264795   4.271   2.525  13.662  0.0857  0.1224 -0.4259
14435TIP3    H164796   4.244   2.491  13.576 -0.9920 -0.6458  0.2005
14435TIP3    H264797   4.335   2.461  13.694 -0.2785 -0.1325 -0.2095
14436TIP3   OH264798   2.427   4.392   2.612  0.1493 -0.4831  0.1185
14436TIP3    H164799   2.436   4.480   2.648  1.6183 -0.1874 -0.9401
14436TIP3    H264800   2.513   4.371   2.577 -0.6474 -1.6674 -1.1833
14437TIP3   OH264801   6.475   1.516   1.104 -0.2529  0.2242 -0.0787
14437TIP3    H164802   6.442   1.442   1.054 -1.4830  0.4998  0.3261
14437TIP3    H264803   6.562   1.533   1.066 -1.0106  0.1883 -1.8671
14438TIP3   OH264804   3.171   5.959  12.172  0.3108  0.2710 -0.2870
14438TIP3    H164805   3.138   5.870  12.160  0.8725 -0.0683  0.6436
14438TIP3    H264806   3.106   6.002  12.228  1.1712 -0.2488  1.1395
14439TIP3   OH264807   1.352   6.001  16.022 -0.8785 -0.7339  0.3164
14439TIP3    H164808   1.330   6.093  16.007 -0.2348 -0.6166  0.0949
14439TIP3    H264809   1.381   5.969  15.937 -0.2276 -0.8980  0.5975
14440TIP3   OH264810   1.978   3.142  15.661 -0.1646  0.4909 -0.2090
14440TIP3    H164811   2.016   3.103  15.583 -0.4070  0.3012 -0.2319
14440TIP3    H264812   1.904   3.194  15.629 -0.5162  0.0778 -0.0609
14441TIP3   OH264813   4.243   0.691   3.979 -0.0635  0.6851  0.1590
14441TIP3    H164814   4.290   0.609   3.963  1.1256  1.5386 -0.7838
14441TIP3    H264815   4.230   0.694   4.073 -1.4553 -1.3114  0.0618
14442TIP3   OH264816   3.007   2.442  11.448  0.0783  0.3331  0.8407
14442TIP3    H164817   2.954   2.476  11.376 -2.0724 -0.6889  1.8834
14442TIP3    H264818   3.095   2.436  11.412 -1.2078 -1.5994 -2.2164
14443TIP3   OH264819   4.445   1.874   1.364 -0.7622 -0.0830 -0.1072
14443TIP3    H164820   4.541   1.876   1.369 -0.6748 -0.3776 -1.4289
14443TIP3    H264821   4.416   1.912   1.447  0.4968 -0.4276  0.5158
14444TIP3   OH264822   5.573   6.055   4.743 -0.1832 -0.0516 -0.0522
14444TIP3    H164823   5.613   6.133   4.703  0.2030  0.0369  0.4966
14444TIP3    H264824   5.640   5.987   4.735 -0.5279 -0.3298 -0.5476
14445TIP3   OH264825   2.508   1.338   3.934  0.3084 -0.1335 -0.2573
14445TIP3    H164826   2.556   1.397   3.993 -0.0442 -0.0337 -0.0699
14445TIP3    H264827   2.444   1.295   3.991 -1.1754  1.1972 -0.8696
14446TIP3   OH264828   0.313   0.235  14.679 -0.1725 -0.2675  1.2444
14446TIP3    H164829   0.359   0.228  14.596  0.2769  0.3603  1.4373
14446TIP3    H264830   0.221   0.223  14.657 -0.0723  0.0683  0.6274
14447TIP3   OH264831   1.675   1.619   3.565  0.5404 -0.0965  0.2232
14447TIP3    H164832   1.767   1.594   3.577  0.0807 -1.2730  1.4849
14447TIP3    H264833   1.629   1.575   3.637 -0.9595  0.7628 -0.1960
14448TIP3   OH264834   4.606   1.543   5.738  0.0348  0.1824 -0.2939
14448TIP3    H164835   4.646   1.539   5.651  1.9954 -0.7430  0.6043
14448TIP3    H264836   4.520   1.503   5.727 -1.2849  3.4165 -2.5818
14449TIP3   OH264837   2.036   4.136   4.412 -1.1492  0.3508  0.3820
14449TIP3    H164838   2.121   4.111   4.447 -1.5863 -3.4074 -1.0218
14449TIP3    H264839   1.974   4.081   4.460 -2.4162  0.3721 -1.1934
14450TIP3   OH264840   6.103   0.422   0.106 -0.6424  0.1252 -0.1289
14450TIP3    H164841   6.088   0.478   0.030  0.8592  0.0181 -0.5236
14450TIP3    H264842   6.152   0.477   0.167 -0.6085 -0.2320  0.1669
14451TIP3   OH264843   2.058   1.090  14.755 -0.6833 -0.3161 -0.1212
14451TIP3    H164844   2.107   1.171  14.745  0.2422 -0.7842  0.5546
14451TIP3    H264845   2.013   1.099  14.839  0.9045 -1.2651  0.8501
14452TIP3   OH264846   0.685   1.569  12.086 -0.2205  0.4612  0.4614
14452TIP3    H164847   0.605   1.518  12.072  0.1627  0.3353 -1.3968
14452TIP3    H264848   0.706   1.605  12.000  0.1912  2.7954  1.5009
14453TIP3   OH264849   0.943   6.675  12.236 -0.2881 -0.5841 -0.1234
14453TIP3    H164850   0.873   6.635  12.184 -0.0753 -1.6170  0.3810
14453TIP3    H264851   0.969   6.607  12.298  2.6599 -0.9768 -1.7113
14454TIP3   OH264852   4.628   5.628  16.119 -0.1574 -0.1124 -0.1369
14454TIP3    H164853   4.609   5.680  16.197  0.0762  1.5247 -1.1402
14454TIP3    H264854   4.717   5.596  16.133 -0.2053 -0.0368  0.3667
14455TIP3   OH264855   5.825   4.908   0.938 -0.4047  0.1111  0.2708
14455TIP3    H164856   5.911   4.878   0.969  0.4312  0.7969 -1.3434
14455TIP3    H264857   5.839   4.929   0.846 -2.0827  1.1417  0.2416
14456TIP3   OH264858   3.305   6.020  12.951  0.2940 -0.4923  0.4455
14456TIP3    H164859   3.377   6.057  12.899 -0.5176 -0.0735 -0.3868
14456TIP3    H264860   3.226   6.038  12.900 -0.4347 -0.7572  1.4607
14457TIP3   OH264861   1.154   6.580   1.700  0.7333  0.1650  0.1413
14457TIP3    H164862   1.215   6.647   1.731  0.0963  0.7261  0.1829
14457TIP3    H264863   1.091   6.570   1.771 -1.4928  2.3856 -1.4214
14458TIP3   OH264864   2.711   4.662   4.426 -0.2427 -0.1593 -0.0558
14458TIP3    H164865   2.721   4.722   4.501  1.9767  0.8816 -1.1367
14458TIP3    H264866   2.632   4.693   4.382 -0.0579  0.9357  0.3452
14459TIP3   OH264867   6.531   1.073   2.263  0.0605  0.0651  1.1143
14459TIP3    H164868   6.512   0.990   2.219  0.9335  0.1176  0.6368
14459TIP3    H264869   6.552   1.133   2.192  1.0722  0.2577  1.5670
14460TIP3   OH264870   1.434   0.683   4.655  0.0489 -0.1174 -0.0119
14460TIP3    H164871   1.372   0.751   4.629  0.0721 -0.1514 -0.1577
14460TIP3    H264872   1.407   0.606   4.604 -0.0035 -0.2285  0.1824
14461TIP3   OH264873   2.964   3.161  14.984  0.6558 -0.1954  0.2196
14461TIP3    H164874   3.049   3.138  14.945 -0.1725  0.6732 -2.1570
14461TIP3    H264875   2.930   3.078  15.017  0.6113 -1.3008 -2.4772
14462TIP3   OH264876   3.176   0.238   3.696  0.5141 -0.0299  0.2611
14462TIP3    H164877   3.115   0.310   3.680 -0.2058 -1.0658 -1.9703
14462TIP3    H264878   3.137   0.164   3.648  3.4551 -0.7497 -1.1107
14463TIP3   OH264879   6.386   2.144   4.624  1.0305  0.9353 -0.3403
14463TIP3    H164880   6.401   2.232   4.657 -2.6099  0.3598  3.1265
14463TIP3    H264881   6.304   2.150   4.575 -0.3408 -0.8906  1.6596
14464TIP3   OH264882   5.933   4.822  12.563  0.3852 -0.1282 -0.7694
14464TIP3    H164883   5.897   4.761  12.628 -0.0370  0.5390 -0.3695
14464TIP3    H264884   6.018   4.848  12.599  1.0599 -1.3029 -1.4635
14465TIP3   OH264885   1.000   3.808   5.929  0.4797 -0.1607 -0.3452
14465TIP3    H164886   0.907   3.821   5.947  0.4361  0.7320 -1.2165
14465TIP3    H264887   1.002   3.738   5.864  0.3926  0.2686 -0.8058
14466TIP3   OH264888   2.872   0.900   5.810 -0.6363 -0.6770 -0.4005
14466TIP3    H164889   2.798   0.897   5.869 -0.5346  1.0071 -0.1548
14466TIP3    H264890   2.870   0.817   5.763 -0.5177 -2.1716  2.1850
14467TIP3   OH264891   1.040   2.001  14.854 -0.4444 -0.2287 -0.7103
14467TIP3    H164892   0.960   1.992  14.802 -1.1801  0.3695  0.2921
14467TIP3    H264893   1.017   1.963  14.939  1.5757 -3.6643 -1.5912
14468TIP3   OH264894   1.796   6.034  12.976 -0.0832  0.4237  0.7345
14468TIP3    H164895   1.702   6.043  12.988 -0.4176 -1.3093 -0.3707
14468TIP3    H264896   1.813   6.073  12.890 -0.2266 -1.5552 -0.2330
14469TIP3   OH264897   3.125   1.251  15.005 -0.4789  0.1047  0.2072
14469TIP3    H164898   3.095   1.325  15.057  2.7633  0.9557  0.9389
14469TIP3    H264899   3.160   1.189  15.068  2.4229  0.6417 -0.8085
14470TIP3   OH264900   5.619   0.726  15.242  0.1619 -0.1289  0.6878
14470TIP3    H164901   5.650   0.738  15.152 -0.6366 -2.3601  0.0570
14470TIP3    H264902   5.627   0.632  15.257  0.2928  0.2285  2.9676
14471TIP3   OH264903   6.168   5.226   5.312 -0.0130  0.2031 -0.1234
14471TIP3    H164904   6.109   5.266   5.249 -0.8810 -0.2457  0.4015
14471TIP3    H264905   6.244   5.285   5.314  0.2964 -0.1085 -2.0191
14472TIP3   OH264906   1.856   2.097   2.371  0.3433 -0.5800  0.3756
14472TIP3    H164907   1.761   2.104   2.384  0.2187  1.2117 -1.2820
14472TIP3    H264908   1.866   2.040   2.295  0.5297  0.2345 -0.2212
14473TIP3   OH264909   4.612   2.527  13.494  0.5809 -0.2864  0.1520
14473TIP3    H164910   4.579   2.438  13.490 -1.4266  0.4075  0.6502
14473TIP3    H264911   4.708   2.518  13.497  0.4167 -2.3673 -0.4471
14474TIP3   OH264912   4.747   6.374   1.941  0.3218 -0.7433 -0.1777
14474TIP3    H164913   4.694   6.379   2.021 -0.5542  1.4858 -0.8706
14474TIP3    H264914   4.800   6.295   1.953 -0.3014 -0.8352  2.2803
14475TIP3   OH264915   5.023   5.660   1.635 -0.0738 -0.4240 -0.1913
14475TIP3    H164916   5.044   5.604   1.560  1.5087 -0.3731  0.1960
14475TIP3    H264917   5.065   5.744   1.614  0.8202 -0.5668  0.9640
14476TIP3   OH264918   4.125   6.701   2.641 -0.2584  0.1888  0.5243
14476TIP3    H164919   4.128   6.605   2.644  0.5142  0.2164  0.7773
14476TIP3    H264920   4.058   6.725   2.705 -1.5813 -0.2366 -0.6602
14477TIP3   OH264921   2.542   0.032  13.311  0.0140 -0.3241  0.6569
14477TIP3    H164922   2.503  -0.005  13.390 -0.8607 -1.7595 -0.4265
14477TIP3    H264923   2.473   0.025  13.244  0.5900  1.2379 -0.1497
14478TIP3   OH264924   1.452   1.240  15.744 -0.0922  0.5033 -0.3433
14478TIP3    H164925   1.361   1.252  15.717 -0.0509 -0.4786 -0.9595
14478TIP3    H264926   1.495   1.322  15.718 -0.6773  0.7507 -0.5543
14479TIP3   OH264927   0.504   5.961   1.383  0.5854  0.3387  0.1472
14479TIP3    H164928   0.596   5.989   1.387  0.3996  1.0045 -0.1428
14479TIP3    H264929   0.508   5.866   1.390  1.3635  0.2999 -0.7386
14480TIP3   OH264930   0.025   4.705  11.333 -0.1674 -0.1889  0.5110
14480TIP3    H164931  -0.001   4.626  11.381 -0.6970 -1.1253 -1.2795
14480TIP3    H264932   0.089   4.675  11.269  1.2367  1.2112  1.2315
14481TIP3   OH264933   2.357   0.115  15.200  0.0717 -0.1548  0.2476
14481TIP3    H164934   2.277   0.167  15.189 -0.0099 -0.5931 -1.3493
14481TIP3    H264935   2.382   0.091  15.111  2.5380  0.7960  0.6462
14482TIP3   OH264936   4.556   5.675   1.260  0.0996 -0.6398  0.0954
14482TIP3    H164937   4.549   5.767   1.234 -2.1384 -0.8037 -0.0132
14482TIP3    H264938   4.558   5.626   1.178 -1.6601 -0.8312  0.1328
14483TIP3   OH264939   4.195   3.699  15.914  0.0353 -0.3142 -0.5697
14483TIP3    H164940   4.141   3.774  15.939 -0.1760 -0.5271 -0.3891
14483TIP3    H264941   4.189   3.639  15.988  0.6530 -0.2669 -0.4795
14484TIP3   OH264942   5.710   3.111  14.164 -0.0853  0.0582  0.1422
14484TIP3    H164943   5.745   3.103  14.252  0.5925  0.0775 -0.1224
14484TIP3    H264944   5.694   3.021  14.135  2.0451 -0.0926 -0.6472
14485TIP3   OH264945   3.217   2.706  15.434 -0.3864 -0.2662  0.3034
14485TIP3    H164946   3.128   2.696  15.466 -0.2726 -0.1783  0.6518
14485TIP3    H264947   3.215   2.786  15.380 -0.8625 -1.1125 -0.9458
14486TIP3   OH264948   6.626   4.749  14.711  0.0249 -0.7915 -0.5468
14486TIP3    H164949   6.561   4.681  14.696 -0.7286 -0.4134  0.9068
14486TIP3    H264950   6.591   4.826  14.667 -0.1192 -0.7938 -0.4333
14487TIP3   OH264951   4.211   1.432  14.075 -0.4001 -0.1833 -0.8153
14487TIP3    H164952   4.252   1.498  14.019 -0.5013  1.0932  0.5994
14487TIP3    H264953   4.182   1.480  14.152 -0.6749 -1.8507  0.1454
14488TIP3   OH264954   5.709   5.059   3.972 -0.5559  0.0938 -0.0604
14488TIP3    H164955   5.727   5.104   4.055 -0.4509 -0.0572 -0.0025
14488TIP3    H264956   5.738   5.121   3.905  1.6823 -0.7911  0.0561
14489TIP3   OH264957   0.556   2.209   6.173  0.0766 -0.2621  0.3749
14489TIP3    H164958   0.546   2.302   6.194  1.3363 -0.4242  1.7521
14489TIP3    H264959   0.650   2.193   6.181  0.1060 -1.2503 -1.6179
14490TIP3   OH264960   5.635   2.977   4.232 -0.2422  0.7225 -0.2152
14490TIP3    H164961   5.629   3.057   4.285  1.6877 -0.3738  1.7046
14490TIP3    H264962   5.545   2.946   4.226 -0.9299  2.6996 -0.4350
14491TIP3   OH264963   5.357   4.351   1.936  0.0214  0.3521  0.2671
14491TIP3    H164964   5.368   4.259   1.960 -0.8174 -0.0028 -0.6860
14491TIP3    H264965   5.437   4.372   1.887  1.1793  0.7377  2.2652
14492TIP3   OH264966   1.605   4.251  12.294  0.5761 -0.0080  0.2143
14492TIP3    H164967   1.618   4.157  12.307  1.3181 -0.1379 -1.3703
14492TIP3    H264968   1.662   4.273  12.220  0.3218  1.6692  0.5005
14493TIP3   OH264969   2.565   1.776  14.861  0.3987  0.1491 -0.4502
14493TIP3    H164970   2.589   1.735  14.779  0.0814  0.7835 -0.8632
14493TIP3    H264971   2.584   1.869  14.849  1.3750  0.1015  0.5716
14494TIP3   OH264972   5.111   2.831   3.585  0.1980  0.0520  0.0630
14494TIP3    H164973   5.193   2.799   3.621  1.9456  0.5634 -3.2460
14494TIP3    H264974   5.056   2.753   3.575  0.9609 -0.5568  0.6345
14495TIP3   OH264975   0.098   3.824  11.129  0.3932  0.0837 -0.1751
14495TIP3    H164976   0.186   3.822  11.167  0.2828 -0.9379  0.0643
14495TIP3    H264977   0.111   3.804  11.036  0.3219 -1.2114  0.0802
14496TIP3   OH264978   5.554   4.763   4.162 -0.4162  0.5603  0.2184
14496TIP3    H164979   5.502   4.731   4.089 -0.1015 -1.2262  0.7576
14496TIP3    H264980   5.503   4.741   4.240 -0.7766  2.4939  0.5635
14497TIP3   OH264981   2.642   2.194  15.110  0.0923 -0.1231  0.1271
14497TIP3    H164982   2.705   2.225  15.045  0.2164  0.1548  0.3805
14497TIP3    H264983   2.560   2.237  15.085  0.3941  0.8900  0.8281
14498TIP3   OH264984   2.210   1.179   6.402  0.0929  0.2312  0.1555
14498TIP3    H164985   2.214   1.123   6.479 -1.6021  0.3415  0.3571
14498TIP3    H264986   2.272   1.250   6.420  1.6251 -1.1110  0.2612
14499TIP3   OH264987   1.325   5.134   0.189  0.5454 -0.3561 -0.1802
14499TIP3    H164988   1.274   5.214   0.177 -0.5772 -1.1568 -0.9362
14499TIP3    H264989   1.404   5.161   0.236 -1.2421  0.7200  2.3426
14500TIP3   OH264990   2.288   6.504  13.898 -0.2855 -0.7032 -0.3164
14500TIP3    H164991   2.369   6.499  13.949 -0.5198 -4.3710 -0.2048
14500TIP3    H264992   2.219   6.476  13.958 -1.2782 -0.2178 -1.1963
14501TIP3   OH264993   0.814   4.665   2.618 -0.0239 -0.3226  0.2125
14501TIP3    H164994   0.895   4.696   2.659 -1.1507  0.3911  1.9272
14501TIP3    H264995   0.788   4.589   2.669 -1.2907  0.4043  0.6779
14502TIP3   OH264996   2.413   3.425   0.491 -0.1419  0.4638 -0.0660
14502TIP3    H164997   2.416   3.377   0.408 -2.2336  2.8428 -1.5609
14502TIP3    H264998   2.495   3.474   0.493 -0.0909  0.4095 -0.7202
14503TIP3   OH264999   2.855   1.255   6.523 -0.3134 -0.2479  0.2172
14503TIP3    H165000   2.788   1.227   6.585 -0.5266  0.5106  0.3401
14503TIP3    H265001   2.817   1.238   6.437 -0.2300 -0.8115  0.2913
14504TIP3   OH265002   3.624   1.829   1.810  0.1117  0.0303 -0.0507
14504TIP3    H165003   3.604   1.743   1.772 -2.2996  0.2228  0.6593
14504TIP3    H265004   3.662   1.810   1.895 -0.5225 -0.3413  0.1514
14505TIP3   OH265005   2.423   1.966  11.303 -0.0469  0.0299  0.1428
14505TIP3    H165006   2.456   1.938  11.218  0.0946 -1.1072  0.5554
14505TIP3    H265007   2.369   2.043  11.285  0.2479 -0.0147 -0.9254
14506TIP3   OH265008   5.715   6.143  12.591 -0.5404 -0.1892  0.0338
14506TIP3    H165009   5.695   6.103  12.506  1.0563 -1.3196  0.1636
14506TIP3    H265010   5.750   6.229  12.568 -0.5197 -0.3193 -0.4438
14507TIP3   OH265011   4.189   2.257  13.454  0.2526  0.4407 -0.0055
14507TIP3    H165012   4.167   2.350  13.445  0.7561  0.6505  0.8742
14507TIP3    H265013   4.134   2.213  13.390  0.8240  1.4643 -1.2093
14508TIP3   OH265014   1.739   0.337  16.720 -0.0023 -0.1601 -0.3281
14508TIP3    H165015   1.717   0.417  16.767 -0.4206 -2.2946  3.3411
14508TIP3    H265016   1.823   0.310  16.756  0.5530 -0.9336 -2.1540
14509TIP3   OH265017   3.738   4.186   3.516  0.8082  0.1384 -0.1359
14509TIP3    H165018   3.728   4.169   3.422  1.8095  1.3561 -0.4723
14509TIP3    H265019   3.798   4.260   3.521 -0.2661  0.9384  1.4379
14510TIP3   OH265020   0.516   4.051   2.864 -0.3832 -0.0178  0.0065
14510TIP3    H165021   0.502   4.010   2.950  1.4224 -0.1334  0.2761
14510TIP3    H265022   0.508   4.145   2.881 -0.3157 -0.0549  0.2543
14511TIP3   OH265023   6.436   1.829  14.462 -0.2955  0.2498  0.0469
14511TIP3    H165024   6.430   1.916  14.501 -1.3246  0.0865  0.2741
14511TIP3    H265025   6.399   1.839  14.374  0.2663  0.2074 -0.1927
14512TIP3   OH265026   0.559   1.917   2.014 -0.1012  0.0036 -0.3784
14512TIP3    H165027   0.641   1.965   2.004 -0.2407  0.0199 -1.5065
14512TIP3    H265028   0.520   1.918   1.926 -1.3504  0.0723  0.1705
14513TIP3   OH265029   1.117   2.465   5.477  0.0130  0.1875  1.1784
14513TIP3    H165030   1.153   2.553   5.464  0.1493  0.0498  0.6202
14513TIP3    H265031   1.031   2.467   5.436  0.8927 -0.5692 -0.7344
14514TIP3   OH265032   2.591   5.351  12.384 -0.0297 -0.0317  0.3334
14514TIP3    H165033   2.606   5.322  12.294 -1.0936 -2.2408  0.8295
14514TIP3    H265034   2.564   5.442  12.375 -1.9458 -0.7525 -1.7447
14515TIP3   OH265035   1.667   0.921  10.656  0.5856 -0.1017  0.6307
14515TIP3    H165036   1.676   0.870  10.737  0.1711  0.6869  1.1720
14515TIP3    H265037   1.573   0.938  10.649  0.9612  2.6372  1.7210
14516TIP3   OH265038   0.723   5.699  11.773  0.2779  0.0481 -0.2620
14516TIP3    H165039   0.649   5.715  11.713 -0.8023 -3.0765  0.1419
14516TIP3    H265040   0.793   5.669  11.715  1.0040  2.2628 -0.5544
14517TIP3   OH265041   2.931   1.200  11.432  0.3472  0.4939 -0.1091
14517TIP3    H165042   2.952   1.128  11.491 -1.0259 -0.7781 -1.1239
14517TIP3    H265043   2.976   1.178  11.351  0.2187  0.9761 -0.3101
14518TIP3   OH265044   2.484   2.651  15.535 -0.0400 -0.3749 -0.0111
14518TIP3    H165045   2.432   2.729  15.553  0.7717  0.2586 -0.3553
14518TIP3    H265046   2.440   2.610  15.460 -1.3137 -1.0599  1.0774
14519TIP3   OH265047   3.974   6.068  15.008  0.0115 -0.1004  0.1045
14519TIP3    H165048   3.998   5.985  14.967  0.8431  0.1175  0.1369
14519TIP3    H265049   4.033   6.132  14.969 -1.6477  0.7602 -1.0628
14520TIP3   OH265050   6.638   5.860   0.832 -0.0187  0.2986  0.1745
14520TIP3    H165051   6.555   5.815   0.846 -0.8780  2.1630  1.4032
14520TIP3    H265052   6.684   5.851   0.916  1.3723 -1.3676 -0.7378
14521TIP3   OH265053   1.523   0.521  10.700 -0.0218 -0.7742  0.1680
14521TIP3    H165054   1.439   0.553  10.667  0.2456 -0.5491 -0.2990
14521TIP3    H265055   1.520   0.539  10.794 -0.4105 -0.5804  0.1203
14522TIP3   OH265056   3.776   0.820   6.134  0.1477  0.1479 -0.0046
14522TIP3    H165057   3.682   0.840   6.135 -0.1115 -1.0095 -0.7345
14522TIP3    H265058   3.814   0.891   6.082 -0.4861 -0.0671 -0.7748
14523TIP3   OH265059   2.177   3.586  14.837 -0.2928  0.0267 -0.2499
14523TIP3    H165060   2.149   3.542  14.918  1.4737  0.9725  0.8889
14523TIP3    H265061   2.249   3.643  14.864 -0.2617  1.0117 -2.3459
14524TIP3   OH265062   0.434   1.604  11.605  0.4101  0.6470  0.5741
14524TIP3    H165063   0.475   1.691  11.608  3.4829 -0.7697  1.6466
14524TIP3    H265064   0.499   1.546  11.642 -2.3904 -1.8745  1.7264
14525TIP3   OH265065   0.852   0.506  12.104 -0.1375  0.3728  0.3052
14525TIP3    H165066   0.836   0.583  12.159 -0.3426  0.6895 -0.1924
14525TIP3    H265067   0.774   0.500  12.048  0.6317  0.7903 -0.8183
14526TIP3   OH265068   5.356   5.479  17.034 -0.1946  0.2391 -0.4303
14526TIP3    H165069   5.423   5.546  17.022  1.7507 -1.5200  0.3090
14526TIP3    H265070   5.370   5.418  16.962  1.1958 -1.9090  1.6116
14527TIP3   OH265071   5.602   1.467   1.165  0.3642 -0.0353  0.0223
14527TIP3    H165072   5.673   1.422   1.213 -0.1123 -0.6107  0.1903
14527TIP3    H265073   5.524   1.450   1.218 -0.0658 -0.2027 -0.6662
14528TIP3   OH265074   5.757   5.185  12.604  1.0311 -0.1535 -0.0630
14528TIP3    H165075   5.723   5.274  12.614  1.6364  0.0355  0.4020
14528TIP3    H265076   5.777   5.177  12.511 -1.1643 -0.6071 -0.5308
14529TIP3   OH265077   6.773   0.794  13.531  0.7505  0.1751  0.1911
14529TIP3    H165078   6.785   0.872  13.476 -0.5483  1.0763  1.1730
14529TIP3    H265079   6.835   0.730  13.495  1.6482  1.5643 -0.7931
14530TIP3   OH265080   5.817   4.125  13.115  0.2048  0.2862 -0.8479
14530TIP3    H165081   5.899   4.092  13.150  0.2980  0.3946 -0.9591
14530TIP3    H265082   5.750   4.065  13.148  0.4776 -0.5801 -1.8206
14531TIP3   OH265083   3.501   1.772  10.698 -0.0687 -0.0612 -0.5723
14531TIP3    H165084   3.510   1.765  10.603 -0.2137  1.7033 -0.7303
14531TIP3    H265085   3.430   1.711  10.720  0.6263 -1.2037 -1.4592
14532TIP3   OH265086   2.472   3.579   4.695  0.1605  0.0749 -0.2230
14532TIP3    H165087   2.448   3.486   4.693  0.5313 -0.0372  0.4464
14532TIP3    H265088   2.476   3.600   4.788 -0.9563  1.0372 -0.3782
14533TIP3   OH265089   5.846   5.050   2.163 -0.2649 -0.2321  0.2347
14533TIP3    H165090   5.907   5.010   2.224  0.3815 -0.0255 -0.2651
14533TIP3    H265091   5.870   5.143   2.163 -1.2725  0.0342  0.8338
14534TIP3   OH265092   4.451   1.147   1.718 -0.1743 -0.7382 -0.1859
14534TIP3    H165093   4.462   1.227   1.667 -1.2041 -0.1082  0.5527
14534TIP3    H265094   4.358   1.143   1.737  0.1702 -0.9448  1.6283
14535TIP3   OH265095   6.590   4.901  11.705  0.1621  0.1143 -0.1297
14535TIP3    H165096   6.507   4.934  11.670  0.6516  0.4790 -0.9676
14535TIP3    H265097   6.652   4.912  11.633  1.3446  1.5124  1.0708
14536TIP3   OH265098   4.137   5.740   1.651 -0.4495  0.4231  0.3766
14536TIP3    H165099   4.076   5.736   1.725 -0.6057 -0.6115  0.1950
14536TIP3    H265100   4.120   5.660   1.602  0.0356  0.8454 -0.4865
14537TIP3   OH265101   6.285   5.497   5.058 -0.1869 -0.2297 -0.0708
14537TIP3    H165102   6.298   5.517   4.965  0.4868 -1.6322 -0.2967
14537TIP3    H265103   6.192   5.512   5.073 -0.2334  0.3506 -0.8957
14538TIP3   OH265104   4.210   0.816   0.556 -0.6584 -0.4088  0.1877
14538TIP3    H165105   4.295   0.775   0.547 -0.2860  0.7082 -1.6521
14538TIP3    H265106   4.220   0.903   0.517 -2.2708  0.2612  1.1705
14539TIP3   OH265107   5.227   6.761   3.278  0.3457 -0.6824  0.6694
14539TIP3    H165108   5.272   6.821   3.337  2.1009 -0.4384 -0.8683
14539TIP3    H265109   5.134   6.770   3.301  0.2114  4.6802 -1.3351
14540TIP3   OH265110   0.677   3.875  14.471  0.5032 -0.1488 -0.1930
14540TIP3    H165111   0.604   3.838  14.521 -1.3581  2.5089 -0.8793
14540TIP3    H265112   0.728   3.923  14.536  1.8900 -2.2539  0.3442
14541TIP3   OH265113   3.676   5.345   0.395 -0.1942  0.0538  0.1675
14541TIP3    H165114   3.616   5.278   0.363 -0.3989  1.1857 -1.9594
14541TIP3    H265115   3.747   5.297   0.436 -0.3999 -1.4653 -1.2234
14542TIP3   OH265116   6.041   1.010   1.387  0.4162 -0.2737  0.1142
14542TIP3    H165117   6.074   0.928   1.349  0.7421  0.2597 -0.7815
14542TIP3    H265118   5.953   1.020   1.350 -0.5096 -1.3417  1.9613
14543TIP3   OH265119   5.157   4.284   2.621 -0.1150  0.3784 -0.2405
14543TIP3    H165120   5.112   4.247   2.546  0.3685 -1.3867  0.2947
14543TIP3    H265121   5.147   4.217   2.690  1.5003  0.8808  0.5079
14544TIP3   OH265122   4.258   0.677   2.171 -0.0324  0.3241 -0.0577
14544TIP3    H165123   4.225   0.617   2.237 -0.1232  0.6179  0.1670
14544TIP3    H265124   4.342   0.640   2.144  0.2032  0.4251  0.5244
14545TIP3   OH265125   1.286   4.756   5.553 -0.4771 -0.2325  0.2152
14545TIP3    H165126   1.249   4.670   5.573  0.4221  0.0999  3.6368
14545TIP3    H265127   1.209   4.812   5.538 -1.1219 -1.2148 -0.2015
14546TIP3   OH265128   2.483   0.792  16.152  0.6247 -0.1847 -0.1373
14546TIP3    H165129   2.448   0.762  16.068  1.9724  0.2890 -0.8885
14546TIP3    H265130   2.466   0.720  16.213 -0.1466 -0.6308 -0.8774
14547TIP3   OH265131   2.926   2.799  16.430 -1.0329  0.6136  0.0093
14547TIP3    H165132   2.975   2.746  16.492 -0.8701  1.3966  0.5568
14547TIP3    H265133   2.900   2.877  16.480 -2.5123  0.3817 -0.3677
14548TIP3   OH265134   2.481   4.596  14.676  0.0870  0.0075 -0.0712
14548TIP3    H165135   2.529   4.626  14.753 -0.3262  1.4933 -0.3889
14548TIP3    H265136   2.530   4.631  14.601 -0.4696 -0.0073 -0.4472
14549TIP3   OH265137   1.383   4.342   5.064 -0.4981 -0.8715  0.0458
14549TIP3    H165138   1.402   4.387   4.982  1.2514  0.0803  0.9448
14549TIP3    H265139   1.319   4.399   5.108 -1.9250 -1.7073 -0.9258
14550TIP3   OH265140   5.540   0.748  16.187 -0.0019 -0.0873  0.3024
14550TIP3    H165141   5.481   0.751  16.262  0.4444  1.4562  0.6265
14550TIP3    H265142   5.487   0.714  16.116 -1.7857  2.7051  0.1961
14551TIP3   OH265143   4.427   0.242  12.084  0.3246  0.5327 -0.3523
14551TIP3    H165144   4.433   0.307  12.014 -0.9283  1.6885  0.5772
14551TIP3    H265145   4.352   0.189  12.061  0.2897  0.5242 -0.2207
14552TIP3   OH265146   4.418   0.231  14.412 -0.6977 -0.0512 -0.2305
14552TIP3    H165147   4.478   0.299  14.442 -1.0031  0.0732  0.1101
14552TIP3    H265148   4.350   0.279  14.364 -1.1989 -0.0618  0.4698
14553TIP3   OH265149   6.218   6.216   4.002 -0.3194  0.0675 -0.3412
14553TIP3    H165150   6.302   6.191   4.039  0.3207  1.4709 -0.8241
14553TIP3    H265151   6.229   6.307   3.977 -1.4999 -0.1744 -1.8060
14554TIP3   OH265152   0.175   3.226   5.210 -0.5932  0.0223 -0.1945
14554TIP3    H165153   0.104   3.183   5.258 -0.9616 -2.0540 -2.5086
14554TIP3    H265154   0.236   3.156   5.189  1.4230  1.5354  0.4455
14555TIP3   OH265155   1.473   3.829  15.680  0.5725 -0.4516  0.3278
14555TIP3    H165156   1.527   3.761  15.640  1.7735 -0.0182  1.1634
14555TIP3    H265157   1.495   3.825  15.773  0.3002  0.7481  0.4564
14556TIP3   OH265158   5.275   2.175  12.890  0.1334 -0.0436  0.5153
14556TIP3    H165159   5.303   2.265  12.911 -3.8476  1.2285  0.7127
14556TIP3    H265160   5.211   2.154  12.958  0.0950 -2.6094 -0.2826
14557TIP3   OH265161   2.973   6.265   3.176  0.2788  0.6235  0.0725
14557TIP3    H165162   2.904   6.324   3.206  1.4063  1.4370  1.1011
14557TIP3    H265163   2.984   6.288   3.083  0.6122  1.9426  0.4269
14558TIP3   OH265164   6.017   4.403  17.073  0.3446  0.0582 -0.6088
14558TIP3    H165165   6.066   4.326  17.104  0.1493  0.6585  1.2169
14558TIP3    H265166   6.082   4.454  17.025  0.4652 -1.2568 -1.9057
14559TIP3   OH265167   0.110   4.297   2.538  0.3544  0.1150  0.2011
14559TIP3    H165168   0.102   4.222   2.597 -1.6721  0.4178  0.3408
14559TIP3    H265169   0.196   4.335   2.559  1.3384 -2.0466  0.2233
14560TIP3   OH265170   0.024   2.589   0.785  0.3558 -0.1479  0.5646
14560TIP3    H165171  -0.007   2.586   0.875 -0.5570  0.1551  0.2657
14560TIP3    H265172  -0.020   2.515   0.742  0.3224  0.0657  0.2279
14561TIP3   OH265173   1.862   4.671   4.167 -0.2295 -0.1091  0.1713
14561TIP3    H165174   1.940   4.678   4.221  0.5263 -0.8462 -0.8241
14561TIP3    H265175   1.875   4.593   4.115  0.2401  1.9814 -2.9797
14562TIP3   OH265176   6.641   0.719  15.049  0.2521 -0.1147 -0.0252
14562TIP3    H165177   6.705   0.759  14.990  0.0258 -0.8949 -0.8140
14562TIP3    H265178   6.644   0.626  15.027 -1.8147 -0.0361 -0.7014
14563TIP3   OH265179   4.417   0.928  14.273  0.4678 -0.2764  0.0735
14563TIP3    H165180   4.349   0.910  14.208  0.9555 -0.4338 -0.3968
14563TIP3    H265181   4.423   0.848  14.325 -0.4582  0.1186  0.8091
14564TIP3   OH265182   4.741   0.276   1.346 -0.3689  0.4641 -0.0561
14564TIP3    H165183   4.784   0.264   1.430 -1.2534  0.1311  0.3540
14564TIP3    H265184   4.713   0.368   1.345  0.4097  0.7055 -0.3605
14565TIP3   OH265185   0.585   0.636  15.264 -0.4748  0.2753 -0.6907
14565TIP3    H165186   0.671   0.593  15.265 -0.6420 -0.0410  0.9097
14565TIP3    H265187   0.605   0.728  15.251  0.3292  0.6251  2.6058
14566TIP3   OH265188   2.772   5.347  14.115  0.3073 -0.4807  0.3379
14566TIP3    H165189   2.835   5.299  14.062  0.2175  0.0087 -0.2101
14566TIP3    H265190   2.689   5.341  14.067 -0.0389 -1.0031  0.9820
14567TIP3   OH265191   0.440   5.201  12.448 -0.4810 -0.0100  0.7599
14567TIP3    H165192   0.406   5.124  12.403  1.6740 -0.7596  0.3436
14567TIP3    H265193   0.500   5.241  12.384  0.3073  0.6014  1.8657
14568TIP3   OH265194   3.481   5.540  14.806  0.1671  0.2632  0.1242
14568TIP3    H165195   3.467   5.454  14.766 -4.0848  1.1759 -0.6002
14568TIP3    H265196   3.502   5.598  14.733 -0.6852  0.5449  0.0931
14569TIP3   OH265197   5.645   0.272   4.204  0.3586  0.9502  0.3773
14569TIP3    H165198   5.570   0.313   4.248 -0.8778  0.2370 -1.0174
14569TIP3    H265199   5.673   0.337   4.139  0.3015  0.7928  0.1961
14570TIP3   OH265200   0.497   0.989   2.141  0.2188  0.0166  0.0798
14570TIP3    H165201   0.592   1.001   2.139  0.2600 -0.2874  0.0925
14570TIP3    H265202   0.485   0.913   2.198 -0.0934  0.6684  0.8969
14571TIP3   OH265203   2.760   6.136   5.912 -0.0989  0.6558  0.8125
14571TIP3    H165204   2.688   6.139   5.976 -0.7147  1.9068  0.0667
14571TIP3    H265205   2.838   6.122   5.966 -0.8370 -0.2638  1.6752
14572TIP3   OH265206   5.129   2.498   4.463 -0.2505 -0.4872  0.1737
14572TIP3    H165207   5.128   2.593   4.479 -0.8025 -0.6493  1.1292
14572TIP3    H265208   5.194   2.464   4.524  0.1826 -0.6857 -0.3997
14573TIP3   OH265209   1.036   0.066  12.928 -0.0903 -0.3747 -0.6337
14573TIP3    H165210   1.044   0.064  12.833  2.2739 -3.5919 -0.4303
14573TIP3    H265211   1.111   0.118  12.958 -0.1657 -0.3598 -0.4679
14574TIP3   OH265212   0.720   0.964  15.697  0.1219  0.0344  0.1919
14574TIP3    H165213   0.668   1.041  15.723  1.1683  0.5980  0.6484
14574TIP3    H265214   0.802   0.973  15.746  0.5874 -0.9401 -0.3953
14575TIP3   OH265215   4.784   5.762   2.660  0.4224 -0.5500 -0.2592
14575TIP3    H165216   4.696   5.768   2.697  0.4812  1.8231 -0.4100
14575TIP3    H265217   4.783   5.682   2.608 -1.4593 -0.8707  0.2342
14576TIP3   OH265218   3.974   5.925   3.465  0.0327 -0.2783  0.4070
14576TIP3    H165219   3.994   5.866   3.393  0.8591  0.1474  0.2822
14576TIP3    H265220   3.879   5.936   3.462 -0.0512 -1.1195  0.0590
14577TIP3   OH265221   3.153   2.608  11.890  0.1223 -0.1504 -0.6289
14577TIP3    H165222   3.101   2.682  11.857  1.3965  0.7963 -0.5464
14577TIP3    H265223   3.244   2.633  11.874  0.6643 -0.7917  1.2896
14578TIP3   OH265224   4.087   0.415  15.090  0.2856  0.8437  0.6976
14578TIP3    H165225   4.104   0.386  15.001 -0.3553  0.0085  0.8402
14578TIP3    H265226   3.991   0.423  15.094  0.3788  1.9276  0.9882
14579TIP3   OH265227   0.884   2.616   1.897  0.0799 -0.4295  0.3029
14579TIP3    H165228   0.970   2.655   1.913 -0.5026  1.2112 -0.5117
14579TIP3    H265229   0.888   2.531   1.942  2.5993 -0.9772 -0.8594
14580TIP3   OH265230   0.073   5.195  12.361 -0.5579 -0.6507 -0.5002
14580TIP3    H165231   0.053   5.207  12.454 -0.6863 -2.0666 -0.3304
14580TIP3    H265232   0.154   5.142  12.361  1.3889  2.2116 -1.1893
14581TIP3   OH265233   3.312   6.814  11.750 -0.0924  0.4061  0.7404
14581TIP3    H165234   3.294   6.822  11.656  2.8374  1.7590  0.2591
14581TIP3    H265235   3.339   6.901  11.777  1.1559 -0.4643  2.3858
14582TIP3   OH265236   1.200   1.629   5.914 -0.4333  0.0971  1.1148
14582TIP3    H165237   1.239   1.716   5.906 -0.1196 -0.1491 -0.0852
14582TIP3    H265238   1.231   1.596   5.998  1.7049  0.0254  0.3263
14583TIP3   OH265239   3.079   6.724   1.993 -0.6467  0.0571 -0.1492
14583TIP3    H165240   3.037   6.766   1.919  0.2250 -0.0736 -0.7186
14583TIP3    H265241   3.033   6.641   2.004 -0.8071  0.1021 -0.5123
14584TIP3   OH265242   1.282   2.236  15.199  0.0874  0.4345 -0.0049
14584TIP3    H165243   1.208   2.255  15.142 -0.8984  0.4169  1.2538
14584TIP3    H265244   1.357   2.277  15.156 -0.8783  1.5501 -0.6438
14585TIP3   OH265245   3.155   5.616   1.831 -0.6649 -0.1564 -0.2503
14585TIP3    H165246   3.089   5.556   1.864 -0.0651 -0.1081  1.0631
14585TIP3    H265247   3.188   5.661   1.909 -1.8057  2.6110 -1.3099
14586TIP3   OH265248   2.141   4.292   1.855 -0.3879  0.3686  0.2670
14586TIP3    H165249   2.131   4.357   1.785 -1.8501  1.3283  1.3488
14586TIP3    H265250   2.054   4.256   1.868  0.6124 -2.6572 -1.0772
14587TIP3   OH265251   3.555   2.422  15.040  0.5783  0.3793  0.2360
14587TIP3    H165252   3.587   2.351  15.095  0.8973  0.2386 -0.1308
14587TIP3    H265253   3.587   2.502  15.082  1.8546  0.2212 -0.4146
14588TIP3   OH265254   5.665   4.371  13.048 -0.5498 -0.1275  0.0907
14588TIP3    H165255   5.641   4.281  13.025  3.3322 -1.1977  0.0020
14588TIP3    H265256   5.712   4.363  13.130 -0.4073  1.8993  0.2283
14589TIP3   OH265257   1.760   5.923   4.618 -0.4501  0.3008 -0.0855
14589TIP3    H165258   1.846   5.914   4.575  0.6192  3.1697  1.3200
14589TIP3    H265259   1.702   5.952   4.548  0.5060  1.6389 -0.3408
14590TIP3   OH265260   3.116   0.702   5.821 -0.4852 -0.2590  0.6786
14590TIP3    H165261   3.054   0.723   5.890 -0.8035  0.2083  0.2561
14590TIP3    H265262   3.080   0.623   5.779  0.6191 -1.5952  2.1507
14591TIP3   OH265263   6.771   6.173  16.400  0.0472  0.2811 -0.3036
14591TIP3    H165264   6.841   6.113  16.375 -1.1156 -1.1384 -0.2287
14591TIP3    H265265   6.722   6.189  16.319 -1.2318 -1.0112  0.1852
14592TIP3   OH265266   3.180   4.360  13.252 -0.4537 -0.2911 -0.1490
14592TIP3    H165267   3.239   4.293  13.219 -0.9070  0.1625 -1.9233
14592TIP3    H265268   3.126   4.314  13.317  1.1203 -0.9475  0.7334
14593TIP3   OH265269   3.655   5.514  14.066  0.0741  0.0430 -0.7695
14593TIP3    H165270   3.701   5.569  14.130  0.8890 -0.3473 -1.0199
14593TIP3    H265271   3.685   5.426  14.084 -0.3500 -0.1806 -1.1397
14594TIP3   OH265272   0.409   3.501  15.639  0.1532 -0.1215 -0.0960
14594TIP3    H165273   0.380   3.436  15.703 -0.4173 -0.3534 -0.5771
14594TIP3    H265274   0.361   3.478  15.559  0.4960  0.4536 -0.4675
14595TIP3   OH265275   0.069   0.280   1.114 -0.0687 -0.4135  0.3844
14595TIP3    H165276  -0.022   0.254   1.105  0.3316 -2.3210  1.5916
14595TIP3    H265277   0.106   0.217   1.176  2.1355  0.1624 -0.3035
14596TIP3   OH265278   5.799   1.705  12.457  0.5200  0.1649  0.3826
14596TIP3    H165279   5.819   1.612  12.471 -0.1160 -0.1405 -0.7126
14596TIP3    H265280   5.703   1.709  12.457  0.5438  0.8113  0.3335
14597TIP3   OH265281   3.694   3.999  12.401  0.3182  0.2348 -0.1680
14597TIP3    H165282   3.692   4.086  12.441 -0.6174 -0.0236  0.3605
14597TIP3    H265283   3.616   3.955  12.434  0.6851 -0.7480 -0.5753
14598TIP3   OH265284   4.939   2.538   6.547  0.3225  0.3946  0.2438
14598TIP3    H165285   4.856   2.523   6.591 -0.3831  0.3196 -1.0979
14598TIP3    H265286   4.945   2.633   6.538  0.6635  0.4366  0.8499
14599TIP3   OH265287   6.373   4.796  15.185  0.1547 -0.1577 -0.1849
14599TIP3    H165288   6.306   4.855  15.221  1.0755  0.5684  0.3870
14599TIP3    H265289   6.376   4.723  15.247 -0.7166 -0.6056 -0.6792
14600TIP3   OH265290   4.235   4.708  16.095  0.0935  0.4322  0.4247
14600TIP3    H165291   4.276   4.632  16.136 -0.9946 -0.5989 -0.3750
14600TIP3    H265292   4.256   4.781  16.153  0.4588 -0.6154  1.6262
14601TIP3   OH265293   6.623   6.669  12.957  0.4962 -0.0889 -0.2762
14601TIP3    H165294   6.689   6.636  13.019  0.2088 -1.0710 -0.4785
14601TIP3    H265295   6.673   6.693  12.880  0.9845  2.1381  0.7005
14602TIP3   OH265296   2.870   3.825   0.762  0.8151 -0.0611 -0.1878
14602TIP3    H165297   2.859   3.894   0.828  2.4119 -0.8780  0.9434
14602TIP3    H265298   2.880   3.744   0.813 -0.5940 -1.0864 -1.4966
14603TIP3   OH265299   4.906   4.935   1.034  0.1008  0.3051 -0.3766
14603TIP3    H165300   4.891   4.929   1.128  0.1761  0.4219 -0.3571
14603TIP3    H265301   4.995   4.970   1.026  1.2502 -2.5364 -0.4693
14604TIP3   OH265302   0.132   0.764   6.129  0.3421  0.0387 -0.0843
14604TIP3    H165303   0.188   0.830   6.169  0.2769  0.0782 -0.0587
14604TIP3    H265304   0.158   0.682   6.171 -0.6138  0.2624  0.9736
14605TIP3   OH265305   5.541   4.196   3.929 -0.2583  0.4057  0.1434
14605TIP3    H165306   5.580   4.111   3.948  0.9433  0.5348 -1.6283
14605TIP3    H265307   5.447   4.182   3.936  0.0091 -0.4045  2.4964
14606TIP3   OH265308   2.230   0.162  16.035  0.3162  0.4345 -0.3578
14606TIP3    H165309   2.325   0.172  16.043  0.5702 -2.0539  0.2242
14606TIP3    H265310   2.211   0.081  16.082 -2.1137  0.9386 -0.4370
14607TIP3   OH265311   6.669   5.131  15.464  0.1224  0.2136 -0.3729
14607TIP3    H165312   6.651   5.043  15.431  1.1035  0.1635 -0.7822
14607TIP3    H265313   6.617   5.138  15.544 -0.3671 -0.5453 -0.6196
14608TIP3   OH265314   4.267   4.073  15.866  0.3473 -0.0427  0.0186
14608TIP3    H165315   4.306   4.001  15.916 -1.0441  0.1863  1.4574
14608TIP3    H265316   4.197   4.106  15.922 -1.1551  0.3292 -2.0218
14609TIP3   OH265317   2.404   4.616  10.889  0.4822  0.4416  0.3420
14609TIP3    H165318   2.380   4.539  10.837  0.0979 -0.4654  1.8327
14609TIP3    H265319   2.468   4.661  10.835  0.4334 -0.7171 -0.7319
14610TIP3   OH265320   2.278   6.750   2.195 -0.1122 -0.0444 -0.0470
14610TIP3    H165321   2.263   6.677   2.135 -0.0605  1.4349 -1.8918
14610TIP3    H265322   2.327   6.814   2.143 -0.0313  1.2413  1.5859
14611TIP3   OH265323   1.695   4.527   4.993  0.1856  0.5505 -0.1340
14611TIP3    H165324   1.714   4.620   5.006  1.4599  0.7296 -2.9217
14611TIP3    H265325   1.770   4.482   5.031  0.3078  0.7433 -0.1433
14612TIP3   OH265326   4.691   5.630   2.984 -0.4381  0.2156 -0.1068
14612TIP3    H165327   4.601   5.597   2.990  0.0987 -1.0407  1.1380
14612TIP3    H265328   4.680   5.721   2.955 -2.1084  0.1065  0.1041
14613TIP3   OH265329   0.395   3.850   5.248  0.1168 -0.2487 -0.3116
14613TIP3    H165330   0.363   3.781   5.190  0.4484 -0.8531  0.2266
14613TIP3    H265331   0.324   3.863   5.311  0.4957 -0.8499  0.2400
14614TIP3   OH265332   2.000   4.859  15.424  0.5955 -0.3184 -0.0328
14614TIP3    H165333   2.048   4.788  15.382  0.5214  0.1718 -0.9615
14614TIP3    H265334   1.985   4.923  15.354 -1.2565 -0.3829  0.2897
14615TIP3   OH265335   2.500   4.439  15.924  0.3098 -0.3682 -0.1631
14615TIP3    H165336   2.474   4.474  15.839  1.7690 -0.5171 -0.6861
14615TIP3    H265337   2.476   4.346  15.920 -0.7142 -0.1183  0.0471
14616TIP3   OH265338   5.716   3.356   4.757 -0.3647 -0.6316  0.1839
14616TIP3    H165339   5.642   3.296   4.748 -1.1690  0.5916 -1.5913
14616TIP3    H265340   5.678   3.443   4.747  1.2262  0.0378 -0.1725
14617TIP3   OH265341   1.154   5.821  13.965 -0.3010 -0.3200 -0.1803
14617TIP3    H165342   1.155   5.760  14.038  1.7733  0.7882  0.7820
14617TIP3    H265343   1.230   5.878  13.981 -2.2417  2.5894 -0.9473
14618TIP3   OH265344   2.351   2.387  12.253 -0.3464  0.5528  0.2220
14618TIP3    H165345   2.428   2.439  12.277 -2.0353  2.8124  0.9233
14618TIP3    H265346   2.380   2.335  12.178  2.1867  0.4978  1.1590
14619TIP3   OH265347   0.812   3.218   0.427 -0.0163 -0.1570  0.0743
14619TIP3    H165348   0.770   3.148   0.378  0.5902 -1.0185  0.7826
14619TIP3    H265349   0.799   3.195   0.519 -1.2241  1.4925  0.3571
14620TIP3   OH265350   0.482   3.958   4.314 -0.1241  0.8026  0.1865
14620TIP3    H165351   0.433   3.997   4.242 -0.3704 -1.5989 -1.0054
14620TIP3    H265352   0.416   3.943   4.382 -1.3316 -3.0497 -1.6680
14621TIP3   OH265353   0.115   2.304   5.549  0.0389  0.2105 -0.4094
14621TIP3    H165354   0.115   2.339   5.460  0.8084 -2.0406 -1.3208
14621TIP3    H265355   0.182   2.355   5.594 -0.6177  1.6207 -1.0034
14622TIP3   OH265356   5.307   2.776  11.847  0.4529  0.3291 -0.1507
14622TIP3    H165357   5.269   2.861  11.871 -0.8103  0.1469 -1.4732
14622TIP3    H265358   5.345   2.744  11.929 -3.8416 -0.2961  1.7241
14623TIP3   OH265359   5.351   2.047  11.568 -0.5448  0.2251  0.0015
14623TIP3    H165360   5.283   2.046  11.635  1.7861  2.2519  2.5037
14623TIP3    H265361   5.395   1.963  11.577  0.4809  0.9264  1.8499
14624TIP3   OH265362   4.116   3.665  11.366  0.3765  0.4028  0.2487
14624TIP3    H165363   4.174   3.630  11.299  0.2363  0.5737  0.0365
14624TIP3    H265364   4.173   3.680  11.441 -0.1084 -3.1571  1.3988
14625TIP3   OH265365   1.337   6.774   1.732 -0.4753 -0.1708 -0.3388
14625TIP3    H165366   1.432   6.779   1.743 -0.2801 -2.3454 -0.9073
14625TIP3    H265367   1.305   6.857   1.767  1.4752 -0.1945  1.6050
14626TIP3   OH265368   3.114   5.404  14.487 -0.2391  0.2405 -0.0279
14626TIP3    H165369   3.022   5.383  14.468  0.2782 -0.9901 -1.3032
14626TIP3    H265370   3.111   5.451  14.570 -1.9676 -0.2991  0.2494
14627TIP3   OH265371   4.052   1.381  14.423 -0.0448  0.0134 -0.1009
14627TIP3    H165372   4.137   1.338  14.415  1.0289  2.1383 -0.4747
14627TIP3    H265373   4.061   1.462  14.373 -2.5853 -0.1438 -0.8583
14628TIP3   OH265374   3.424   5.144  14.234  0.2691  0.4271  0.0689
14628TIP3    H165375   3.390   5.082  14.170 -1.1536  1.0869  0.1579
14628TIP3    H265376   3.519   5.140  14.224  0.0943 -0.1269 -1.4635
14629TIP3   OH265377   1.285   1.007   4.092 -0.2643  0.2469  0.0731
14629TIP3    H165378   1.304   0.914   4.103 -0.8354  0.4203  2.9223
14629TIP3    H265379   1.200   1.010   4.049 -0.3895 -0.5469  0.2628
14630TIP3   OH265380   0.251   6.155  14.470  0.1624 -0.3145  0.0350
14630TIP3    H165381   0.308   6.103  14.413 -0.3253  0.0732 -0.8116
14630TIP3    H265382   0.297   6.238  14.482 -0.4902  0.2116 -1.1105
14631TIP3   OH265383   5.890   3.741   2.529 -0.3514 -0.7290  0.1988
14631TIP3    H165384   5.901   3.782   2.614  0.5981 -0.7736  0.1044
14631TIP3    H265385   5.890   3.814   2.467 -1.4648 -0.6603  0.2598
14632TIP3   OH265386   5.721   3.297  11.749  0.2240  0.8180  0.2782
14632TIP3    H165387   5.690   3.334  11.831 -0.8478  1.2296 -0.2973
14632TIP3    H265388   5.763   3.370  11.704  0.3013  0.7336  0.2135
14633TIP3   OH265389   4.807   4.642   5.165  0.0221 -0.3315  0.2691
14633TIP3    H165390   4.892   4.646   5.209  0.2463  2.9577 -0.3342
14633TIP3    H265391   4.744   4.670   5.231 -0.1648  0.3780 -0.1946
14634TIP3   OH265392   1.291   0.365   1.099 -0.1159 -0.3334  0.5298
14634TIP3    H165393   1.377   0.376   1.140  0.5983  0.1358 -1.0570
14634TIP3    H265394   1.275   0.271   1.103 -0.3915 -0.2125  2.5387
14635TIP3   OH265395   2.640   1.530   4.095  0.0353 -0.0342 -0.0443
14635TIP3    H165396   2.651   1.606   4.038 -1.1243 -0.1465 -0.4289
14635TIP3    H265397   2.713   1.535   4.157 -1.5481  2.9184  1.6723
14636TIP3   OH265398   4.046   2.868  11.558 -0.0657 -0.0753 -0.1378
14636TIP3    H165399   3.959   2.855  11.595  0.3075  0.4756  0.9410
14636TIP3    H265400   4.073   2.780  11.529 -0.1860 -0.5984  1.2843
14637TIP3   OH265401   3.862   5.409  15.075  0.5788 -0.0420 -0.2678
14637TIP3    H165402   3.878   5.419  15.169  0.2200 -0.6433 -0.1405
14637TIP3    H265403   3.815   5.488  15.051 -1.0753 -0.7832  0.4651
14638TIP3   OH265404   1.925   2.222   4.592 -0.2232 -0.5158 -0.1567
14638TIP3    H165405   1.917   2.317   4.601  0.2450 -0.5580  0.6838
14638TIP3    H265406   1.838   2.194   4.563 -0.0880  0.2773 -1.3673
14639TIP3   OH265407   4.781   1.623   4.492 -0.7625  0.1237 -0.4981
14639TIP3    H165408   4.868   1.602   4.524 -0.3852  1.0611 -0.9060
14639TIP3    H265409   4.729   1.638   4.571 -0.3594  0.3406 -0.2729
14640TIP3   OH265410   4.211   0.683  15.850 -0.1748 -0.1464  0.2520
14640TIP3    H165411   4.300   0.707  15.825  0.3462 -0.1766  2.0800
14640TIP3    H265412   4.218   0.594  15.885 -0.7734  0.1891  1.2489
14641TIP3   OH265413   2.203   1.361   2.901  0.6315 -0.6757 -0.2786
14641TIP3    H165414   2.243   1.296   2.844  2.4851  0.2949 -0.1174
14641TIP3    H265415   2.274   1.390   2.958 -0.0967  1.6339 -0.4883
14642TIP3   OH265416   6.538   4.618   1.340 -0.0954  0.3476 -0.2304
14642TIP3    H165417   6.617   4.670   1.354  1.7240 -2.4941  0.4384
14642TIP3    H265418   6.514   4.636   1.249  1.8654  0.5575 -0.7458
14643TIP3   OH265419   5.396   3.821  12.738 -0.3240  0.6108  0.5705
14643TIP3    H165420   5.468   3.781  12.787  0.2149  0.2932 -0.4664
14643TIP3    H265421   5.407   3.915  12.751 -0.4847  0.5066  1.4719
14644TIP3   OH265422   5.623   4.627   1.132  0.0609  0.3587  0.6190
14644TIP3    H165423   5.602   4.680   1.209 -0.3161  0.7267  0.2706
14644TIP3    H265424   5.641   4.540   1.166 -0.3428  0.4634  1.1026
14645TIP3   OH265425   3.868   3.739   4.954  0.0166  0.4880 -0.1603
14645TIP3    H165426   3.833   3.654   4.981 -2.4410  0.7623 -2.2764
14645TIP3    H265427   3.961   3.734   4.973 -0.1932 -2.4383  0.3327
14646TIP3   OH265428   5.429   2.920   0.641 -0.2579 -0.3296  0.4527
14646TIP3    H165429   5.477   2.917   0.723  1.0393 -0.3733 -0.3067
14646TIP3    H265430   5.374   2.999   0.648  0.1261 -0.1253  1.1956
14647TIP3   OH265431   5.106   6.377   2.188 -0.2011 -0.2667  0.4969
14647TIP3    H165432   5.188   6.383   2.236  0.4129  0.3036 -0.5879
14647TIP3    H265433   5.126   6.320   2.114 -0.5688  0.4694 -0.1843
14648TIP3   OH265434   6.242   4.915  15.794  0.1564 -0.2045 -0.2721
14648TIP3    H165435   6.292   4.906  15.713  2.4297 -4.5147  1.4426
14648TIP3    H265436   6.161   4.867  15.777  0.5987 -1.0416 -0.0621
14649TIP3   OH265437   5.355   5.230  14.923  0.0427  0.0454 -0.0394
14649TIP3    H165438   5.393   5.173  14.856  0.3302 -0.7122  0.7639
14649TIP3    H265439   5.277   5.183  14.953 -1.5992  1.6154 -1.7126
14650TIP3   OH265440   6.601   4.520   5.005 -0.0604  0.4312 -0.1144
14650TIP3    H165441   6.523   4.527   5.061 -0.1665  1.6707 -0.3937
14650TIP3    H265442   6.672   4.553   5.060  0.3725 -1.1467  0.3069
14651TIP3   OH265443   4.331   2.505   3.224 -0.3301  0.4338 -0.0628
14651TIP3    H165444   4.323   2.487   3.130  1.8567 -2.8083  0.2804
14651TIP3    H265445   4.246   2.541   3.249 -1.0215  1.1725 -3.2303
14652TIP3   OH265446   1.819   6.522  15.884 -0.1328  0.1483  0.3769
14652TIP3    H165447   1.825   6.530  15.789  0.0650  1.6811  0.5011
14652TIP3    H265448   1.734   6.481  15.900 -0.5202  0.6377 -0.4345
14653TIP3   OH265449   3.498   0.971   4.911  0.1904 -1.1372 -0.3695
14653TIP3    H165450   3.461   0.921   4.983  1.1715 -1.8335 -0.3546
14653TIP3    H265451   3.432   1.039   4.893  1.4008  1.1615  3.3664
14654TIP3   OH265452   2.934   0.365  14.704  0.6275  0.0808  0.3805
14654TIP3    H165453   2.980   0.376  14.620 -0.3938  0.8396 -0.0805
14654TIP3    H265454   2.845   0.342  14.679 -0.5414  3.4671  1.2142
14655TIP3   OH265455   6.281   6.784   5.089  0.2183 -0.3212  0.3852
14655TIP3    H165456   6.294   6.721   5.018  1.6649  1.1837 -0.6932
14655TIP3    H265457   6.270   6.729   5.167 -0.5276 -1.9670 -0.8321
14656TIP3   OH265458   1.116   4.318  16.823 -0.3755  0.0814 -0.1472
14656TIP3    H165459   1.027   4.350  16.806 -1.2682 -2.5112 -0.6720
14656TIP3    H265460   1.118   4.304  16.918 -0.0651  1.3922  0.0513
14657TIP3   OH265461   3.250   1.627  13.798  0.2637 -0.5224 -0.1151
14657TIP3    H165462   3.266   1.638  13.891 -0.0202 -1.2641  0.0257
14657TIP3    H265463   3.319   1.567  13.768 -0.5501 -1.5020 -0.0663
14658TIP3   OH265464   5.669   0.431  14.777 -0.0696  0.5481  0.5417
14658TIP3    H165465   5.699   0.380  14.702 -1.6964  0.3967 -0.0173
14658TIP3    H265466   5.586   0.391  14.803 -0.1053  1.3305  1.6794
14659TIP3   OH265467   4.774   1.921  15.183 -0.0975  0.1460 -0.0177
14659TIP3    H165468   4.829   1.873  15.246 -0.2923 -0.1923 -0.1014
14659TIP3    H265469   4.827   1.925  15.103 -0.8072 -1.5696 -0.6003
14660TIP3   OH265470   2.928   6.153   5.135 -0.2455 -0.8834  0.0530
14660TIP3    H165471   2.834   6.148   5.116 -0.4298  0.7365  0.5094
14660TIP3    H265472   2.967   6.181   5.052 -0.4171  0.6082  0.4703
14661TIP3   OH265473   4.384   2.033   2.070  1.0714 -0.2699 -0.4689
14661TIP3    H165474   4.304   2.057   2.117  0.7781 -1.1730 -0.4835
14661TIP3    H265475   4.454   2.082   2.113  0.5784  0.1070 -0.1011
14662TIP3   OH265476   2.282   6.313   0.394 -0.0838 -0.1958 -0.0423
14662TIP3    H165477   2.200   6.356   0.370  1.1420  2.0130 -0.3640
14662TIP3    H265478   2.312   6.359   0.472  2.0737  0.6392 -1.3114
14663TIP3   OH265479   0.015   1.552   1.224 -0.1670  0.6233 -0.2200
14663TIP3    H165480  -0.026   1.596   1.150  0.2818  0.3972 -0.6053
14663TIP3    H265481  -0.057   1.503   1.264 -0.5456  1.2509 -0.1237
14664TIP3   OH265482   6.137   4.992   3.281 -0.2255  0.4912  0.8325
14664TIP3    H165483   6.147   4.916   3.338 -1.6268  0.3671  0.9466
14664TIP3    H265484   6.091   4.958   3.204  0.5537  0.9035  0.1828
14665TIP3   OH265485   4.585   2.311   1.179  0.3282  0.6758 -0.4528
14665TIP3    H165486   4.553   2.276   1.262 -0.0796  0.1697 -0.8216
14665TIP3    H265487   4.509   2.353   1.139  0.1745 -0.2909 -1.2027
14666TIP3   OH265488   6.114   1.447  13.714  0.3324  0.0353 -0.2597
14666TIP3    H165489   6.083   1.537  13.712 -0.7161 -0.3226 -0.3445
14666TIP3    H265490   6.198   1.449  13.667 -0.9558  0.5011 -2.5865
14667TIP3   OH265491   4.245   2.536   1.963  0.0093 -0.1347  0.2993
14667TIP3    H165492   4.301   2.599   2.008  1.5510 -1.7730  0.7366
14667TIP3    H265493   4.171   2.522   2.022  0.3630  0.2168  0.8238
14668TIP3   OH265494   1.621   4.394   2.421 -0.2074 -0.4189 -0.3412
14668TIP3    H165495   1.654   4.474   2.461 -4.4090  0.8091  0.9320
14668TIP3    H265496   1.595   4.339   2.494  2.1094 -2.8293 -1.2216
14669TIP3   OH265497   1.096   2.592  14.974  0.0526 -0.5027  0.1225
14669TIP3    H165498   1.117   2.685  14.971 -1.0318 -0.1939  1.8488
14669TIP3    H265499   1.137   2.561  15.055  0.6900 -1.6077 -0.6058
14670TIP3   OH265500   1.310   6.475   2.928 -0.0728 -0.5124  0.1049
14670TIP3    H165501   1.314   6.417   3.005  0.6565 -1.3905 -0.5781
14670TIP3    H265502   1.371   6.436   2.866 -1.9162 -0.7700 -1.5857
14671TIP3   OH265503   6.518   3.353  15.646 -0.0936  0.1583  0.0712
14671TIP3    H165504   6.568   3.272  15.647  0.3647  0.3868 -1.7344
14671TIP3    H265505   6.554   3.402  15.571 -0.9353  1.6507  0.6160
14672TIP3   OH265506   6.725   2.774   5.011  0.4347  0.0537 -0.1083
14672TIP3    H165507   6.639   2.801   5.042 -0.2901  0.3388 -2.2930
14672TIP3    H265508   6.762   2.853   4.971  1.1880 -0.3767 -0.2613
14673TIP3   OH265509   0.173   6.332  15.220 -0.4091 -0.4407  0.3745
14673TIP3    H165510   0.111   6.288  15.277  1.6476 -2.7913  0.8715
14673TIP3    H265511   0.239   6.266  15.200  1.2535  1.6066 -1.1969
14674TIP3   OH265512   4.767   4.726   0.913  0.0600  0.0869 -0.3652
14674TIP3    H165513   4.759   4.677   0.995  0.6076 -1.5439 -1.2900
14674TIP3    H265514   4.797   4.813   0.941 -0.8028 -0.1102  1.2569
14675TIP3   OH265515   5.448   6.520  14.713  0.0278 -0.2534 -0.0105
14675TIP3    H165516   5.379   6.585  14.723  1.7128  1.4080  1.0509
14675TIP3    H265517   5.401   6.437  14.700 -2.1364  1.0858 -1.0266
14676TIP3   OH265518   0.900   4.804   3.564  0.0780  0.0338  0.0780
14676TIP3    H165519   0.891   4.813   3.659 -1.0612  0.2536 -0.0433
14676TIP3    H265520   0.994   4.811   3.548  0.1473  1.6315  1.0359
14677TIP3   OH265521   6.478   6.612  12.166  0.0847  0.3927  0.3669
14677TIP3    H165522   6.469   6.648  12.077  0.1799 -3.7279 -1.4404
14677TIP3    H265523   6.389   6.589  12.192  0.3811 -1.0192  0.1509
14678TIP3   OH265524   3.507   4.681   0.946  0.4444  0.3959 -0.2471
14678TIP3    H165525   3.540   4.771   0.952  2.0940 -0.1239 -1.0446
14678TIP3    H265526   3.565   4.631   1.003 -0.5114 -0.1580  0.2466
14679TIP3   OH265527   1.528   6.474  14.434 -0.2016  0.6438  0.6208
14679TIP3    H165528   1.591   6.407  14.461  0.9719  1.2009 -0.6642
14679TIP3    H265529   1.445   6.427  14.427  0.7292 -0.8320 -0.9092
14680TIP3   OH265530   4.884   0.416  17.036  0.5190  0.0607  0.6590
14680TIP3    H165531   4.819   0.351  17.062  1.0597 -0.4133  0.8228
14680TIP3    H265532   4.832   0.489  17.002 -0.0884 -0.5144  0.3336
14681TIP3   OH265533   1.726   2.690   4.630 -0.2406 -0.4052 -0.4339
14681TIP3    H165534   1.659   2.720   4.569 -0.8837  0.7942  0.8126
14681TIP3    H265535   1.792   2.759   4.629  0.3133 -0.9346 -0.6398
14682TIP3   OH265536   0.808   4.511   6.399  0.1513  0.1757  0.2258
14682TIP3    H165537   0.847   4.597   6.383 -1.0089  0.6338 -0.2231
14682TIP3    H265538   0.720   4.517   6.361 -1.2346 -0.0512  3.2347
14683TIP3   OH265539   1.075   3.077  11.704  0.6161 -0.3449  1.0064
14683TIP3    H165540   1.059   3.164  11.739  0.5107  0.1484 -0.2443
14683TIP3    H265541   1.018   3.020  11.755 -1.8801  0.7839 -0.4559
14684TIP3   OH265542   2.973   4.563   2.516  0.7809 -0.1975 -0.0701
14684TIP3    H165543   2.928   4.495   2.567  0.3892 -0.2632 -0.4984
14684TIP3    H265544   3.029   4.514   2.456 -0.4068 -0.1879 -1.2158
14685TIP3   OH265545   1.937   0.850   3.806 -0.5985  0.1510 -0.4742
14685TIP3    H165546   1.991   0.927   3.823 -0.4685  0.5211 -2.4284
14685TIP3    H265547   1.856   0.867   3.854 -0.1115  0.9539  0.0720
14686TIP3   OH265548   6.332   6.236   2.518 -0.0624 -0.0292  0.4585
14686TIP3    H165549   6.309   6.327   2.501 -1.6088 -0.3345  0.8167
14686TIP3    H265550   6.292   6.187   2.447 -0.6137 -0.5854  1.1402
14687TIP3   OH265551   5.273   3.161   3.110  0.1600 -0.0719  0.1230
14687TIP3    H165552   5.325   3.239   3.132 -0.4243  0.8704 -1.7688
14687TIP3    H265553   5.273   3.158   3.015  0.2347 -2.4514  0.1629
14688TIP3   OH265554   1.648   2.577   4.067 -0.5143 -0.5218 -0.2810
14688TIP3    H165555   1.556   2.556   4.053 -0.7417 -1.3628  2.2637
14688TIP3    H265556   1.646   2.648   4.132  0.6250 -0.2592 -0.5263
14689TIP3   OH265557   3.873   5.912  11.086 -0.0495 -0.1842 -0.4851
14689TIP3    H165558   3.854   5.989  11.031 -3.2727  0.2013  1.0221
14689TIP3    H265559   3.865   5.945  11.176  0.3421 -1.9019  0.1909
14690TIP3   OH265560   2.250   4.201   0.790  0.3140 -0.5056  0.2898
14690TIP3    H165561   2.273   4.133   0.727 -1.9778  0.1396 -1.3077
14690TIP3    H265562   2.197   4.156   0.855  1.8926 -0.9725  1.2965
14691TIP3   OH265563   3.861   3.174  11.757 -0.4253  0.2195 -0.3755
14691TIP3    H165564   3.883   3.162  11.665  0.4265 -1.8893  0.0778
14691TIP3    H265565   3.766   3.164  11.761 -0.3334 -0.8533 -0.8495
14692TIP3   OH265566   4.005   5.128  12.870 -0.3757 -0.2162  0.2547
14692TIP3    H165567   4.023   5.219  12.894  1.1073  0.2207 -2.3615
14692TIP3    H265568   4.028   5.123  12.777  2.1574 -3.9100  0.9684
14693TIP3   OH265569   3.152   2.184   1.127 -0.4303 -0.5595  0.0549
14693TIP3    H165570   3.119   2.118   1.189 -0.7465  0.0430  0.5270
14693TIP3    H265571   3.229   2.221   1.169 -1.4103  0.7960  0.6950
14694TIP3   OH265572   2.321   2.133   5.906 -0.5348 -0.4341  0.0553
14694TIP3    H165573   2.363   2.056   5.868  0.6892  0.4530 -0.3928
14694TIP3    H265574   2.375   2.207   5.878 -1.6158  0.5810  0.6040
14695TIP3   OH265575   4.978   2.592   3.522  0.5777  0.2356  0.1328
14695TIP3    H165576   4.898   2.645   3.522  0.4261  0.1204  3.5624
14695TIP3    H265577   4.953   2.511   3.478 -0.8915  0.6578  0.1638
14696TIP3   OH265578   4.910   0.128  16.508  0.5385 -0.2176  0.2314
14696TIP3    H165579   4.918   0.203  16.448  0.4444 -1.4732 -1.4033
14696TIP3    H265580   4.926   0.165  16.595 -0.5796  1.8924 -0.4214
14697TIP3   OH265581   0.980   3.632  12.743 -0.1601 -0.1482 -0.2620
14697TIP3    H165582   0.979   3.606  12.835 -0.4783 -0.0775 -0.2461
14697TIP3    H265583   1.059   3.590  12.708  0.7891  1.0642  0.3910
14698TIP3   OH265584   5.613   5.088  11.021  0.5360  0.8968 -0.1548
14698TIP3    H165585   5.583   5.062  11.108 -0.3385 -1.9728 -1.2827
14698TIP3    H265586   5.533   5.112  10.974  0.6803 -0.3041 -1.0392
14699TIP3   OH265587   5.283   5.604  14.660 -0.2485 -0.0852 -0.3070
14699TIP3    H165588   5.298   5.661  14.584  0.2287 -1.1057 -0.9814
14699TIP3    H265589   5.249   5.523  14.623  0.6083 -0.8254  0.5148
14700TIP3   OH265590   4.922   1.822   0.970  0.1017 -0.1483  0.2195
14700TIP3    H165591   4.834   1.859   0.956  0.7180  0.9725 -0.7976
14700TIP3    H265592   4.953   1.801   0.882  1.0191 -0.1742  0.5468
14701TIP3   OH265593   3.411   0.546  14.497  0.1878  0.0199  0.6548
14701TIP3    H165594   3.337   0.550  14.558  0.6973 -2.1952  1.4438
14701TIP3    H265595   3.462   0.625  14.516 -1.7653  1.3744  0.3543
14702TIP3   OH265596   3.548   2.087  17.252 -0.0646 -0.0586 -0.1586
14702TIP3    H165597   3.546   2.024  17.180 -0.4933 -0.5733  0.3021
14702TIP3    H265598   3.624   2.061  17.305  0.5959  0.6726 -0.7379
14703TIP3   OH265599   6.167   1.171  15.992 -0.1618 -0.1721  0.4687
14703TIP3    H165600   6.197   1.113  16.062  1.1052 -1.6289 -1.2515
14703TIP3    H265601   6.149   1.112  15.919 -2.2890  1.2420 -0.1911
14704TIP3   OH265602   0.626   6.539   5.897  0.3563  0.4411  0.3159
14704TIP3    H165603   0.721   6.546   5.892  0.3534 -0.4590 -1.2218
14704TIP3    H265604   0.608   6.445   5.892 -0.6415  0.6489 -0.1774
14705TIP3   OH265605   1.613   0.205  14.866 -0.3903  0.1254  0.4045
14705TIP3    H165606   1.674   0.267  14.906  0.3382  0.9563 -1.9226
14705TIP3    H265607   1.668   0.148  14.812 -1.3260 -1.0538  0.6716
14706TIP3   OH265608   5.064   1.687  10.978  0.0914  0.8862  0.1122
14706TIP3    H165609   5.053   1.749  11.050 -0.3483  0.7105  0.1960
14706TIP3    H265610   4.990   1.704  10.920  0.0234  0.5055  0.0875
14707TIP3   OH265611   0.314   4.915  16.179  0.6086 -0.1633  0.5228
14707TIP3    H165612   0.391   4.960  16.215  0.1801 -1.3592  3.0056
14707TIP3    H265613   0.350   4.836  16.138  0.8462 -0.0991  0.6056
14708TIP3   OH265614   0.002   6.770   4.114 -0.0633 -0.0138 -0.2626
14708TIP3    H165615   0.005   6.841   4.178 -0.6691  0.0975 -0.3572
14708TIP3    H265616  -0.091   6.752   4.102  0.1066 -1.8789  0.9278
14709TIP3   OH265617   1.705   5.429   3.465 -0.3250 -0.3180 -0.1294
14709TIP3    H165618   1.675   5.371   3.535 -0.8672  0.4731  0.2994
14709TIP3    H265619   1.702   5.375   3.386  1.1449 -1.4818  0.5963
14710TIP3   OH265620   1.255   1.348   6.561  0.2903  0.3803  0.1578
14710TIP3    H165621   1.189   1.354   6.491  0.6660 -0.1788 -0.2547
14710TIP3    H265622   1.338   1.366   6.517  0.2759  2.4156  0.9375
14711TIP3   OH265623   1.493   4.768  13.653  0.2660 -0.2855 -0.1108
14711TIP3    H165624   1.510   4.754  13.746 -1.0325  1.1455  0.3570
14711TIP3    H265625   1.458   4.685  13.622 -1.3466 -0.0919  1.1616
14712TIP3   OH265626   3.326   1.814   0.429  0.3343  0.0332 -0.0021
14712TIP3    H165627   3.284   1.729   0.443  1.4767 -0.4683  0.4406
14712TIP3    H265628   3.419   1.799   0.447  0.5194  1.4329  0.3223
14713TIP3   OH265629   1.224   2.492  14.518 -0.5137  0.0417 -1.2109
14713TIP3    H165630   1.158   2.546  14.562 -1.0543 -2.1449  0.7844
14713TIP3    H265631   1.184   2.404  14.514  1.9837 -1.1614 -0.5817
14714TIP3   OH265632   6.525   0.129   6.560  0.4288 -0.2458 -0.6449
14714TIP3    H165633   6.556   0.186   6.489  0.7858 -0.3210 -0.5510
14714TIP3    H265634   6.460   0.182   6.607  1.1764  0.3008 -0.2092
14715TIP3   OH265635   3.681   4.774   5.730  0.6279  0.3715  0.0306
14715TIP3    H165636   3.686   4.684   5.696  0.6470  0.2309  0.4081
14715TIP3    H265637   3.593   4.804   5.705  0.2486 -0.1041  0.7900
14716TIP3   OH265638   3.875   2.467  16.064 -0.1929  0.1956 -0.6418
14716TIP3    H165639   3.803   2.420  16.108  0.9040 -1.3072 -0.4276
14716TIP3    H265640   3.954   2.430  16.102  0.7176  1.6027 -1.1405
14717TIP3   OH265641   5.132   0.587  17.140 -0.0453  0.4806 -0.1981
14717TIP3    H165642   5.049   0.552  17.109  0.2175 -0.3606  0.0403
14717TIP3    H265643   5.112   0.620  17.228 -0.0196 -0.1679  0.0565
14718TIP3   OH265644   6.352   4.505   1.160  0.0594  0.1818  0.2464
14718TIP3    H165645   6.371   4.421   1.119  0.2194  0.0953  0.4942
14718TIP3    H265646   6.289   4.484   1.229 -0.3353  0.3517 -0.0653
14719TIP3   OH265647   4.248   1.006  15.797  0.3190 -0.1195  0.8331
14719TIP3    H165648   4.216   0.964  15.877  0.8977 -0.1757  1.0354
14719TIP3    H265649   4.289   0.935  15.747 -2.0686 -0.5637 -0.5799
14720TIP3   OH265650   5.912   1.756   4.231  0.0290  0.4180  0.0633
14720TIP3    H165651   5.928   1.702   4.153 -0.7947  0.5462 -0.1962
14720TIP3    H265652   5.965   1.714   4.299  0.9390  0.4436 -0.6157
14721TIP3   OH265653   2.125   5.895   2.861  0.4062  0.1799 -0.6898
14721TIP3    H165654   2.177   5.870   2.937 -0.4560 -2.0583 -0.7845
14721TIP3    H265655   2.058   5.826   2.855 -0.0256  0.7709 -2.9813
14722TIP3   OH265656   2.257   4.075  12.634  0.5936  0.0285 -0.3338
14722TIP3    H165657   2.249   4.066  12.729 -0.0383  1.3544 -0.2491
14722TIP3    H265658   2.196   4.145  12.612 -1.0986 -1.9403 -2.0545
14723TIP3   OH265659   1.989   1.019   4.148  0.2378 -0.0123  0.0190
14723TIP3    H165660   1.925   1.082   4.114 -0.9870 -2.4921 -2.5165
14723TIP3    H265661   1.996   1.039   4.241 -2.0841  2.1825 -0.2305
14724TIP3   OH265662   3.696   1.311  15.704  0.5224  0.2202 -0.0118
14724TIP3    H165663   3.674   1.393  15.748  0.9466  1.5667 -2.2181
14724TIP3    H265664   3.634   1.306  15.631 -1.7473 -3.1487  2.0245
14725TIP3   OH265665   3.055   3.040  14.595  0.4065  0.2363 -0.2929
14725TIP3    H165666   2.964   3.011  14.598  0.2094  0.8189 -0.5896
14725TIP3    H265667   3.083   3.041  14.687  0.4885 -1.0958 -0.2949
14726TIP3   OH265668   6.011   1.449   0.587 -0.4237 -0.6271  0.0382
14726TIP3    H165669   6.031   1.409   0.671 -2.2767  0.7376  1.1760
14726TIP3    H265670   5.997   1.376   0.527  2.2433 -1.6017  0.5516
14727TIP3   OH265671   4.965   3.591  13.338  0.1137  0.5181  0.0215
14727TIP3    H165672   5.011   3.673  13.321 -0.2722  0.8040  0.3571
14727TIP3    H265673   4.896   3.588  13.273  0.3672  0.2702 -0.2390
14728TIP3   OH265674   5.414   0.593  10.874  0.1646 -0.1537  0.2778
14728TIP3    H165675   5.401   0.641  10.956  0.5955  0.0136  0.2515
14728TIP3    H265676   5.379   0.650  10.806 -0.6863 -0.5240  0.3982
14729TIP3   OH265677   6.033   3.878   0.275  0.0232 -0.3185  0.4831
14729TIP3    H165678   6.052   3.943   0.207  1.5296 -0.1333  1.0586
14729TIP3    H265679   5.967   3.920   0.330 -2.2244 -0.9915 -1.6011
14730TIP3   OH265680   0.436   1.630   6.339  0.3596 -0.3960  0.7240
14730TIP3    H165681   0.343   1.643   6.353  0.7227  1.2563  1.7571
14730TIP3    H265682   0.467   1.715   6.307  1.2735 -1.3283 -0.9590
14731TIP3   OH265683   0.128   2.878   6.120 -0.0485  0.3211  0.4749
14731TIP3    H165684   0.151   2.840   6.205 -0.5977 -1.5299 -0.1885
14731TIP3    H265685   0.186   2.833   6.058  0.3384  1.6511 -0.1349
14732TIP3   OH265686   2.911   5.572   4.458  0.4886  0.1826  0.1534
14732TIP3    H165687   2.937   5.503   4.519  1.0236  0.8311  0.6732
14732TIP3    H265688   2.993   5.605   4.422  0.2812  0.9183  0.3356
14733TIP3   OH265689   5.899   1.525   2.538 -0.3154 -0.5022  0.6393
14733TIP3    H165690   5.869   1.583   2.468 -0.4802  0.1004  1.2049
14733TIP3    H265691   5.994   1.534   2.536 -0.4414  1.5381  2.1902
14734TIP3   OH265692   2.298   5.412  16.265  0.4250 -0.2243  0.3922
14734TIP3    H165693   2.207   5.436  16.282  0.2968 -1.0094  0.8464
14734TIP3    H265694   2.303   5.320  16.290  1.7658  0.2733  2.0900
14735TIP3   OH265695   4.151   5.652   4.570 -0.0748  0.2179  0.2225
14735TIP3    H165696   4.134   5.714   4.499 -0.4414  0.1890  0.2867
14735TIP3    H265697   4.073   5.656   4.626  0.5189  0.7687  1.0170
14736TIP3   OH265698   0.165   5.811  14.983  0.3548  0.0282 -0.2106
14736TIP3    H165699   0.166   5.717  14.963 -2.6416  0.0283 -0.5210
14736TIP3    H265700   0.197   5.816  15.073  0.4176 -1.3180 -0.1412
14737TIP3   OH265701   3.871   6.728  13.590  0.4219  0.4986 -0.2440
14737TIP3    H165702   3.915   6.661  13.537  0.9034  0.4003  0.2793
14737TIP3    H265703   3.854   6.685  13.673  0.3658  0.8985 -0.0492
14738TIP3   OH265704   4.077   0.290  16.622  0.3185 -0.2065 -0.7213
14738TIP3    H165705   4.091   0.240  16.703 -0.4042  0.3297 -0.2511
14738TIP3    H265706   4.005   0.245  16.578  0.4434 -0.2663 -0.8604
14739TIP3   OH265707   3.772   2.580   3.429 -0.2709 -0.0804  0.3963
14739TIP3    H165708   3.697   2.633   3.399  0.5606  1.1183  0.4198
14739TIP3    H265709   3.796   2.529   3.352 -1.7729 -1.2814  0.6815
14740TIP3   OH265710   0.212   2.766   4.445 -0.3228  0.5762  0.1615
14740TIP3    H165711   0.226   2.783   4.352 -1.1729 -1.4188 -0.3660
14740TIP3    H265712   0.133   2.711   4.448  0.9029 -1.1723  1.8526
14741TIP3   OH265713   1.043   3.167   0.080  0.7008 -0.5473 -0.4127
14741TIP3    H165714   1.127   3.175   0.126  0.9244  0.2598 -0.9431
14741TIP3    H265715   1.053   3.224   0.004 -0.8229  0.5908  0.2247
14742TIP3   OH265716   2.830   1.036   4.663 -0.0228  0.5372 -0.4311
14742TIP3    H165717   2.899   0.974   4.685  1.6045  3.0302  1.7850
14742TIP3    H265718   2.772   1.036   4.739 -1.0827  0.3454 -1.2231
14743TIP3   OH265719   0.097   1.818  10.857 -0.0782 -0.0064  0.3607
14743TIP3    H165720   0.077   1.782  10.770 -1.7174 -0.7729  1.0259
14743TIP3    H265721   0.176   1.870  10.844  0.0760 -0.6570 -1.4545
14744TIP3   OH265722   3.288   0.854  11.979 -0.5479 -0.3195 -0.3433
14744TIP3    H165723   3.268   0.894  12.063  0.7131 -0.8153  0.1962
14744TIP3    H265724   3.220   0.787  11.968 -1.0770  0.1580 -0.0139
14745TIP3   OH265725   5.696   0.230   5.048  0.2807  0.3427 -0.2304
14745TIP3    H165726   5.626   0.206   4.987  0.4048  0.4526 -0.4167
14745TIP3    H265727   5.702   0.325   5.041 -1.6501  0.6626  2.0828
14746TIP3   OH265728   0.563   5.088   5.192 -0.1486  0.2683  0.0708
14746TIP3    H165729   0.558   5.048   5.279  1.6643  1.3600  0.6840
14746TIP3    H265730   0.584   5.015   5.134 -0.7788 -0.3573  0.6152
14747TIP3   OH265731   5.176   5.039  13.251 -0.0555 -0.7181 -0.6211
14747TIP3    H165732   5.081   5.040  13.269 -0.2637 -1.1041 -1.6825
14747TIP3    H265733   5.214   5.004  13.332 -0.3863  3.7773  1.6398
14748TIP3   OH265734   1.996   1.060  11.421  0.1431 -0.6138  0.5149
14748TIP3    H165735   1.908   1.085  11.448 -0.3065  1.2328 -2.3682
14748TIP3    H265736   1.983   0.977  11.373  0.2596 -1.3400  1.7262
14749TIP3   OH265737   5.819   2.158   2.214 -0.1313 -0.2079 -0.2913
14749TIP3    H165738   5.749   2.109   2.257 -1.6489  2.1649  0.0777
14749TIP3    H265739   5.773   2.217   2.154  1.5453  1.4051 -0.0442
14750TIP3   OH265740   5.538   2.522  13.196 -0.4167 -0.2072 -0.0615
14750TIP3    H165741   5.450   2.524  13.234 -0.8742  0.4667 -1.1225
14750TIP3    H265742   5.534   2.586  13.125  0.9321 -0.1852 -0.1262
14751TIP3   OH265743   5.935   0.060  14.969  0.4364 -0.1225  0.0119
14751TIP3    H165744   6.011   0.061  15.027  0.8708 -1.7562 -0.4845
14751TIP3    H265745   5.952   0.131  14.906  1.2159 -0.0389  0.3102
14752TIP3   OH265746   4.995   1.207  16.790 -0.1473  0.1599  0.0039
14752TIP3    H165747   4.905   1.192  16.761  0.0031  0.7848 -0.7997
14752TIP3    H265748   5.010   1.139  16.856 -1.0737 -0.1910 -0.1350
14753TIP3   OH265749   4.287   2.166   0.200  0.9769  0.4343  0.3044
14753TIP3    H165750   4.341   2.240   0.228 -0.3790  1.3387  0.6014
14753TIP3    H265751   4.247   2.133   0.281  1.0230 -0.1710  0.0826
14754TIP3   OH265752   1.488   1.156   4.340  0.1678 -0.5071 -0.3214
14754TIP3    H165753   1.554   1.224   4.346 -0.0749 -0.4331  1.8258
14754TIP3    H265754   1.425   1.189   4.276  1.5110 -0.0018 -1.4097
14755TIP3   OH265755   3.570   3.194   0.176  0.4494  0.3387 -0.1823
14755TIP3    H165756   3.655   3.237   0.178  0.4283  0.3243  1.1471
14755TIP3    H265757   3.554   3.167   0.266 -0.4587 -0.6630 -0.6321
14756TIP3   OH265758   0.738   4.937  16.856 -0.1268  0.0109 -0.2646
14756TIP3    H165759   0.822   4.970  16.890 -1.3539  1.8110  1.1155
14756TIP3    H265760   0.749   4.940  16.761  0.1818  3.6451 -0.2143
14757TIP3   OH265761   3.982   1.866  13.634 -0.2140 -0.2399 -0.4359
14757TIP3    H165762   3.964   1.959  13.647 -0.4668 -0.4403  0.6552
14757TIP3    H265763   3.916   1.838  13.570  0.1959  0.4437 -1.1645
14758TIP3   OH265764   2.333   4.376  10.737  0.5148 -0.0964  0.1940
14758TIP3    H165765   2.385   4.375  10.656  1.2952 -1.9257  0.6893
14758TIP3    H265766   2.242   4.378  10.707  0.7953 -0.9366 -0.7329
14759TIP3   OH265767   1.226   0.297  14.753 -0.2305 -1.0053  0.1002
14759TIP3    H165768   1.255   0.237  14.821  0.8803 -1.2696 -0.5814
14759TIP3    H265769   1.163   0.246  14.701  1.2233 -1.8295 -0.8857
14760TIP3   OH265770   2.404   0.654   0.531 -0.0464 -0.2869  0.1772
14760TIP3    H165771   2.469   0.672   0.463  0.8131  0.7326  1.2543
14760TIP3    H265772   2.422   0.564   0.559 -0.2047 -0.6016 -0.7090
14761TIP3   OH265773   2.567   1.721  17.106 -0.5913 -0.0308 -0.4718
14761TIP3    H165774   2.587   1.782  17.035  0.6990 -0.7038 -0.7166
14761TIP3    H265775   2.558   1.636  17.063  1.6790 -0.7054  0.2996
14762TIP3   OH265776   2.510   2.401  14.113 -0.1111 -0.3546 -0.3858
14762TIP3    H165777   2.530   2.493  14.131 -1.1389  0.0409 -1.2077
14762TIP3    H265778   2.595   2.357  14.118  0.2289  0.4443  1.0952
14763TIP3   OH265779   2.794   5.249  16.546  0.4295 -0.2884  0.3109
14763TIP3    H165780   2.862   5.275  16.485  1.6080 -0.1410  1.6531
14763TIP3    H265781   2.757   5.331  16.579 -1.8358 -0.3472 -1.9187
14764TIP3   OH265782   3.964   0.694  14.796  0.6703 -0.1932  0.0542
14764TIP3    H165783   3.946   0.730  14.882  0.5858 -0.5184  0.1727
14764TIP3    H265784   3.933   0.604  14.800  0.6533 -0.2077 -0.3201
14765TIP3   OH265785   2.916   6.021  14.304 -0.3454  0.2555  0.0734
14765TIP3    H165786   2.873   6.061  14.380  0.3873  0.1566  0.5472
14765TIP3    H265787   2.881   5.932  14.302 -0.1938  0.1860  0.4351
14766TIP3   OH265788   1.131   2.314   0.082  0.2674 -0.4825  0.2146
14766TIP3    H165789   1.055   2.363   0.052 -0.3251 -2.1389 -1.0722
14766TIP3    H265790   1.203   2.377   0.081 -0.2593  0.1213 -2.4107
14767TIP3   OH265791   5.008   0.892   6.100  1.0327 -0.6801  0.1090
14767TIP3    H165792   4.991   0.806   6.138  0.9425  0.0257  1.6941
14767TIP3    H265793   5.020   0.949   6.175  1.5187  0.6151 -0.9421
14768TIP3   OH265794   6.535   0.614   4.117 -0.0782 -0.1407 -0.5102
14768TIP3    H165795   6.569   0.704   4.118  0.0731 -0.2001  1.1616
14768TIP3    H265796   6.602   0.563   4.162 -0.5962 -0.9382 -0.6402
14769TIP3   OH265797   5.552   5.232  13.117 -0.6679  0.0411  0.5924
14769TIP3    H165798   5.626   5.207  13.062  0.4008  1.7181  1.2258
14769TIP3    H265799   5.591   5.280  13.190 -2.3563  0.8154  1.0247
14770TIP3   OH265800   4.478   4.965   0.904 -0.1396 -0.1480  0.7610
14770TIP3    H165801   4.487   4.901   0.833 -1.1051  0.1060  0.4028
14770TIP3    H265802   4.406   5.022   0.876  0.0572  0.4903  1.5390
14771TIP3   OH265803   1.944   6.451   2.604  0.9559 -0.1198 -0.1735
14771TIP3    H165804   1.962   6.386   2.672 -0.1393  1.3016  1.5545
14771TIP3    H265805   1.907   6.401   2.532  0.5678 -1.4865  0.9403
14772TIP3   OH265806   1.094   4.076  15.323 -0.7285 -0.3857 -0.7478
14772TIP3    H165807   1.184   4.082  15.357 -0.5885  1.6297 -1.4632
14772TIP3    H265808   1.040   4.118  15.390 -1.1027 -1.2339 -0.5096
14773TIP3   OH265809   0.940   4.499   0.712  0.7456 -0.3918  0.1171
14773TIP3    H165810   1.013   4.559   0.694  2.4618 -2.6445 -0.5649
14773TIP3    H265811   0.976   4.434   0.772 -1.0798 -0.8268  0.7841
14774TIP3   OH265812   6.277   6.695  13.310 -0.0339  0.1579  0.2290
14774TIP3    H165813   6.239   6.653  13.233 -1.1097  0.3099  0.6718
14774TIP3    H265814   6.371   6.675  13.304 -0.2462 -0.6367 -0.6074
14775TIP3   OH265815   5.214   1.734  12.955 -0.1445 -0.5366  0.3151
14775TIP3    H165816   5.294   1.705  12.911 -0.3321 -1.1343  0.3644
14775TIP3    H265817   5.219   1.696  13.043 -0.5238 -0.6608  0.2860
14776TIP3   OH265818   2.370   3.390  14.365  0.4158  0.5907  0.3577
14776TIP3    H165819   2.350   3.411  14.456 -0.5878  1.3058 -0.0206
14776TIP3    H265820   2.460   3.358  14.367  0.0340 -0.4142  1.7503
14777TIP3   OH265821   1.673   5.091  14.747  0.1031 -0.5704  0.0701
14777TIP3    H165822   1.621   5.093  14.827 -1.8918  1.3119 -1.2343
14777TIP3    H265823   1.754   5.137  14.769  0.7448 -2.3981  1.7346
14778TIP3   OH265824   4.418   1.546  12.753 -0.2543 -0.3647 -0.6950
14778TIP3    H165825   4.421   1.485  12.679  1.2243 -0.9373 -0.1915
14778TIP3    H265826   4.494   1.522  12.806  0.0131  1.5473 -0.1858
14779TIP3   OH265827   0.362   4.016  15.070  0.5668 -0.3287 -0.1605
14779TIP3    H165828   0.410   3.954  15.016  0.2860  0.4354 -1.3005
14779TIP3    H265829   0.271   3.985  15.067 -0.1819  1.9314 -3.4091
14780TIP3   OH265830   2.885   0.982  13.786  0.0528  0.3024 -0.3064
14780TIP3    H165831   2.815   1.000  13.723  0.5229  2.5089 -0.2450
14780TIP3    H265832   2.961   1.027  13.750  0.5537  0.8495  1.3794
14781TIP3   OH265833   4.589   3.260   3.885  0.0759  0.1953  0.4659
14781TIP3    H165834   4.534   3.265   3.962 -0.3378  2.1630  0.0670
14781TIP3    H265835   4.528   3.259   3.811  0.5150  0.4555  0.0947
14782TIP3   OH265836   1.702   4.382   4.643  0.2100 -0.0139  0.0346
14782TIP3    H165837   1.743   4.355   4.561 -2.5783  0.5380 -1.6060
14782TIP3    H265838   1.686   4.475   4.632 -1.5119 -0.2377  0.6142
14783TIP3   OH265839   4.072   4.727   3.050 -0.4161 -0.2037  0.7284
14783TIP3    H165840   4.117   4.649   3.081 -0.2579 -0.5459 -0.3396
14783TIP3    H265841   3.980   4.703   3.049 -0.2350 -0.8607 -0.9658
14784TIP3   OH265842   6.447   6.172  16.768  0.0431 -0.6786 -0.8321
14784TIP3    H165843   6.476   6.250  16.814 -3.4912 -0.0492  0.4867
14784TIP3    H265844   6.468   6.100  16.827  2.6386 -0.7255 -1.7358
14785TIP3   OH265845   1.799   5.987   5.375  0.3717 -0.4214 -0.1293
14785TIP3    H165846   1.783   6.049   5.304 -1.2244 -1.4671 -0.7234
14785TIP3    H265847   1.874   5.935   5.345  0.0069 -0.5457 -0.8546
14786TIP3   OH265848   1.360   5.644  15.408 -0.1616 -0.0938  0.2772
14786TIP3    H165849   1.351   5.739  15.406  2.1966  0.1562  0.8277
14786TIP3    H265850   1.406   5.622  15.327  1.1639 -0.5363  1.1358
14787TIP3   OH265851   0.071   2.152   4.360 -0.0156 -0.2172  0.2692
14787TIP3    H165852  -0.005   2.188   4.405 -0.6782 -1.1049 -0.1156
14787TIP3    H265853   0.112   2.227   4.319 -2.2985 -0.0764 -1.9019
14788TIP3   OH265854   3.583   4.388  12.925 -0.5814 -0.3695 -0.3213
14788TIP3    H165855   3.543   4.420  12.844 -1.2852 -1.2754 -0.3329
14788TIP3    H265856   3.671   4.362  12.899 -0.7044 -0.3811 -0.7331
14789TIP3   OH265857   4.351   0.649   4.524 -0.1919  0.2632 -0.1557
14789TIP3    H165858   4.386   0.729   4.562 -2.0744  0.7174  0.6540
14789TIP3    H265859   4.406   0.633   4.447  0.6944  1.8733  0.1212
14790TIP3   OH265860   0.050   5.506   4.275 -0.0177 -0.3064  1.0226
14790TIP3    H165861   0.063   5.454   4.354 -0.3915  0.2563  1.4506
14790TIP3    H265862  -0.034   5.476   4.240  0.5736 -1.2063  0.3323
14791TIP3   OH265863   4.751   2.134  14.483  0.0685  0.1254  0.6079
14791TIP3    H165864   4.667   2.129  14.438  0.3136 -1.2432  0.2895
14791TIP3    H265865   4.731   2.106  14.573  0.4705 -1.6727  0.1394
14792TIP3   OH265866   4.105   4.275  16.593  0.2759  0.2672 -0.1443
14792TIP3    H165867   4.107   4.371  16.596 -0.8739  0.2549  1.9613
14792TIP3    H265868   4.197   4.250  16.582  0.7011  1.6056  0.2428
14793TIP3   OH265869   6.654   2.171   1.949  0.5726 -0.1511  0.0156
14793TIP3    H165870   6.692   2.225   1.880 -1.5599  2.4162  0.7679
14793TIP3    H265871   6.567   2.148   1.916  0.8859 -1.9075  0.3618
14794TIP3   OH265872   1.228   4.727   2.010 -0.6128 -0.7018  0.1896
14794TIP3    H165873   1.247   4.640   1.976  0.1014 -0.1955 -0.7225
14794TIP3    H265874   1.280   4.786   1.956 -2.0954  0.4173 -0.0633
14795TIP3   OH265875   0.591   3.078  11.754 -0.0211 -0.2812  0.7254
14795TIP3    H165876   0.579   3.149  11.691  1.9796 -1.0877 -0.6001
14795TIP3    H265877   0.509   3.029  11.750 -0.2676  0.2214 -0.5621
14796TIP3   OH265878   6.155   2.226  14.063 -0.2277 -0.1248 -0.7763
14796TIP3    H165879   6.110   2.220  14.147  0.0962  0.2523 -0.5773
14796TIP3    H265880   6.248   2.221  14.085 -0.0977  1.2290 -1.0031
14797TIP3   OH265881   0.167   5.045   4.826  0.0914 -0.1991 -0.1147
14797TIP3    H165882   0.224   5.049   4.903  1.5552  0.5655 -1.2138
14797TIP3    H265883   0.203   4.973   4.774  0.8314  1.0985 -1.4119
14798TIP3   OH265884   3.181   2.198   1.677 -0.3332  0.0777  0.4845
14798TIP3    H165885   3.175   2.276   1.622 -0.5929 -0.1028  0.2574
14798TIP3    H265886   3.263   2.210   1.726  0.4425 -0.2447 -0.6994
14799TIP3   OH265887   5.072   2.921   4.350  0.1194  0.1323  0.1880
14799TIP3    H165888   5.142   2.876   4.398  2.2101  0.6144 -2.2739
14799TIP3    H265889   5.053   2.864   4.276 -1.5541  0.4056  0.3935
14800TIP3   OH265890   1.871   3.434  14.842  0.1124  0.1017 -0.7242
14800TIP3    H165891   1.889   3.442  14.935  0.5447 -0.6622 -0.7370
14800TIP3    H265892   1.783   3.398  14.837 -0.6724  1.9673 -0.6361
14801TIP3   OH265893   0.629   4.247   5.032  0.3345  0.3559  0.0444
14801TIP3    H165894   0.687   4.226   4.959  0.5643  0.0612  0.3119
14801TIP3    H265895   0.686   4.288   5.096  0.2697 -0.0531  0.3624
14802TIP3   OH265896   4.806   3.882   3.190 -0.3053  0.2190  0.7283
14802TIP3    H165897   4.885   3.882   3.244 -1.4813  0.7480  2.5040
14802TIP3    H265898   4.737   3.849   3.248 -1.5842  0.7354 -0.4613
14803TIP3   OH265899   0.041   1.811   5.732  0.3577  0.0018  0.2924
14803TIP3    H165900   0.026   1.745   5.664 -2.5560  0.5602  0.3428
14803TIP3    H265901   0.103   1.872   5.692 -0.6086 -0.1865 -1.5479
14804TIP3   OH265902   1.530   2.112   0.634  0.0158  0.7252  0.5000
14804TIP3    H165903   1.567   2.187   0.587  0.4001  1.1140  1.4189
14804TIP3    H265904   1.443   2.101   0.595  0.0969  1.4135  0.1066
14805TIP3   OH265905   0.609   3.608  14.906 -0.0447 -0.5765 -0.1781
14805TIP3    H165906   0.646   3.581  14.822 -1.6284 -0.1741 -1.0236
14805TIP3    H265907   0.647   3.547  14.969 -0.7828 -2.4886 -1.5415
14806TIP3   OH265908   6.094   5.354  12.705 -0.0970  0.2337  0.2840
14806TIP3    H165909   6.162   5.383  12.765  0.8980  0.5036 -0.9452
14806TIP3    H265910   6.052   5.434  12.675 -0.8964  0.0726  0.9622
14807TIP3   OH265911   4.590   2.185  11.234 -0.0950 -0.0261  0.0941
14807TIP3    H165912   4.615   2.273  11.204 -0.6339  0.1444  0.1332
14807TIP3    H265913   4.544   2.147  11.160  0.1885 -0.2964  0.0604
14808TIP3   OH265914   5.128   6.300   1.894 -0.0052 -0.0219  0.5772
14808TIP3    H165915   5.174   6.221   1.866  2.4088  0.6611  2.4611
14808TIP3    H265916   5.040   6.292   1.856  1.0416 -2.3038 -1.4502
14809TIP3   OH265917   2.829   5.661  15.941  0.2660 -0.0932  0.3512
14809TIP3    H165918   2.855   5.579  15.898 -2.6577  0.0165 -1.7848
14809TIP3    H265919   2.902   5.721  15.923  1.5725 -1.6564  0.2840
14810TIP3   OH265920   2.495   1.906  10.701  0.0790  0.4743 -0.7995
14810TIP3    H165921   2.430   1.931  10.635 -0.4711 -1.0640 -0.8592
14810TIP3    H265922   2.520   1.817  10.678  0.4227  0.1872  0.6419
14811TIP3   OH265923   0.223   5.046   4.467 -0.3811 -0.1806 -0.0326
14811TIP3    H165924   0.231   4.960   4.426  1.2326  0.0329 -0.1979
14811TIP3    H265925   0.129   5.062   4.471 -0.7429 -2.3841  0.9234
14812TIP3   OH265926   4.348   4.828   1.934  0.6710 -0.7654  0.0080
14812TIP3    H165927   4.405   4.811   1.860 -1.7051  2.9958 -2.8584
14812TIP3    H265928   4.266   4.784   1.912 -1.2739  3.3696 -1.4847
14813TIP3   OH265929   6.476   2.436   1.986 -0.1187  0.1974  0.4764
14813TIP3    H165930   6.423   2.359   1.964 -1.5973  0.8680  1.6030
14813TIP3    H265931   6.467   2.494   1.911 -0.6916  0.1470  0.5024
14814TIP3   OH265932   2.942   0.293   1.215  0.1107 -0.6606 -0.3495
14814TIP3    H165933   2.891   0.233   1.269 -0.1548 -1.5977 -1.5946
14814TIP3    H265934   2.888   0.372   1.207 -0.9581 -1.4684 -1.2681
14815TIP3   OH265935   0.955   0.103  15.419 -0.0166 -0.8116  0.6915
14815TIP3    H165936   0.911   0.019  15.405  1.5671 -1.6009  0.2218
14815TIP3    H265937   0.887   0.161  15.452 -1.4226 -1.9460 -0.1414
14816TIP3   OH265938   1.464   0.174  13.624 -0.1175 -0.4389  0.4850
14816TIP3    H165939   1.423   0.139  13.545  0.6603 -1.2466  0.4361
14816TIP3    H265940   1.413   0.253  13.644 -0.5266 -0.4119 -0.6232
14817TIP3   OH265941   5.458   0.391   1.894  0.4500  0.5499 -0.4562
14817TIP3    H165942   5.510   0.461   1.854  2.1643 -0.7470 -0.5054
14817TIP3    H265943   5.440   0.331   1.822 -0.4402  0.5660 -0.2592
14818TIP3   OH265944   6.779   5.333  12.610 -0.2667  0.4644 -0.4520
14818TIP3    H165945   6.807   5.421  12.638 -0.2474  0.7859 -1.4719
14818TIP3    H265946   6.685   5.343  12.595 -0.3899  0.1335  0.0750
14819TIP3   OH265947   2.712   2.255   5.128 -0.0237 -0.2811  0.0364
14819TIP3    H165948   2.799   2.284   5.156 -0.7395 -0.0161  2.1040
14819TIP3    H265949   2.726   2.165   5.099  0.4367 -1.3492  3.3670
14820TIP3   OH265950   4.593   4.766   5.307 -0.4695  0.3198  0.5460
14820TIP3    H165951   4.609   4.856   5.279 -1.6346  0.8856  1.6985
14820TIP3    H265952   4.523   4.735   5.250 -0.3584  0.2731  0.4343
14821TIP3   OH265953   1.962   6.434   3.351  0.5068  0.2367 -0.0720
14821TIP3    H165954   1.987   6.447   3.259 -0.8704  0.3140 -0.4497
14821TIP3    H265955   1.984   6.516   3.393  0.6613  0.3872 -0.4390
14822TIP3   OH265956   4.183   0.711   4.251  0.0995  0.0586 -0.0731
14822TIP3    H165957   4.206   0.693   4.342 -0.9163 -1.6214 -0.1210
14822TIP3    H265958   4.152   0.801   4.251 -2.0738 -0.6581  1.6984
14823TIP3   OH265959   2.457   2.131  12.346 -0.3456  0.3923 -0.2084
14823TIP3    H165960   2.362   2.127  12.339 -0.2078 -1.7425 -1.2304
14823TIP3    H265961   2.484   2.186  12.272 -0.6380 -1.2301 -1.5613
14824TIP3   OH265962   1.811   0.175  10.731  0.1488  0.1015 -0.3110
14824TIP3    H165963   1.838   0.087  10.705 -1.0354 -0.1632 -0.7064
14824TIP3    H265964   1.800   0.170  10.826 -1.1630 -0.5544 -0.4775
14825TIP3   OH265965   4.010   2.375  16.734 -0.4759  0.1016 -0.2105
14825TIP3    H165966   3.969   2.336  16.811 -2.2838  1.1676 -0.6049
14825TIP3    H265967   3.958   2.453  16.716  1.0285  0.8434 -1.4449
14826TIP3   OH265968   2.757   1.123  13.531 -0.4298  0.0702  0.4837
14826TIP3    H165969   2.836   1.178  13.528 -1.9869  2.3298 -1.0072
14826TIP3    H265970   2.745   1.092  13.442 -1.1686 -0.3588  0.7267
14827TIP3   OH265971   5.058   4.420   5.066 -0.4276  0.2855  0.3841
14827TIP3    H165972   4.972   4.379   5.057  0.3100 -1.6030  1.7496
14827TIP3    H265973   5.092   4.389   5.150  1.6055  0.9579 -0.1481
14828TIP3   OH265974   0.807   2.137  14.079 -0.1534 -0.1234  0.1345
14828TIP3    H165975   0.773   2.105  13.996 -0.0436  0.6347 -0.2100
14828TIP3    H265976   0.730   2.160  14.130 -0.2027 -0.0843  0.0400
14829TIP3   OH265977   4.545   1.320  14.302 -0.5360  0.5484  0.7273
14829TIP3    H165978   4.519   1.293  14.214 -0.1027 -0.4309  0.8837
14829TIP3    H265979   4.637   1.294  14.307 -0.4171  1.0835  1.2852
14830TIP3   OH265980   5.164   4.354   5.310 -0.4947 -0.1567  0.2616
14830TIP3    H165981   5.241   4.298   5.320 -1.1939 -0.6379  3.8791
14830TIP3    H265982   5.190   4.438   5.347 -1.3165  0.0539  0.3700
14831TIP3   OH265983   5.783   1.158  12.485 -0.5150 -0.3035 -0.5857
14831TIP3    H165984   5.812   1.071  12.511 -0.8137 -0.3605 -0.4348
14831TIP3    H265985   5.689   1.159  12.506 -0.3672  0.2896  0.0589
14832TIP3   OH265986   5.740   2.760  12.306  0.1535  0.4437 -0.2291
14832TIP3    H165987   5.781   2.699  12.245 -1.0082 -1.4729  0.8722
14832TIP3    H265988   5.781   2.741  12.390  0.6940  2.0735 -0.1101
14833TIP3   OH265989   4.490   6.547   4.725  0.4610 -0.0434  0.3645
14833TIP3    H165990   4.503   6.642   4.720  1.3452 -0.1222  1.0327
14833TIP3    H265991   4.396   6.535   4.711  0.6102  0.7860 -1.4442
14834TIP3   OH265992   0.610   0.755  17.265 -0.2547  0.0441  0.0010
14834TIP3    H165993   0.549   0.816  17.308 -0.6803  0.0122 -0.5498
14834TIP3    H265994   0.585   0.757  17.173  1.6658  1.2795 -0.5033
14835TIP3   OH265995   1.955   1.172   6.021  0.0179  0.1712  0.7178
14835TIP3    H165996   1.931   1.118   6.096 -0.7593 -0.8707 -0.2550
14835TIP3    H265997   1.890   1.150   5.954  1.1222  0.5412 -0.5046
14836TIP3   OH265998   2.966   0.937  11.063 -0.0574 -0.3523 -0.3890
14836TIP3    H165999   3.008   0.972  11.142  0.4353 -0.2697 -0.6842
14836TIP3    H266000   2.991   0.845  11.062  2.8172  0.3872 -2.2743
14837TIP3   OH266001   0.556   5.920   0.508 -0.0109  0.2247 -0.1213
14837TIP3    H166002   0.500   5.978   0.560 -0.0330 -0.2758  0.4124
14837TIP3    H266003   0.497   5.878   0.446 -0.1089  0.2384 -0.0374
14838TIP3   OH266004   3.210   4.686  10.781 -0.5244  0.1282  0.0364
14838TIP3    H166005   3.288   4.728  10.745  0.3364 -0.4155  1.2489
14838TIP3    H266006   3.186   4.620  10.716  0.4342 -0.1691 -0.0162
14839TIP3   OH266007   5.374   4.938  15.593 -0.3795 -0.4116 -0.2090
14839TIP3    H166008   5.371   4.874  15.664  0.2051  1.1525  1.2391
14839TIP3    H266009   5.466   4.946  15.571 -0.1173  2.0369  1.5859
14840TIP3   OH266010   4.763   2.993   5.099  0.6679  0.2199  0.6165
14840TIP3    H166011   4.718   3.073   5.072  1.0991  0.7426  1.4507
14840TIP3    H266012   4.736   2.979   5.190 -0.0974 -1.0709  0.2135
14841TIP3   OH266013   3.027   4.456  10.692 -0.2711  0.3547 -0.0707
14841TIP3    H166014   2.964   4.463  10.764 -0.6195  2.2225 -0.5300
14841TIP3    H266015   2.987   4.395  10.631 -1.1056  0.6179  0.2024
14842TIP3   OH266016   3.897   0.314   2.989  0.3326  0.4259  0.3215
14842TIP3    H166017   3.925   0.362   3.067 -0.6170  1.1333  0.2477
14842TIP3    H266018   3.801   0.314   2.994  0.2746  0.0625 -0.5900
14843TIP3   OH266019   5.516   5.440   3.212  0.0226  0.1516 -0.4963
14843TIP3    H166020   5.487   5.502   3.145 -1.4041 -0.6497 -0.6390
14843TIP3    H266021   5.608   5.424   3.192  0.5511  2.5298 -0.2114
14844TIP3   OH266022   0.175   6.663   1.365 -0.2139  0.2855 -0.2457
14844TIP3    H166023   0.123   6.603   1.312 -0.3261 -0.7162  0.9704
14844TIP3    H266024   0.167   6.629   1.454  2.5549  0.0811 -0.0410
14845TIP3   OH266025   2.662   5.598   4.065  0.4187  0.4978  0.2039
14845TIP3    H166026   2.624   5.553   3.989  0.5454  0.3539  0.2260
14845TIP3    H266027   2.715   5.668   4.027 -0.1910  0.9448  0.1856
14846TIP3   OH266028   5.482   6.514  15.104 -0.3804 -0.0873 -0.2409
14846TIP3    H166029   5.576   6.528  15.092 -0.6358  2.0513  0.0549
14846TIP3    H266030   5.470   6.504  15.198 -0.7519  2.4614  0.0342
14847TIP3   OH266031   4.638   5.954   4.166  0.1185  0.0170 -0.0348
14847TIP3    H166032   4.619   5.961   4.072 -1.1397 -1.0074  0.1278
14847TIP3    H266033   4.734   5.945   4.170  0.1944  0.1533 -1.2138
14848TIP3   OH266034   6.640   2.899  12.912 -0.2126  0.1830 -0.1129
14848TIP3    H166035   6.608   2.877  12.824 -1.2112  0.0224  0.2834
14848TIP3    H266036   6.561   2.902  12.966  0.5058 -0.9414  1.0407
14849TIP3   OH266037   4.336   0.326   0.515 -0.1701  0.2615  0.3799
14849TIP3    H166038   4.375   0.312   0.601 -0.6846  0.0962  0.5881
14849TIP3    H266039   4.395   0.282   0.454 -0.1090 -0.1117  0.7074
14850TIP3   OH266040   6.527   3.532  13.710  0.3055 -0.0583 -0.3312
14850TIP3    H166041   6.568   3.618  13.713 -0.8872  0.5507 -1.3374
14850TIP3    H266042   6.461   3.534  13.779  1.0119 -0.5509  0.3628
14851TIP3   OH266043   5.315   2.435  17.037  0.6631 -0.1894 -0.2329
14851TIP3    H166044   5.314   2.445  16.942 -0.2027  0.2047 -0.1823
14851TIP3    H266045   5.408   2.441  17.061  1.0667 -2.1368 -1.2310
14852TIP3   OH266046   5.474   3.507   0.651  0.0648 -0.5290 -0.1026
14852TIP3    H166047   5.410   3.458   0.703  1.0720 -1.5231  0.2104
14852TIP3    H266048   5.459   3.478   0.561 -1.5463  1.0461 -0.3784
14853TIP3   OH266049   2.825   5.947  17.248 -0.1223  0.0191  0.0078
14853TIP3    H166050   2.821   5.901  17.332 -1.6677  0.0928 -0.0229
14853TIP3    H266051   2.778   6.029  17.263 -1.4352 -0.4799 -1.2532
14854TIP3   OH266052   6.679   5.938   5.612 -0.3140  0.2079 -0.0645
14854TIP3    H166053   6.598   5.989   5.614  0.3060  1.1628  1.3472
14854TIP3    H266054   6.656   5.854   5.653 -1.2994 -0.6483 -2.2683
14855TIP3   OH266055   0.742   0.866  15.203  0.1301 -0.0788 -0.2396
14855TIP3    H166056   0.802   0.894  15.272  1.1704  1.1856 -1.6158
14855TIP3    H266057   0.679   0.938  15.196 -0.0998 -0.3024 -0.4615
14856TIP3   OH266058   4.694   5.508  11.234  0.1556  0.0945 -0.0526
14856TIP3    H166059   4.636   5.453  11.286  0.8528 -1.7774 -1.2341
14856TIP3    H266060   4.745   5.557  11.299 -2.1728  1.2255  0.9986
14857TIP3   OH266061   4.415   2.465   3.686 -0.4594  0.0255 -0.2904
14857TIP3    H166062   4.349   2.453   3.618 -2.7971  0.5116  1.8228
14857TIP3    H266063   4.371   2.442   3.767  0.8979  3.5319  1.5773
14858TIP3   OH266064   4.951   4.549   0.353  0.1162  0.4531  0.0655
14858TIP3    H166065   4.920   4.610   0.420  1.2244 -0.1296  1.1112
14858TIP3    H266066   4.987   4.606   0.284 -0.2926  1.0195  0.3129
14859TIP3   OH266067   3.506   0.361  12.491  0.5896  0.4141  0.0117
14859TIP3    H166068   3.420   0.399  12.507  0.8238  1.4678 -1.1207
14859TIP3    H266069   3.561   0.392  12.563  0.1219  0.0883  0.5029
14860TIP3   OH266070   0.558   2.333  12.251  0.3293  0.1071  0.0993
14860TIP3    H166071   0.585   2.297  12.335 -0.0032 -0.8385 -0.1843
14860TIP3    H266072   0.627   2.306  12.190 -0.8430 -1.6450 -0.4732
14861TIP3   OH266073   0.926   0.582  13.110  0.3116 -0.3360  1.0703
14861TIP3    H166074   0.892   0.528  13.038  1.3885  2.0672 -1.3269
14861TIP3    H266075   0.872   0.661  13.109  2.6932  1.3398  0.4574
14862TIP3   OH266076   1.669   4.304  15.227 -0.2097 -0.6812 -0.5513
14862TIP3    H166077   1.606   4.266  15.288 -0.4347 -0.0557 -0.3865
14862TIP3    H266078   1.636   4.280  15.140  1.0688 -3.0619 -0.3888
14863TIP3   OH266079   2.615   4.691  14.452 -0.2236 -0.0269  0.2451
14863TIP3    H166080   2.550   4.730  14.394  1.2607  2.0555 -0.0659
14863TIP3    H266081   2.670   4.638  14.394  0.7162  1.3350 -0.1146
14864TIP3   OH266082   3.993   3.466   0.837  0.2195  0.2462 -0.0572
14864TIP3    H166083   3.904   3.432   0.843 -0.0460  1.2025  1.5514
14864TIP3    H266084   4.030   3.453   0.925  1.8174 -0.5165 -0.8057
14865TIP3   OH266085   3.532   1.503  14.451 -0.2601 -0.2316 -0.1107
14865TIP3    H166086   3.477   1.540  14.520 -0.2341  1.0649 -0.7576
14865TIP3    H266087   3.621   1.510  14.484 -0.1954  0.9313 -0.4907
14866TIP3   OH266088   6.328   1.004   4.936 -0.0701 -0.9263 -0.2030
14866TIP3    H166089   6.247   0.965   4.969 -1.3529  2.1347  0.4089
14866TIP3    H266090   6.320   0.998   4.841 -0.4267 -1.7702 -0.1245
14867TIP3   OH266091   2.070   5.768   0.290  0.4579  0.7630  0.1554
14867TIP3    H166092   2.056   5.851   0.335  1.4795  1.4629 -0.7811
14867TIP3    H266093   2.120   5.791   0.211  0.9806 -0.7707  0.0105
14868TIP3   OH266094   6.692   0.381   2.025 -0.4910 -0.1961  0.4504
14868TIP3    H166095   6.728   0.455   1.976  0.1040 -0.1112  1.0145
14868TIP3    H266096   6.660   0.420   2.107 -0.4408 -0.5196  0.6248
14869TIP3   OH266097   6.205   6.341  12.626  0.5173 -0.3981  0.1377
14869TIP3    H166098   6.167   6.282  12.691  1.0318 -0.8403  0.0408
14869TIP3    H266099   6.298   6.345  12.650  0.8575 -1.1669 -1.0235
14870TIP3   OH266100   2.102   6.355   5.739  0.0728  0.2101 -0.1155
14870TIP3    H166101   2.072   6.444   5.721  2.4087  1.1262  0.3563
14870TIP3    H266102   2.045   6.299   5.686  0.5482  2.1868 -2.8321
14871TIP3   OH266103   2.523   0.637   5.452  0.0202  0.0361  0.3087
14871TIP3    H166104   2.432   0.635   5.480  0.1602  0.2704  0.8033
14871TIP3    H266105   2.553   0.547   5.463  0.0437  0.1034  0.8368
14872TIP3   OH266106   6.692   4.461   5.504  0.1459 -0.3062 -0.5169
14872TIP3    H166107   6.749   4.457   5.580 -0.0459  0.0679 -0.3532
14872TIP3    H266108   6.603   4.463   5.541  0.1038  1.4880 -0.7037
14873TIP3   OH266109   6.003   4.557   4.754  0.1201 -0.3903  0.2060
14873TIP3    H166110   5.969   4.631   4.805  1.5690 -0.8809  1.9063
14873TIP3    H266111   5.940   4.547   4.682  0.7158  3.5297 -1.0136
14874TIP3   OH266112   5.807   3.813  15.695 -0.5236  0.3955  0.0554
14874TIP3    H166113   5.713   3.795  15.694 -0.5790  0.6503  0.5552
14874TIP3    H266114   5.847   3.738  15.650 -1.0280  0.6875 -0.8955
14875TIP3   OH266115   6.683   1.429  17.070 -0.1847  0.2424 -0.8742
14875TIP3    H166116   6.739   1.368  17.119  0.9800  0.5632 -1.7866
14875TIP3    H266117   6.666   1.501  17.131 -1.1840 -0.7610  0.0574
14876TIP3   OH266118   0.051   3.003   2.454  0.5076  0.0751 -0.0263
14876TIP3    H166119   0.085   2.914   2.442 -1.3549 -0.5228 -1.1037
14876TIP3    H266120   0.050   3.016   2.548  2.3800 -0.4116  0.0717
14877TIP3   OH266121   1.232   6.084  11.072 -0.0764 -0.2597 -0.0604
14877TIP3    H166122   1.302   6.029  11.107  0.1477  0.5581  0.8133
14877TIP3    H266123   1.257   6.101  10.981  0.6821 -0.2615  0.1445
14878TIP3   OH266124   2.474   6.457  15.276 -0.3023 -0.0613  0.2816
14878TIP3    H166125   2.489   6.550  15.260 -2.7170  0.4669  0.7924
14878TIP3    H266126   2.487   6.447  15.371 -0.8668 -0.0720  0.3583
14879TIP3   OH266127   3.684   6.764   1.411 -0.1570 -0.1391  0.0767
14879TIP3    H166128   3.673   6.810   1.328  0.4080 -0.1124  0.0180
14879TIP3    H266129   3.769   6.793   1.444  0.0645 -0.8990  0.1949
14880TIP3   OH266130   5.653   0.493   4.955  0.4110 -0.0271 -0.1709
14880TIP3    H166131   5.731   0.521   4.908  0.3504  2.7076  1.2097
14880TIP3    H266132   5.659   0.538   5.040 -1.2414 -2.0083  1.0626
14881TIP3   OH266133   2.872   1.092   0.280 -0.1951  0.2366 -0.0476
14881TIP3    H166134   2.860   1.139   0.363 -1.9013  0.4191 -0.3703
14881TIP3    H266135   2.841   1.153   0.213  3.0891  0.8831 -1.0694
14882TIP3   OH266136   0.048   6.322   3.090 -0.1891 -0.2763  0.4779
14882TIP3    H166137   0.087   6.357   3.011  0.3434 -1.7569  0.0592
14882TIP3    H266138   0.113   6.260   3.124  0.7394  2.2246  3.5222
14883TIP3   OH266139   1.731   4.532  16.159  0.0472  0.4912 -0.0987
14883TIP3    H166140   1.813   4.550  16.111  1.1301 -0.6570  1.2947
14883TIP3    H266141   1.663   4.539  16.092  1.4963 -0.7225 -1.7450
14884TIP3   OH266142   5.797   6.043   1.088 -0.4028  0.2003 -0.1815
14884TIP3    H166143   5.763   6.015   1.173 -0.6115 -0.4005 -0.4520
14884TIP3    H266144   5.747   5.990   1.024  0.7956 -0.4496 -0.6017
14885TIP3   OH266145   0.058   6.276  12.866 -0.0736  0.0252  0.0684
14885TIP3    H166146   0.007   6.239  12.939 -1.7742 -0.8895 -1.5276
14885TIP3    H266147  -0.005   6.284  12.795  1.3338  1.8507 -1.0130
14886TIP3   OH266148   1.918   0.541   5.215 -0.1876  0.1331 -0.3752
14886TIP3    H166149   1.834   0.574   5.246  0.3829 -0.6975  2.1339
14886TIP3    H266150   1.933   0.461   5.265  1.1609 -0.8231 -2.2478
14887TIP3   OH266151   0.362   4.857  14.406 -0.3089 -0.5271  0.6503
14887TIP3    H166152   0.436   4.882  14.349 -0.0633 -1.8308  0.3882
14887TIP3    H266153   0.371   4.914  14.483 -0.0295  0.5157 -0.1362
14888TIP3   OH266154   0.337   5.113  17.065  0.3252 -0.1398 -0.6015
14888TIP3    H166155   0.277   5.095  17.138  0.7803  0.2157 -0.1279
14888TIP3    H266156   0.386   5.032  17.054  0.3204 -0.1653 -0.4431
14889TIP3   OH266157   1.658   2.053  11.563 -0.2862  0.1567  0.8931
14889TIP3    H166158   1.572   2.024  11.594 -1.1258  2.2809  0.6136
14889TIP3    H266159   1.717   2.032  11.635 -0.9942 -1.5239  1.0027
14890TIP3   OH266160   0.282   6.402  13.026 -0.1624 -0.5733  0.0491
14890TIP3    H166161   0.375   6.384  13.007 -0.5471  0.2906 -2.8810
14890TIP3    H266162   0.235   6.327  12.989 -0.6718 -0.9104  1.3538
14891TIP3   OH266163   0.728   0.158  14.500  0.0612 -0.6191 -0.1720
14891TIP3    H166164   0.784   0.198  14.567 -1.5837  1.3148  0.0962
14891TIP3    H266165   0.784   0.152  14.422  0.5782  1.6016 -0.0080
14892TIP3   OH266166   0.543   4.179   4.715 -0.3735 -0.1104  0.1626
14892TIP3    H166167   0.622   4.232   4.713  0.2821 -1.0664  0.3410
14892TIP3    H266168   0.567   4.097   4.671 -1.7447  0.2251 -1.2903
14893TIP3   OH266169   1.982   3.552   0.822 -0.0245 -0.4805  0.6350
14893TIP3    H166170   1.918   3.623   0.814  0.0888 -0.4005  0.4351
14893TIP3    H266171   1.960   3.510   0.905  0.1546  0.0338  0.9507
14894TIP3   OH266172   6.298   4.000   4.200  0.0784  0.3279 -0.1204
14894TIP3    H166173   6.392   4.004   4.181  0.0830  2.7647  0.2590
14894TIP3    H266174   6.276   4.088   4.231 -2.2953 -0.2756  0.0117
14895TIP3   OH266175   1.125   3.835   3.604  0.3859 -0.0986 -0.4508
14895TIP3    H166176   1.059   3.767   3.593 -0.1929  0.5428 -1.0593
14895TIP3    H266177   1.188   3.799   3.666 -0.4859 -0.7598  0.0574
14896TIP3   OH266178   0.612   0.213  16.915  0.5543  0.1289 -0.0080
14896TIP3    H166179   0.650   0.185  16.998  0.0740 -1.4863 -0.3278
14896TIP3    H266180   0.527   0.249  16.938  0.5443 -0.0475  0.2313
14897TIP3   OH266181   1.502   4.662   0.729 -0.5465  0.3523  0.4668
14897TIP3    H166182   1.457   4.635   0.648  2.0790 -1.3570 -0.4732
14897TIP3    H266183   1.532   4.751   0.711 -1.3634  0.5807  0.1783
14898TIP3   OH266184   6.018   5.492   4.929  0.5481 -0.6413 -0.0242
14898TIP3    H166185   5.969   5.571   4.952  1.9653  0.5013 -0.8985
14898TIP3    H266186   5.959   5.420   4.951 -1.7688  0.7201 -1.6338
14899TIP3   OH266187   0.313   2.337  11.504  0.2068  0.6143 -0.4636
14899TIP3    H166188   0.288   2.334  11.411  4.1628  0.5342 -1.6258
14899TIP3    H266189   0.318   2.245  11.530  1.2624  0.5477 -0.8528
14900TIP3   OH266190   4.282   1.747   6.269  0.5328 -0.2294 -0.2603
14900TIP3    H166191   4.250   1.714   6.353 -0.8465  0.9406 -0.2988
14900TIP3    H266192   4.375   1.727   6.269  0.4352 -0.7727  1.2975
14901TIP3   OH266193   3.925   4.492  13.119 -0.1273  0.6533 -0.4339
14901TIP3    H166194   3.832   4.484  13.139  0.1745 -0.8750  0.4307
14901TIP3    H266195   3.928   4.530  13.031 -1.5469  1.5157 -0.1245
14902TIP3   OH266196   4.696   0.783  13.374  0.3377  0.0794 -0.2945
14902TIP3    H166197   4.766   0.723  13.346 -0.3966 -0.6962 -0.4759
14902TIP3    H266198   4.616   0.744  13.339 -0.3703  0.0970  1.2826
14903TIP3   OH266199   3.385   0.071  14.144  0.4980  0.4551 -0.0973
14903TIP3    H166200   3.311   0.125  14.118  1.4724  1.9663  0.2282
14903TIP3    H266201   3.345  -0.004  14.189 -0.8733  0.7425 -0.8140
14904TIP3   OH266202   5.822   1.061   3.138 -1.1878 -0.2725 -0.1126
14904TIP3    H166203   5.866   1.006   3.074 -1.6597 -1.4172  0.5364
14904TIP3    H266204   5.729   1.043   3.125 -1.2222 -1.9610  2.1379
14905TIP3   OH266205   5.656   1.901  13.747  0.4815  0.1326 -0.5525
14905TIP3    H166206   5.638   1.864  13.661  1.5617  0.2968 -0.8634
14905TIP3    H266207   5.589   1.865  13.804  0.2027 -0.5575 -1.3170
14906TIP3   OH266208   4.552   5.099   2.513  1.0367  0.1759  0.2906
14906TIP3    H166209   4.629   5.112   2.569  0.4778  0.6727  0.9696
14906TIP3    H266210   4.510   5.022   2.550  0.8923  0.2595  0.3003
14907TIP3   OH266211   2.895   0.678   3.052 -0.5504 -0.4868  0.0451
14907TIP3    H166212   2.981   0.681   3.010  0.0286 -0.1044  1.2379
14907TIP3    H266213   2.873   0.770   3.069 -2.1095 -0.4247 -2.0360
14908TIP3   OH266214   4.494   5.640  10.562  0.0463 -0.1831 -0.0217
14908TIP3    H166215   4.501   5.631  10.467  0.9073  3.2745 -0.3719
14908TIP3    H266216   4.585   5.640  10.593  0.1648  4.5279  0.0486
14909TIP3   OH266217   1.295   6.621   5.807  0.3656  0.7994  0.2565
14909TIP3    H166218   1.386   6.646   5.825  0.7300 -0.1606 -0.1832
14909TIP3    H266219   1.249   6.634   5.890  1.2431 -0.1874  0.9087
14910TIP3   OH266220   1.365   1.176  16.660 -0.3961 -0.0643  0.2520
14910TIP3    H166221   1.423   1.164  16.735  0.4071 -1.0364 -0.5117
14910TIP3    H266222   1.396   1.258  16.619  1.9766 -1.7472 -1.4731
14911TIP3   OH266223   0.450   1.659   4.971 -0.6990  0.0786 -0.0636
14911TIP3    H166224   0.488   1.592   5.028 -1.5704 -0.2313  0.1653
14911TIP3    H266225   0.363   1.674   5.007 -0.8726  0.6266 -0.7064
14912TIP3   OH266226   3.685   5.580   1.864  0.2170 -0.4264  0.0289
14912TIP3    H166227   3.753   5.513   1.856  0.0101 -0.6150 -0.1656
14912TIP3    H266228   3.731   5.657   1.895  1.3181  0.7754 -4.2608
14913TIP3   OH266229   1.536   1.197  14.514  0.2319  0.1760  0.4057
14913TIP3    H166230   1.527   1.109  14.476  0.9709  0.5502 -0.6642
14913TIP3    H266231   1.571   1.250  14.442  0.2950  1.2264  1.2078
14914TIP3   OH266232   0.138   2.982  17.070  0.1897 -0.1393  0.8162
14914TIP3    H166233   0.045   3.003  17.060  0.3446  1.3149  2.2246
14914TIP3    H266234   0.156   2.919  17.001 -1.8639 -0.4726  0.5615
14915TIP3   OH266235   1.063   2.766   3.657  0.8756  0.2903 -0.0540
14915TIP3    H166236   1.136   2.744   3.715  0.7085 -0.9521 -0.3109
14915TIP3    H266237   1.099   2.830   3.596  1.2883  0.9561  0.8653
14916TIP3   OH266238   4.085   0.637   3.626 -0.5453 -0.0116  0.5127
14916TIP3    H166239   4.028   0.569   3.589  1.2537 -1.0954 -0.3552
14916TIP3    H266240   4.144   0.590   3.684  0.1666  0.9238  0.5654
14917TIP3   OH266241   5.320   0.716   5.975 -0.5293 -0.5569 -0.0122
14917TIP3    H166242   5.319   0.668   6.058  0.0118  1.2350  1.0596
14917TIP3    H266243   5.333   0.807   6.000 -2.3166  0.2798 -1.9519
14918TIP3   OH266244   1.121   5.758  13.692  0.7154  0.2827 -0.5251
14918TIP3    H166245   1.124   5.663  13.701 -1.5834  0.3383  1.0666
14918TIP3    H266246   1.129   5.791  13.781  1.3880  1.5946 -1.0508
14919TIP3   OH266247   4.900   6.353   5.526 -0.4099 -0.6523 -0.2996
14919TIP3    H166248   4.841   6.373   5.453 -0.2974 -0.1615 -0.2592
14919TIP3    H266249   4.889   6.259   5.541 -3.1651 -0.0869  1.4757
14920TIP3   OH266250   4.042   4.914   3.711 -0.0977 -0.2032 -0.4261
14920TIP3    H166251   3.993   4.992   3.737 -0.1213 -0.1142 -0.7456
14920TIP3    H266252   4.124   4.920   3.760  0.1278  0.3005 -0.8649
14921TIP3   OH266253   4.773   0.941   3.692 -0.3332 -0.1018  0.2113
14921TIP3    H166254   4.776   0.924   3.786 -0.2326 -0.8062  0.0823
14921TIP3    H266255   4.782   1.036   3.685  0.8649 -0.1562  0.8552
14922TIP3   OH266256   5.176   3.481   3.143  0.7323  0.2926 -0.4992
14922TIP3    H166257   5.144   3.391   3.156 -0.2604  0.6627 -0.2816
14922TIP3    H266258   5.225   3.501   3.223  0.0723  0.3010 -0.0867
14923TIP3   OH266259   4.735   4.204   6.303  0.4280 -0.3870  0.7679
14923TIP3    H166260   4.642   4.228   6.305  0.2681 -0.3896 -3.0815
14923TIP3    H266261   4.739   4.124   6.355 -2.0021 -1.1914 -0.1866
14924TIP3   OH266262   2.989   0.158   0.040 -0.4805  0.1115  0.1555
14924TIP3    H166263   3.059   0.202   0.088 -0.8639 -0.0359  0.8656
14924TIP3    H266264   2.971   0.215  -0.034  1.1072 -0.3679 -0.6266
14925TIP3   OH266265   5.928   1.583   2.964 -0.2638 -0.4633 -0.0547
14925TIP3    H166266   5.876   1.597   3.043 -0.3941  1.1949 -0.4214
14925TIP3    H266267   5.923   1.666   2.917  1.2132 -0.8900 -0.9883
14926TIP3   OH266268   2.091   1.423  14.765  0.1046 -0.4543  0.4894
14926TIP3    H166269   2.091   1.480  14.688  0.0827 -1.6151 -0.3792
14926TIP3    H266270   2.183   1.401  14.779  0.2136  0.5416  1.3971
14927TIP3   OH266271   3.525   2.644  17.231  0.3673  0.0504 -0.0586
14927TIP3    H166272   3.509   2.666  17.140  0.4252 -2.0578 -0.6031
14927TIP3    H266273   3.481   2.560  17.244  1.3050 -0.2165  1.5483
14928TIP3   OH266274   6.262   4.610   5.718  0.6481 -0.2416  0.2526
14928TIP3    H166275   6.325   4.672   5.755  0.8060 -0.2823  0.0546
14928TIP3    H266276   6.295   4.592   5.630  2.6504 -3.4212  1.5804
14929TIP3   OH266277   5.310   5.986   2.379 -0.6596  0.1505  0.2108
14929TIP3    H166278   5.260   5.922   2.328 -1.2993  0.8106 -0.0083
14929TIP3    H266279   5.264   5.990   2.463 -0.4814  0.1452  0.3079
14930TIP3   OH266280   2.230   4.128   1.091  0.0987  0.3049  0.1563
14930TIP3    H166281   2.235   4.139   1.185 -2.2595 -0.7391  0.4489
14930TIP3    H266282   2.259   4.038   1.075  0.8208  0.5914 -0.1420
14931TIP3   OH266283   1.649   3.545  10.889 -0.8777  0.6022 -0.2728
14931TIP3    H166284   1.664   3.604  10.814 -0.4770  0.0360 -0.6496
14931TIP3    H266285   1.578   3.488  10.861  0.9076 -1.2424 -1.2365
14932TIP3   OH266286   0.701   5.598   5.037 -0.0434 -0.2692 -0.3360
14932TIP3    H166287   0.618   5.630   5.073  1.0630  1.0111  1.0928
14932TIP3    H266288   0.708   5.508   5.070 -0.8025 -0.3371 -0.3554
14933TIP3   OH266289   2.626   5.717   4.947 -0.1282 -0.3444  0.0400
14933TIP3    H166290   2.603   5.706   5.039 -0.0681 -0.7839  0.0021
14933TIP3    H266291   2.556   5.671   4.900 -1.2235  1.5100 -0.1997
14934TIP3   OH266292   0.840   2.882   3.804  0.1101  0.1551 -0.0058
14934TIP3    H166293   0.796   2.801   3.779 -0.4499  0.5417 -0.2713
14934TIP3    H266294   0.924   2.879   3.757 -0.0787 -0.0739 -0.3323
14935TIP3   OH266295   0.827   6.063  14.383 -0.8394 -0.4327 -0.2294
14935TIP3    H166296   0.887   5.989  14.382 -0.1330  0.1166  0.3421
14935TIP3    H266297   0.831   6.099  14.295 -0.4890 -0.5241 -0.2507
14936TIP3   OH266298   0.168   6.811   1.006  0.7968 -0.0437  0.0471
14936TIP3    H166299   0.075   6.803   1.030  0.4189 -1.2676 -1.7507
14936TIP3    H266300   0.194   6.722   0.983  2.2754  0.4037 -0.0331
14937TIP3   OH266301   6.701   2.791   2.302 -0.3373 -0.1623 -0.3690
14937TIP3    H166302   6.723   2.872   2.256 -0.0642 -0.3203 -0.5209
14937TIP3    H266303   6.780   2.738   2.294 -1.7855 -1.9948 -3.6200
14938TIP3   OH266304   0.190   4.944  14.159 -0.9185 -0.0146  0.5493
14938TIP3    H166305   0.232   4.946  14.245 -1.5358 -1.3740  0.9008
14938TIP3    H266306   0.128   4.871  14.164  0.0764 -1.0720 -1.5076
14939TIP3   OH266307   4.982   4.383  13.053  0.0919  0.2767 -0.0885
14939TIP3    H166308   5.068   4.358  13.018  0.2889 -0.5427  0.9570
14939TIP3    H266309   4.960   4.464  13.007  0.2237 -0.8989 -2.3011
14940TIP3   OH266310   2.441   5.961  13.495  0.4311  0.1206  0.7354
14940TIP3    H166311   2.492   6.023  13.547 -0.4698  0.3484  1.3585
14940TIP3    H266312   2.384   6.016  13.441  2.6205 -0.0631 -1.8249
14941TIP3   OH266313   4.565   4.917   2.835  0.3164  0.4141  0.5569
14941TIP3    H166314   4.528   4.947   2.918  0.4959  0.5305  0.5953
14941TIP3    H266315   4.644   4.971   2.823 -0.7459  1.7430 -0.6365
14942TIP3   OH266316   5.095   3.365  16.022 -0.1801  0.0081  0.1250
14942TIP3    H166317   5.126   3.306  16.090  0.4484 -0.1243 -0.2717
14942TIP3    H266318   5.166   3.428  16.010 -0.2410 -0.0315 -0.4734
14943TIP3   OH266319   0.524   0.394  13.337 -0.7750 -0.4948 -0.0521
14943TIP3    H166320   0.481   0.417  13.255 -2.2121  2.5855  1.4664
14943TIP3    H266321   0.453   0.393  13.402  0.9126  1.5239  1.9240
14944TIP3   OH266322   3.258   1.313   5.681  0.0560 -0.4515 -0.1098
14944TIP3    H166323   3.339   1.350   5.716 -0.0528  0.2991 -0.6441
14944TIP3    H266324   3.283   1.225   5.653  0.6759 -0.2510 -0.2077
14945TIP3   OH266325   2.750   3.108  16.020 -0.4008  0.4953  0.0881
14945TIP3    H166326   2.666   3.097  16.066  0.2600  0.5653  1.3317
14945TIP3    H266327   2.750   3.039  15.954 -1.6612  0.8058 -0.2557
14946TIP3   OH266328   4.151   0.344   4.977  0.1289  0.0217  0.0675
14946TIP3    H166329   4.209   0.405   5.022  1.4140 -0.6083 -0.6994
14946TIP3    H266330   4.162   0.364   4.884 -1.6205  0.5339 -0.0465
14947TIP3   OH266331   3.644   0.567   1.783 -0.4167  0.0342 -0.3045
14947TIP3    H166332   3.706   0.551   1.854  0.5555 -0.7942 -1.3199
14947TIP3    H266333   3.599   0.483   1.771 -2.2602  0.8262  0.9052
14948TIP3   OH266334   4.180   2.075   6.325  0.4053  0.1692 -0.2972
14948TIP3    H166335   4.117   2.146   6.310  0.7331  0.3465 -0.8809
14948TIP3    H266336   4.129   2.006   6.367  0.0052  0.6238 -0.0260
14949TIP3   OH266337   1.664   0.216  11.399  0.7937  0.0877 -0.3611
14949TIP3    H166338   1.650   0.157  11.325  2.9522  0.2931 -0.9631
14949TIP3    H266339   1.756   0.207  11.420  0.4184  0.8046  1.6661
14950TIP3   OH266340   4.977   6.453  11.262  0.2100 -0.3250  0.4099
14950TIP3    H166341   5.025   6.382  11.306 -0.6263 -2.0987 -1.4136
14950TIP3    H266342   5.002   6.444  11.169 -0.0367  1.6887  0.1419
14951TIP3   OH266343   5.046   3.956  11.318  0.1218 -0.1440  0.0114
14951TIP3    H166344   5.064   4.047  11.294 -1.2181  0.1138 -0.0137
14951TIP3    H266345   5.018   3.915  11.236 -0.1510 -0.3579  0.2115
14952TIP3   OH266346   0.781   3.440  13.004 -0.2164  0.1185  0.3633
14952TIP3    H166347   0.693   3.478  12.996 -0.5113 -0.8821 -1.4297
14952TIP3    H266348   0.836   3.514  13.028 -1.5681  0.7342  1.6739
14953TIP3   OH266349   1.852   0.457  11.878  0.4864  0.3819 -0.0984
14953TIP3    H166350   1.920   0.391  11.873  0.9723  1.0328 -2.6914
14953TIP3    H266351   1.770   0.408  11.871  0.8351  0.0081 -1.6627
14954TIP3   OH266352   5.066   3.847   0.750  0.4472 -0.2468 -0.2061
14954TIP3    H166353   5.048   3.936   0.721 -0.3289 -0.3193  0.0449
14954TIP3    H266354   5.109   3.857   0.835 -0.0579 -0.1265  0.0342
14955TIP3   OH266355   4.636   5.902  16.276 -0.4216  0.4438  0.2862
14955TIP3    H166356   4.705   5.842  16.306 -0.8953  0.4360  1.3680
14955TIP3    H266357   4.684   5.973  16.233  0.1749 -0.3809 -0.4254
14956TIP3   OH266358   4.118   3.094  17.254 -0.2131  0.1246  0.2418
14956TIP3    H166359   4.158   3.038  17.188 -1.9047 -0.8260 -0.0072
14956TIP3    H266360   4.027   3.105  17.225 -0.4768  1.2127  1.4290
14957TIP3   OH266361   2.488   5.832  16.901 -0.3178 -0.3979  0.3450
14957TIP3    H166362   2.456   5.747  16.931  2.1234 -1.2236  0.6988
14957TIP3    H266363   2.580   5.834  16.926 -0.4331  2.5535  0.7582
14958TIP3   OH266364   2.274   4.506  14.047 -0.2608 -0.7879  0.2008
14958TIP3    H166365   2.196   4.541  14.004 -0.8239 -0.5995  1.3505
14958TIP3    H266366   2.346   4.527  13.987 -1.2334 -1.9680 -1.4003
14959TIP3   OH266367   3.687   1.725   1.539 -0.1518 -0.0115  0.7196
14959TIP3    H166368   3.782   1.740   1.537 -0.3400  1.4340  1.7215
14959TIP3    H266369   3.675   1.655   1.603  0.5290 -2.8547 -2.1511
14960TIP3   OH266370   5.698   3.443  12.000  0.3944  0.1636 -0.3059
14960TIP3    H166371   5.727   3.363  12.043 -0.1952 -0.1387 -0.4665
14960TIP3    H266372   5.612   3.461  12.037  0.0397  0.1039 -1.0796
14961TIP3   OH266373   0.714   6.186  11.539 -0.0544  0.5900  0.2346
14961TIP3    H166374   0.757   6.209  11.456  0.4111 -1.2511 -0.0787
14961TIP3    H266375   0.771   6.119  11.577 -0.0394  1.7330  2.2742
14962TIP3   OH266376   3.535   5.725   3.499 -0.2823  0.5150  0.2679
14962TIP3    H166377   3.514   5.642   3.457 -0.0243  1.1199 -1.0855
14962TIP3    H266378   3.565   5.700   3.587  0.4273 -0.8770 -0.3403
14963TIP3   OH266379   4.676   4.578   0.594  0.0341 -0.0568  0.5630
14963TIP3    H166380   4.637   4.593   0.508 -0.8046 -0.8018  0.8070
14963TIP3    H266381   4.759   4.626   0.592  1.0141 -1.7683 -1.4295
14964TIP3   OH266382   3.216   2.938   5.121  0.7613  0.7302 -0.3168
14964TIP3    H166383   3.127   2.961   5.095  0.8889  0.1133 -1.3252
14964TIP3    H266384   3.258   2.909   5.040  1.4018 -0.5034  0.4512
14965TIP3   OH266385   4.947   3.306  14.284  0.0814 -0.0333 -0.1932
14965TIP3    H166386   4.926   3.212  14.282  0.0441 -0.0214 -0.4627
14965TIP3    H266387   4.864   3.349  14.263 -0.1711  0.1050  1.0585
14966TIP3   OH266388   1.918   0.676  15.532  0.3144  0.2803 -0.4801
14966TIP3    H166389   1.889   0.693  15.442  1.4834 -1.1096 -1.1344
14966TIP3    H266390   1.926   0.763  15.571 -2.4300  0.8072 -0.9922
14967TIP3   OH266391   2.197   2.169  14.784 -0.2214 -0.2883  0.1762
14967TIP3    H166392   2.292   2.163  14.797 -0.0123 -0.0541 -1.1670
14967TIP3    H266393   2.182   2.135  14.696 -1.2289  0.8516 -0.1206
14968TIP3   OH266394   3.271   4.916   3.075 -0.2547 -0.2432  0.0495
14968TIP3    H166395   3.202   4.889   3.015 -0.1216 -1.0958  0.2713
14968TIP3    H266396   3.292   5.006   3.049 -1.7862  0.1997  0.3069
14969TIP3   OH266397   2.094   0.387  14.219  0.4855 -0.4742  0.3701
14969TIP3    H166398   2.017   0.334  14.242  1.6202 -2.2214  0.2615
14969TIP3    H266399   2.166   0.345  14.267  1.4617  0.7905  0.0081
14970TIP3   OH266400   4.177   0.991   1.549  0.0950  0.4313  0.7375
14970TIP3    H166401   4.270   0.974   1.559  0.4350  0.3556 -2.1349
14970TIP3    H266402   4.137   0.905   1.541 -0.3176  0.4417  2.4254
14971TIP3   OH266403   4.380   3.423  11.382 -0.0951 -0.3089 -0.3169
14971TIP3    H166404   4.346   3.461  11.463 -1.6122  0.1135 -1.1373
14971TIP3    H266405   4.355   3.485  11.314  1.9724 -0.1964 -1.0216
14972TIP3   OH266406   0.640   3.916  16.248 -0.7129 -0.7206 -0.2908
14972TIP3    H166407   0.600   3.999  16.220  0.4897  0.0238  0.1446
14972TIP3    H266408   0.613   3.905  16.339 -1.7106 -1.3245 -0.6614
14973TIP3   OH266409   3.260   1.426  15.810  0.6260  0.4939 -0.2509
14973TIP3    H166410   3.274   1.332  15.823  0.2881  0.5798  0.8452
14973TIP3    H266411   3.186   1.447  15.867  2.6559  2.0004  1.9324
14974TIP3   OH266412   0.943   0.044  14.783 -0.6573  0.2705  0.1743
14974TIP3    H166413   1.011   0.030  14.716 -0.5393  0.7066  0.2059
14974TIP3    H266414   0.909   0.131  14.765 -1.3011  0.0027  0.0822
14975TIP3   OH266415   1.880   2.977   5.414  0.2143  0.6001  0.0079
14975TIP3    H166416   1.838   2.917   5.476  1.4685  0.4239  0.7080
14975TIP3    H266417   1.973   2.957   5.420  0.6858  2.7493  0.4137
14976TIP3   OH266418   3.258   3.759  17.135  0.2619  0.1101 -0.5166
14976TIP3    H166419   3.175   3.802  17.156  0.6335  0.7241 -0.3130
14976TIP3    H266420   3.287   3.721  17.217 -0.4349 -1.1718 -0.8516
14977TIP3   OH266421   0.821   6.767  14.257  0.6086  0.5233 -0.1504
14977TIP3    H166422   0.911   6.756  14.287  1.5926 -2.2227 -3.8658
14977TIP3    H266423   0.817   6.858  14.227  2.3994  0.4051 -0.8155
14978TIP3   OH266424   4.738   0.670  10.961  0.6956 -0.1104 -0.2522
14978TIP3    H166425   4.746   0.600  10.896  2.1504 -1.0858  0.9541
14978TIP3    H266426   4.822   0.716  10.957  0.9953 -0.5119  1.3075
14979TIP3   OH266427   5.560   1.232  16.769  0.0822  0.8698 -0.0936
14979TIP3    H166428   5.603   1.173  16.831  0.6115  0.2036 -1.0751
14979TIP3    H266429   5.523   1.174  16.703  0.0073  1.6002 -0.6943
14980TIP3   OH266430   0.203   5.777   1.333  0.1249 -0.0430  0.4108
14980TIP3    H166431   0.225   5.695   1.376  0.6217  0.0034  0.2383
14980TIP3    H266432   0.111   5.766   1.307 -0.3958  0.1911  2.1001
14981TIP3   OH266433   5.652   4.917   5.288 -0.0212 -0.1751  0.2154
14981TIP3    H166434   5.738   4.907   5.246  0.7632  1.6623  1.3153
14981TIP3    H266435   5.600   4.966   5.225  0.6464  1.1800  0.7063
14982TIP3   OH266436   1.888   4.877  11.066  0.3095  0.7563 -0.7863
14982TIP3    H166437   1.831   4.952  11.084  0.2736  0.9855 -1.8250
14982TIP3    H266438   1.845   4.804  11.110  0.9872  1.5622  1.2639
14983TIP3   OH266439   3.920   2.300  16.983 -0.0798 -0.1197  0.1868
14983TIP3    H166440   3.834   2.263  17.004 -0.0821  0.0338  0.4471
14983TIP3    H266441   3.928   2.376  17.041  1.0582 -1.2603  1.5647
14984TIP3   OH266442   0.343   3.290   3.980 -0.4306  0.1847 -0.2715
14984TIP3    H166443   0.409   3.351   3.946  0.7985 -0.6609  0.5829
14984TIP3    H266444   0.313   3.330   4.061  0.5639 -0.4593  0.4230
14985TIP3   OH266445   1.401   4.415   0.083 -0.2410  0.6590  0.1950
14985TIP3    H166446   1.412   4.336   0.135  1.8003  0.2074 -0.8512
14985TIP3    H266447   1.421   4.487   0.143  2.7198  0.1196 -0.0354
14986TIP3   OH266448   2.687   5.960   2.624 -0.2893  0.1994  0.3749
14986TIP3    H166449   2.675   6.054   2.635 -0.0161  0.3184 -0.2987
14986TIP3    H266450   2.598   5.927   2.608 -0.3167  0.4296  0.0284
14987TIP3   OH266451   0.667   6.815  11.881 -0.2393 -0.3957 -0.5436
14987TIP3    H166452   0.762   6.805  11.889 -0.1944 -0.6175 -1.3123
14987TIP3    H266453   0.655   6.905  11.849 -0.2741 -0.4571 -0.7034
14988TIP3   OH266454   5.434   5.662   0.077 -0.3803  0.0308  0.4203
14988TIP3    H166455   5.430   5.568   0.094  0.0007 -0.1356 -0.3901
14988TIP3    H266456   5.344   5.686   0.057 -0.2951 -0.3913 -0.5208
14989TIP3   OH266457   5.115   6.543  14.688  0.0780 -0.1586 -0.7468
14989TIP3    H166458   5.171   6.471  14.658  0.0141 -0.2451 -0.6579
14989TIP3    H266459   5.065   6.505  14.760 -0.0912 -0.0803 -0.8231
14990TIP3   OH266460   0.719   3.773   1.783 -0.2481 -0.3622  0.8421
14990TIP3    H166461   0.726   3.777   1.688  3.2585  0.4805  1.0776
14990TIP3    H266462   0.802   3.734   1.812 -2.0092 -2.3936  3.4714
14991TIP3   OH266463   4.589   4.420  13.855  1.3103 -0.4697 -0.4763
14991TIP3    H166464   4.541   4.431  13.773 -0.6929  0.1887  0.7479
14991TIP3    H266465   4.544   4.476  13.918  3.1116 -0.5778  0.9677
14992TIP3   OH266466   2.904   0.638  12.513  0.4747 -0.0863  0.0759
14992TIP3    H166467   2.980   0.667  12.463 -0.0374  0.7615 -0.2402
14992TIP3    H266468   2.915   0.544  12.522  0.4753 -0.3005 -1.8575
14993TIP3   OH266469   1.991   6.126   6.541 -0.0707  0.2759 -0.0970
14993TIP3    H166470   1.898   6.127   6.562  0.1949 -0.8878  1.2382
14993TIP3    H266471   2.018   6.218   6.545 -0.6505  0.3806  1.9718
14994TIP3   OH266472   2.309   6.076   3.946  0.2545  0.0112  0.0554
14994TIP3    H166473   2.256   6.031   4.012 -0.9626  1.3013 -0.0112
14994TIP3    H266474   2.253   6.147   3.915  0.9085 -0.4026 -2.1812
14995TIP3   OH266475   3.989   0.363   0.688 -0.0849  0.3073  0.2292
14995TIP3    H166476   3.916   0.424   0.690  0.5673  1.1542 -1.2386
14995TIP3    H266477   4.010   0.352   0.596  1.3418 -0.2787  0.5995
14996TIP3   OH266478   3.533   4.787  16.881 -0.1482 -0.3898 -0.4406
14996TIP3    H166479   3.546   4.699  16.844 -2.2716 -0.3521 -1.3512
14996TIP3    H266480   3.582   4.845  16.824 -0.1255 -0.8041 -0.8408
14997TIP3   OH266481   2.468   2.956   4.543  0.1695 -0.4212  1.0659
14997TIP3    H166482   2.498   3.045   4.528 -0.6426 -0.6092 -2.0315
14997TIP3    H266483   2.541   2.901   4.515 -0.2957 -0.7417  0.4537
14998TIP3   OH266484   3.471   0.521   5.810 -0.6890  0.4684 -0.0585
14998TIP3    H166485   3.541   0.456   5.815  0.2416  1.4503 -0.1413
14998TIP3    H266486   3.403   0.488   5.868 -0.0866 -0.4192  0.1455
14999TIP3   OH266487   2.085   1.497   5.522 -0.0616  0.1739 -0.8712
14999TIP3    H166488   2.149   1.567   5.533 -0.8508  0.6326  1.0019
14999TIP3    H266489   2.127   1.419   5.560 -1.0701  0.7645  1.5519
15000TIP3   OH266490   2.893   3.700  13.318  0.0158 -0.1446  0.1637
15000TIP3    H166491   2.968   3.760  13.320  0.3590 -0.5810  0.4604
15000TIP3    H266492   2.919   3.630  13.258 -1.7614  1.7697 -2.9666
15001TIP3   OH266493   3.487   0.099   6.448 -0.4554  1.3773  0.1855
15001TIP3    H166494   3.467   0.030   6.512  0.3255  2.0000  1.1193
15001TIP3    H266495   3.419   0.090   6.382 -1.2935  0.7198  1.1065
15002TIP3   OH266496   4.473   0.624  15.792 -0.4099  0.0642 -0.6707
15002TIP3    H166497   4.493   0.571  15.715 -2.3958  1.2931 -2.0973
15002TIP3    H266498   4.547   0.684  15.801 -0.4151  0.2651 -1.9559
15003TIP3   OH266499   2.233   0.313  12.830  0.5768 -0.1274  0.0459
15003TIP3    H166500   2.189   0.307  12.745 -0.5533 -0.2102  0.6253
15003TIP3    H266501   2.275   0.228  12.841  0.5257 -0.2042 -0.3234
15004TIP3   OH266502   5.341   0.278   3.143 -0.3165 -1.0493 -0.8898
15004TIP3    H166503   5.372   0.355   3.095 -0.4031 -0.2393  0.3312
15004TIP3    H266504   5.251   0.299   3.167  0.1748 -0.8718  0.8179
15005TIP3   OH266505   4.626   6.008   2.115  0.2699  0.3421  0.3966
15005TIP3    H166506   4.690   6.040   2.051 -0.2764 -0.1523 -0.4076
15005TIP3    H266507   4.545   5.999   2.065 -0.0518 -0.4782  1.0635
15006TIP3   OH266508   2.638   1.674  11.088  0.0511  0.0794  0.4546
15006TIP3    H166509   2.604   1.595  11.132  2.0954 -0.0478  1.9051
15006TIP3    H266510   2.560   1.723  11.063 -1.2502 -2.1500  0.0176
15007TIP3   OH266511   2.877   6.065  16.025 -0.6265  0.0404 -0.5679
15007TIP3    H166512   2.860   6.091  16.115 -1.2171  1.7511 -1.1528
15007TIP3    H266513   2.945   5.998  16.032 -1.1606 -0.3430  1.1788
15008TIP3   OH266514   5.301   0.861   1.218  0.2879 -0.0786  0.2249
15008TIP3    H166515   5.213   0.894   1.235  0.1152 -1.2899  1.8031
15008TIP3    H266516   5.294   0.766   1.232  1.1721 -0.6048 -2.4983
15009TIP3   OH266517   5.367   6.456  13.829 -0.4935 -0.6886  0.1918
15009TIP3    H166518   5.319   6.526  13.872  0.2765 -2.0986  3.5047
15009TIP3    H266519   5.309   6.381  13.833 -0.1771 -0.9895 -0.7547
15010TIP3   OH266520   6.393   3.367  14.951  0.4237 -0.0869 -0.5040
15010TIP3    H166521   6.423   3.287  14.996  2.7717 -0.3972 -2.4921
15010TIP3    H266522   6.365   3.337  14.865 -1.5297  0.8530 -0.2039
15011TIP3   OH266523   4.461   4.918  10.581 -0.4008 -0.3759  0.0756
15011TIP3    H166524   4.383   4.932  10.527  0.0272  0.7382 -0.2675
15011TIP3    H266525   4.481   5.005  10.617  1.2791 -0.4445 -0.6766
15012TIP3   OH266526   4.581   0.801   4.749  0.1702  0.4473 -0.0927
15012TIP3    H166527   4.622   0.719   4.723  0.4339 -0.0181  1.7251
15012TIP3    H266528   4.565   0.847   4.667 -2.5194 -2.5712 -1.3186
15013TIP3   OH266529   3.916   2.012  15.345 -0.1229  0.0262 -0.0219
15013TIP3    H166530   3.849   2.015  15.276  0.2663 -0.1606 -0.4061
15013TIP3    H266531   3.915   2.100  15.382  1.7340  1.0570 -2.2386
15014TIP3   OH266532   6.050   2.574  13.488  0.4114  0.1023  0.4381
15014TIP3    H166533   5.971   2.620  13.460 -0.1103 -0.5030  0.9165
15014TIP3    H266534   6.104   2.642  13.529  0.1458  0.5178  0.1010
15015TIP3   OH266535   1.643   1.320   4.639  0.2203  0.0276 -0.0555
15015TIP3    H166536   1.557   1.358   4.658  0.2035 -0.3434  0.6012
15015TIP3    H266537   1.626   1.227   4.627  0.7743 -0.3097  1.6892
15016TIP3   OH266538   2.995   5.599  11.851 -0.2519  0.2193  0.2918
15016TIP3    H166539   3.021   5.515  11.888  1.9227  1.0031  0.6097
15016TIP3    H266540   2.961   5.577  11.764  0.1315 -1.0023  0.4406
15017TIP3   OH266541   1.146   0.107   1.177  0.1989  0.6630  0.0902
15017TIP3    H166542   1.171   0.045   1.109  1.8485  0.5934  0.7518
15017TIP3    H266543   1.085   0.058   1.232  0.0837  0.2178 -0.4220
15018TIP3   OH266544   2.778   4.604  15.825  0.1887  0.0858  0.2312
15018TIP3    H166545   2.737   4.689  15.836  0.0622 -0.0076  0.4827
15018TIP3    H266546   2.780   4.590  15.730 -2.2516 -0.8389  0.2935
15019TIP3   OH266547   3.400   5.724   3.110 -0.9618  0.4668 -0.0730
15019TIP3    H166548   3.416   5.645   3.163 -0.7378  0.7800  0.3317
15019TIP3    H266549   3.471   5.723   3.045 -0.2303  0.9914  0.7075
15020TIP3   OH266550   6.441   4.280   2.252  0.2560 -0.9105  0.2101
15020TIP3    H166551   6.470   4.202   2.300  1.4770 -1.6695 -1.7288
15020TIP3    H266552   6.435   4.251   2.161 -1.1963  0.7512 -0.2423
15021TIP3   OH266553   4.243   5.487  16.886  0.4300  0.1620 -0.3165
15021TIP3    H166554   4.267   5.571  16.926 -0.3587 -0.0147  0.5439
15021TIP3    H266555   4.308   5.475  16.817  1.9402  0.3936  1.0099
15022TIP3   OH266556   4.590   4.883   1.139 -0.4568  0.5489  0.4328
15022TIP3    H166557   4.634   4.802   1.113  2.1812  1.9645  0.2545
15022TIP3    H266558   4.538   4.908   1.063 -1.7731 -1.2594  0.7001
15023TIP3   OH266559   2.826   3.597  15.793  0.0173 -0.0367 -0.2329
15023TIP3    H166560   2.806   3.691  15.790 -2.3391 -0.5272 -0.9732
15023TIP3    H266561   2.775   3.565  15.868 -0.9952 -1.1079 -1.3657
15024TIP3   OH266562   5.454   4.386  12.704  0.1145  0.1092 -0.0323
15024TIP3    H166563   5.371   4.402  12.658  0.4566 -0.6135 -0.9122
15024TIP3    H266564   5.514   4.451  12.667  0.6359 -1.0646 -1.2840
15025TIP3   OH266565   3.332   4.123  13.177  0.4823  0.3533 -0.2443
15025TIP3    H166566   3.361   4.057  13.240  0.3602  1.5285  1.0659
15025TIP3    H266567   3.407   4.134  13.118  0.8519 -0.2363  0.1141
15026TIP3   OH266568   5.520   4.035  12.500  0.1426 -0.1689  0.5491
15026TIP3    H166569   5.437   4.075  12.476  0.4065 -0.4719 -0.9351
15026TIP3    H266570   5.549   4.083  12.578 -2.0956 -1.0134  1.9440
15027TIP3   OH266571   5.440   1.102   0.426  0.3443  0.0130  0.1989
15027TIP3    H166572   5.454   1.182   0.476 -0.8401 -0.5434  1.4691
15027TIP3    H266573   5.527   1.064   0.415  0.5984 -0.0124  2.1293
15028TIP3   OH266574   5.072   3.932  10.639  0.0976 -0.0964  0.0630
15028TIP3    H166575   5.114   3.981  10.569  1.6368 -0.4238  0.7329
15028TIP3    H266576   5.137   3.868  10.667 -0.8857 -0.7012  1.0522
15029TIP3   OH266577   1.385   6.800   4.685 -0.4029  0.5175  0.1715
15029TIP3    H166578   1.330   6.766   4.615  0.9315 -0.5420 -0.3808
15029TIP3    H266579   1.453   6.850   4.641 -0.3442  0.9979  0.7906
15030TIP3   OH266580   0.706   5.547  15.488  0.0281 -0.2439 -0.2818
15030TIP3    H166581   0.664   5.553  15.402  0.2347 -0.6118 -0.4087
15030TIP3    H266582   0.709   5.637  15.519 -1.7191 -0.3102  0.1463
15031TIP3   OH266583   3.844   1.146  16.502 -0.4382 -0.3993 -0.1342
15031TIP3    H166584   3.817   1.166  16.591  0.9127  1.4711 -0.1150
15031TIP3    H266585   3.932   1.108  16.511 -0.2201 -0.0274 -0.6926
15032TIP3   OH266586   5.052   3.466  14.482 -0.0649  0.4638  0.0501
15032TIP3    H166587   4.981   3.456  14.545  0.9953 -0.6057  1.1067
15032TIP3    H266588   5.029   3.407  14.411 -1.0183  1.3097 -0.3635
15033TIP3   OH266589   2.542   2.267   5.663  0.4701 -0.0349  0.4868
15033TIP3    H166590   2.557   2.179   5.698 -1.0445 -0.2834  0.5529
15033TIP3    H266591   2.467   2.257   5.605  1.3176  0.9030 -0.7867
15034TIP3   OH266592   1.960   3.660  14.359 -0.4614 -0.0005  0.3294
15034TIP3    H166593   1.952   3.574  14.318  0.7006 -1.0261  2.1719
15034TIP3    H266594   1.942   3.644  14.452  1.3064  1.4295  0.9561
15035TIP3   OH266595   1.504   4.242   5.524  0.0738  0.0561 -0.2273
15035TIP3    H166596   1.531   4.295   5.449  0.1032  1.9864  1.1117
15035TIP3    H266597   1.523   4.152   5.498  1.7397  0.8454 -1.8417
15036TIP3   OH266598   0.142   1.108  11.696  0.7991  0.3323  0.3510
15036TIP3    H166599   0.100   1.156  11.624 -1.0154  0.9745  1.8069
15036TIP3    H266600   0.212   1.166  11.726  0.7869  0.5896 -0.1147
15037TIP3   OH266601   5.116   5.348  13.702 -0.0035 -0.1171  0.2515
15037TIP3    H166602   5.093   5.421  13.645 -1.3725 -0.1174  0.7735
15037TIP3    H266603   5.187   5.303  13.657 -0.4698  0.4000 -1.0143
15038TIP3   OH266604   0.818   1.818   4.013  0.2631  0.4945  0.1934
15038TIP3    H166605   0.805   1.862   4.097 -0.6274 -0.0263  0.3351
15038TIP3    H266606   0.743   1.758   4.006  1.2898 -0.7598 -0.1479
15039TIP3   OH266607   3.402   2.772   4.494  0.0271 -0.1470 -0.2466
15039TIP3    H166608   3.352   2.708   4.444  1.6999 -1.8766  0.2219
15039TIP3    H266609   3.471   2.721   4.536  2.2517  2.1704 -0.9677
15040TIP3   OH266610   3.653   4.455  13.184 -0.7006 -0.1288  0.2465
15040TIP3    H166611   3.610   4.525  13.233 -2.3752 -1.6400  0.9602
15040TIP3    H266612   3.609   4.454  13.099  0.0079  0.3185 -0.1401
15041TIP3   OH266613   5.390   2.599   3.011  0.3220 -0.1668 -0.4375
15041TIP3    H166614   5.361   2.532   2.949  0.0573  0.7083 -1.2683
15041TIP3    H266615   5.481   2.576   3.030 -0.3987 -1.9992  0.9522
15042TIP3   OH266616   2.013   1.816   3.498 -0.2100 -0.0613  0.0033
15042TIP3    H166617   2.014   1.722   3.517 -0.0326  0.2689  1.6332
15042TIP3    H266618   1.922   1.842   3.510 -0.2176  0.0205 -0.2295
15043TIP3   OH266619   3.679   0.425  16.308 -0.0337  0.1500 -0.1929
15043TIP3    H166620   3.687   0.513  16.345  2.1407  0.3522 -1.0474
15043TIP3    H266621   3.675   0.367  16.384  0.4315  0.8511  0.3722
15044TIP3   OH266622   2.254   3.612  15.257  0.3475 -0.0034 -0.4481
15044TIP3    H166623   2.256   3.704  15.284 -0.2634  0.2113 -1.1293
15044TIP3    H266624   2.255   3.615  15.162 -0.2814 -0.6874 -0.4804
15045TIP3   OH266625   3.068   4.708  15.237 -0.0867  0.1484 -0.0818
15045TIP3    H166626   3.053   4.712  15.332 -1.1197 -1.0176 -0.1922
15045TIP3    H266627   2.981   4.700  15.199  0.2843  1.2364 -1.1770
15046TIP3   OH266628   4.123   2.606   5.274  0.3456 -0.5774  0.5303
15046TIP3    H166629   4.141   2.680   5.332 -1.5428  0.2880  0.0637
15046TIP3    H266630   4.175   2.623   5.196  2.5423 -1.5102  1.7628
15047TIP3   OH266631   6.523   1.468  15.150  0.0678 -0.7696  0.1223
15047TIP3    H166632   6.476   1.449  15.231  1.5791 -1.7115  0.7792
15047TIP3    H266633   6.612   1.436  15.164  0.9741  1.1249 -1.0661
15048TIP3   OH266634   2.794   4.707  15.068 -0.3831 -0.8543 -0.1483
15048TIP3    H166635   2.711   4.675  15.033 -0.1357 -2.4000  0.5987
15048TIP3    H266636   2.806   4.793  15.028 -1.9768 -0.9293 -0.8345
15049TIP3   OH266637   5.454   3.315   4.727 -0.1289  0.0311  0.0248
15049TIP3    H166638   5.400   3.348   4.799  0.1715 -0.6758  0.5843
15049TIP3    H266639   5.400   3.249   4.685 -0.1071  0.0845 -0.0867
15050TIP3   OH266640   2.947   4.362  11.373 -0.2480  0.4447  0.2964
15050TIP3    H166641   2.883   4.329  11.437  0.0097  0.2987  0.4799
15050TIP3    H266642   2.908   4.344  11.288 -1.3527  2.1485  0.4332
15051TIP3   OH266643   2.538   4.413  14.928  0.1098 -0.1959  0.3646
15051TIP3    H166644   2.600   4.459  14.871  1.2494 -0.3313  1.4731
15051TIP3    H266645   2.584   4.333  14.953 -0.5000 -0.2667  1.2648
15052TIP3   OH266646   2.921   1.897   2.174 -0.7022  0.3279 -0.2400
15052TIP3    H166647   2.836   1.858   2.193 -0.3955  0.3800  1.3405
15052TIP3    H266648   2.926   1.901   2.079 -2.6515  0.7400 -0.3261
15053TIP3   OH266649   3.033   2.512  12.632 -1.1301  0.5415 -0.5740
15053TIP3    H166650   3.083   2.567  12.571  0.2644  1.0440  0.9700
15053TIP3    H266651   2.951   2.493  12.586 -0.6512  1.9802 -2.0761
15054TIP3   OH266652   4.244   3.778   4.050  0.3900  0.2952  0.4044
15054TIP3    H166653   4.315   3.789   4.113 -1.5280 -2.3621  3.1438
15054TIP3    H266654   4.175   3.837   4.081  0.2658  0.6346 -0.5067
15055TIP3   OH266655   3.227   5.535  17.279 -0.0257 -0.3540  0.1607
15055TIP3    H166656   3.285   5.606  17.253 -0.1739 -0.3363 -0.1286
15055TIP3    H266657   3.198   5.558  17.367 -1.6402  0.9604 -0.6805
15056TIP3   OH266658   6.517   4.637  10.153 -0.4958  0.0431 -0.0885
15056TIP3    H166659   6.515   4.700  10.225 -4.0127  0.9910 -0.9371
15056TIP3    H266660   6.562   4.683  10.082 -0.3436  0.4677  0.2837
15057TIP3   OH266661   4.087   4.553  13.587  0.3792 -0.7419 -0.3751
15057TIP3    H166662   4.097   4.640  13.626 -0.3940 -0.9272  0.2700
15057TIP3    H266663   3.995   4.550  13.560  0.8178 -0.7498 -1.9151
15058TIP3   OH266664   2.761   3.975   0.570 -0.1219  0.4922  0.3803
15058TIP3    H166665   2.667   3.958   0.568 -0.4177  2.0428  0.0528
15058TIP3    H266666   2.791   3.936   0.653 -0.6836 -1.7154 -0.4273
15059TIP3   OH266667   1.453   5.830   0.571 -0.4835 -0.1194  0.2852
15059TIP3    H166668   1.546   5.839   0.551 -0.7177 -1.6530 -1.6256
15059TIP3    H266669   1.440   5.884   0.650  1.4131  2.4626 -1.0981
15060TIP3   OH266670   0.690   4.289  12.361 -0.0785  0.1370 -0.0324
15060TIP3    H166671   0.614   4.232  12.374  2.0329 -2.3949  1.6909
15060TIP3    H266672   0.740   4.246  12.292  0.9864  0.5074  0.5037
15061TIP3   OH266673   4.703   0.611  16.925 -0.6304 -0.0962 -0.1794
15061TIP3    H166674   4.608   0.609  16.919 -0.7150  0.5194  0.8490
15061TIP3    H266675   4.726   0.701  16.899 -0.3261 -0.2478 -0.4410
15062TIP3   OH266676   2.658   2.767  11.822  0.0160  0.1988  0.3056
15062TIP3    H166677   2.724   2.784  11.755  0.0563  0.6360  0.4545
15062TIP3    H266678   2.693   2.694  11.873 -0.0427 -0.1732 -0.1868
15063TIP3   OH266679   1.973   0.391  12.138 -0.0414 -0.1667 -0.7936
15063TIP3    H166680   1.960   0.418  12.047  2.1267  0.4604 -0.9533
15063TIP3    H266681   2.022   0.463  12.177 -1.3171 -0.2418  1.0092
15064TIP3   OH266682   2.083   5.813  11.190 -0.8376  0.5390  0.0188
15064TIP3    H166683   2.098   5.786  11.099 -1.8794  2.4285 -0.7388
15064TIP3    H266684   2.123   5.744  11.242  0.2584 -0.2969 -1.8838
15065TIP3   OH266685   3.447   2.849   5.262  0.1451 -0.2211 -0.5451
15065TIP3    H166686   3.364   2.855   5.214 -0.5965 -0.4681  0.6735
15065TIP3    H266687   3.449   2.759   5.294 -0.6856  0.6830  2.1606
15066TIP3   OH266688   0.199   5.530  16.953  0.3821  0.1930 -0.1531
15066TIP3    H166689   0.158   5.529  17.040 -0.8330 -0.7000 -0.7305
15066TIP3    H266690   0.182   5.443  16.917  0.1017  0.8564 -1.6495
15067TIP3   OH266691   5.598   2.141  16.181  0.2082  0.4251 -0.1362
15067TIP3    H166692   5.595   2.050  16.151 -1.4404  0.3629  0.1589
15067TIP3    H266693   5.614   2.134  16.275  0.8261  0.4649 -0.2384
15068TIP3   OH266694   5.518   6.433   2.032  0.1526  0.3872  0.5840
15068TIP3    H166695   5.438   6.446   2.084 -0.6833  0.6463 -0.7492
15068TIP3    H266696   5.527   6.338   2.025  0.4520  0.3474  1.4824
15069TIP3   OH266697   5.714   3.781  11.487 -0.5583  0.2296 -0.1842
15069TIP3    H166698   5.755   3.853  11.439 -0.5759 -0.1389 -0.7584
15069TIP3    H266699   5.718   3.808  11.578  0.7812  0.2961 -0.2567
15070TIP3   OH266700   1.691   3.113   3.408 -0.4213 -0.1639 -0.1826
15070TIP3    H166701   1.658   3.186   3.356 -1.9044 -0.6192  0.0928
15070TIP3    H266702   1.759   3.151   3.463 -1.2032  1.0034 -0.0225
15071TIP3   OH266703   4.518   2.530  11.667 -0.7191 -0.2302 -0.1202
15071TIP3    H166704   4.572   2.542  11.589  0.4171  1.6775  0.9208
15071TIP3    H266705   4.455   2.602  11.664 -0.4723  0.0391  0.8612
15072TIP3   OH266706   3.227   5.296   3.205  0.2850  0.1308  0.4957
15072TIP3    H166707   3.227   5.347   3.124 -0.1863  0.0956  0.4723
15072TIP3    H266708   3.261   5.210   3.179  0.8086  0.3418  0.4776
15073TIP3   OH266709   6.166   3.709  12.181 -0.2213  0.5207 -0.0546
15073TIP3    H166710   6.135   3.762  12.108  0.9057 -1.6542 -2.1823
15073TIP3    H266711   6.089   3.658  12.209 -0.0737 -0.4758 -1.4046
15074TIP3   OH266712   4.540   3.134  15.780 -0.1226  0.1712 -0.2646
15074TIP3    H166713   4.507   3.195  15.846  1.3434  0.6150  0.0759
15074TIP3    H266714   4.527   3.048  15.819 -1.6662  0.2729 -0.5052
15075TIP3   OH266715   5.627   5.232  14.404 -0.0167 -0.5826  0.1652
15075TIP3    H166716   5.593   5.284  14.477  0.2690  1.1624 -0.9182
15075TIP3    H266717   5.715   5.207  14.431  0.0574 -0.0150  0.4547
15076TIP3   OH266718   5.676   3.737  16.652 -0.1279 -0.1178 -0.0445
15076TIP3    H166719   5.747   3.701  16.598 -0.3961 -0.7416  0.0145
15076TIP3    H266720   5.720   3.796  16.713  0.7786 -2.9426  2.1762
15077TIP3   OH266721   6.811   6.089  12.515 -1.3982 -0.3231  0.5600
15077TIP3    H166722   6.804   6.017  12.577 -1.7137  1.1430  2.2923
15077TIP3    H266723   6.885   6.066  12.459  0.3141 -0.6692  2.8918
15078TIP3   OH266724   3.132   2.612   3.799  0.4444  0.1546 -0.1186
15078TIP3    H166725   3.172   2.685   3.846  0.0649  1.3597 -1.6089
15078TIP3    H266726   3.202   2.548   3.789  0.7545  0.2559  1.2874
15079TIP3   OH266727   6.162   5.890   6.211 -0.1295 -0.5674  0.3628
15079TIP3    H166728   6.212   5.818   6.249  0.9356  0.0478  0.1535
15079TIP3    H266729   6.127   5.855   6.129 -0.3391 -1.1082  0.6812
15080TIP3   OH266730   1.788   3.874  13.853 -0.3040 -0.0505  0.3783
15080TIP3    H166731   1.756   3.964  13.860  1.3837  0.6629 -0.7223
15080TIP3    H266732   1.722   3.821  13.897 -2.4925  1.4732 -1.0199
15081TIP3   OH266733   5.095   6.496  12.618  0.7352 -0.0366 -0.2974
15081TIP3    H166734   5.077   6.433  12.687 -0.4014  0.4957 -0.1028
15081TIP3    H266735   5.146   6.447  12.554 -0.2739 -1.2129 -0.2242
15082TIP3   OH266736   0.218   1.423  13.683 -0.5933 -0.0276 -0.0663
15082TIP3    H166737   0.311   1.412  13.701 -0.3716  2.6990  0.5945
15082TIP3    H266738   0.175   1.355  13.736  0.9800 -1.2176 -0.2850
15083TIP3   OH266739   0.479   4.121  12.435  0.1682 -0.0019  0.5028
15083TIP3    H166740   0.384   4.116  12.436  0.1315  0.4933  2.2350
15083TIP3    H266741   0.508   4.032  12.457  0.0165  0.5337  3.0844
15084TIP3   OH266742   2.985   2.254   5.909  0.2940  0.4820 -0.4820
15084TIP3    H166743   2.936   2.183   5.867  2.6837  0.5346 -3.5063
15084TIP3    H266744   2.919   2.302   5.958 -2.2386 -0.9856 -2.2921
15085TIP3   OH266745   0.820   1.670  16.891  0.3836  0.1316  0.0870
15085TIP3    H166746   0.850   1.746  16.942  1.1570 -0.4924  0.5788
15085TIP3    H266747   0.859   1.684  16.804  1.3500 -0.2067  0.4617
15086TIP3   OH266748   1.587   1.473   3.797  0.0823 -0.0457  0.6727
15086TIP3    H166749   1.651   1.432   3.855  0.5868 -0.0964  0.0801
15086TIP3    H266750   1.506   1.424   3.812  0.3007 -0.2825  1.0757
15087TIP3   OH266751   3.867   4.128  16.498  0.4756 -0.1575 -0.2812
15087TIP3    H166752   3.820   4.178  16.430  1.6697 -1.0709 -1.8117
15087TIP3    H266753   3.950   4.175  16.508  0.1913  0.1340  0.7795
15088TIP3   OH266754   2.019   2.693   0.118 -0.1970 -0.0672  0.1583
15088TIP3    H166755   2.000   2.783   0.091 -1.6329 -1.6189 -4.3951
15088TIP3    H266756   2.060   2.653   0.041 -0.8699 -3.7089  1.6131
15089TIP3   OH266757   5.845   3.129   3.671 -0.2018 -0.2173  0.4203
15089TIP3    H166758   5.765   3.110   3.719  0.8220 -0.1316  2.2091
15089TIP3    H266759   5.915   3.111   3.734  1.1726 -0.1925 -1.0835
15090TIP3   OH266760   0.603   4.584   2.851  0.3481 -0.0518 -0.0095
15090TIP3    H166761   0.567   4.624   2.772 -1.3483  1.1077  1.3119
15090TIP3    H266762   0.542   4.513   2.872  1.2325 -0.8708 -0.1831
15091TIP3   OH266763   5.784   4.468  15.691  0.5137 -0.2706  0.2916
15091TIP3    H166764   5.753   4.485  15.780  0.5177 -2.0460  0.6549
15091TIP3    H266765   5.863   4.415  15.703  0.9462  0.1179 -0.7532
15092TIP3   OH266766   1.807   0.085   6.117 -0.1472  0.0470  0.1909
15092TIP3    H166767   1.863   0.017   6.079  0.0684 -0.7682  1.9268
15092TIP3    H266768   1.778   0.049   6.201  1.9406  3.0468  2.3131
15093TIP3   OH266769   4.783   6.493   1.086  0.4841 -0.3196 -0.7496
15093TIP3    H166770   4.753   6.568   1.033  1.5808  0.7852  0.1428
15093TIP3    H266771   4.705   6.441   1.101 -0.3840  0.8820 -1.0333
15094TIP3   OH266772   2.351   4.163   1.749  0.2776  0.0258 -0.0457
15094TIP3    H166773   2.284   4.200   1.806  1.4169 -2.1898  2.8281
15094TIP3    H266774   2.426   4.221   1.759  0.1416  0.2033 -0.0603
15095TIP3   OH266775   0.913   3.678  12.447 -0.2274 -0.3139 -0.0727
15095TIP3    H166776   0.947   3.767  12.450  0.5882 -0.5722 -1.1508
15095TIP3    H266777   0.928   3.643  12.535  2.2139 -0.3685 -0.4844
15096TIP3   OH266778   2.804   5.209  15.752  0.4676  0.4415  0.0507
15096TIP3    H166779   2.745   5.178  15.821  0.9870  1.2749  0.8769
15096TIP3    H266780   2.877   5.146  15.753  0.3781  0.3382  0.1223
15097TIP3   OH266781   5.650   5.970   4.083  0.5683  0.4794  0.5377
15097TIP3    H166782   5.725   5.940   4.031  0.0577 -2.2363  1.2535
15097TIP3    H266783   5.577   5.967   4.022  0.3269 -0.8478  0.8614
15098TIP3   OH266784   6.104   3.441   2.965  0.3000  0.4446 -0.2177
15098TIP3    H166785   6.102   3.535   2.948  0.3563  0.6835  1.1091
15098TIP3    H266786   6.072   3.431   3.054 -0.7131 -0.8973 -0.7234
15099TIP3   OH266787   0.182   4.829   1.779  0.6645  0.1567 -0.0750
15099TIP3    H166788   0.166   4.898   1.714  1.0860 -0.8783 -1.2798
15099TIP3    H266789   0.276   4.814   1.776  0.7396  0.3276  1.0292
15100TIP3   OH266790   2.323   4.374  11.493  0.1429  0.2826  0.1156
15100TIP3    H166791   2.302   4.289  11.452 -3.5838  1.7866 -1.3731
15100TIP3    H266792   2.323   4.356  11.587  0.6622 -1.6197 -0.2273
15101TIP3   OH266793   6.557   6.284   6.450  0.2150 -0.3712  0.0159
15101TIP3    H166794   6.579   6.194   6.474  1.2091  0.5732  2.7874
15101TIP3    H266795   6.619   6.305   6.380  0.5985 -1.5091 -0.0056
15102TIP3   OH266796   2.531   5.212   2.550  0.1752 -0.4744  0.8471
15102TIP3    H166797   2.553   5.120   2.541  1.4096 -0.3845  2.6441
15102TIP3    H266798   2.452   5.213   2.605 -1.3939 -0.5611 -1.3649
15103TIP3   OH266799   1.032   0.592  15.103 -0.0462 -0.3811 -0.1030
15103TIP3    H166800   0.988   0.591  15.188 -0.4021  0.8419 -0.2625
15103TIP3    H266801   1.013   0.679  15.067 -0.5676 -1.1633 -1.7844
15104TIP3   OH266802   4.047   1.088  13.002 -0.3042 -0.3929 -1.1934
15104TIP3    H166803   4.064   1.123  12.915 -1.3063  1.7540 -0.5574
15104TIP3    H266804   3.979   1.022  12.988 -1.1092  0.5705 -1.9377
15105TIP3   OH266805   1.697   1.130   4.922  0.0686  0.2759 -0.7643
15105TIP3    H166806   1.677   1.043   4.956  0.3209 -0.6615 -2.9402
15105TIP3    H266807   1.623   1.184   4.951 -1.0691 -1.1090 -1.0338
15106TIP3   OH266808   0.537   6.366   0.609  0.7140 -0.3910  0.4369
15106TIP3    H166809   0.599   6.298   0.586  1.5245  0.4010  0.2471
15106TIP3    H266810   0.507   6.343   0.697  1.9720 -0.2946  0.9038
15107TIP3   OH266811   5.682   2.426   0.773 -0.0757 -0.3668  0.0788
15107TIP3    H166812   5.686   2.439   0.868 -2.0511 -0.6404  0.2095
15107TIP3    H266813   5.762   2.378   0.752  1.0284  0.8359  1.4025
15108TIP3   OH266814   1.080   4.456  16.130 -0.1642 -0.4081  0.0031
15108TIP3    H166815   1.077   4.547  16.102  0.3409 -0.1946  0.6367
15108TIP3    H266816   1.008   4.447  16.192  1.6924  0.3896  2.3546
15109TIP3   OH266817   1.543   5.668   3.464 -0.4823 -0.2152 -0.4115
15109TIP3    H166818   1.519   5.667   3.371  0.8976  2.3062 -0.8342
15109TIP3    H266819   1.581   5.582   3.480  0.5058 -0.2083 -2.5281
15110TIP3   OH266820   3.695   0.310   4.852  0.1132 -0.1295  0.1026
15110TIP3    H166821   3.696   0.304   4.756 -1.1769 -0.1121  0.0782
15110TIP3    H266822   3.618   0.260   4.878 -0.3570  1.0508  1.0388
15111TIP3   OH266823   3.286   1.715  16.543  0.7464 -0.2216 -0.0926
15111TIP3    H166824   3.232   1.722  16.621  0.1128  1.6597 -0.6767
15111TIP3    H266825   3.367   1.761  16.565  1.0511 -0.7257 -0.1441
15112TIP3   OH266826   4.203   4.882  10.739  0.4461  0.0802 -0.1077
15112TIP3    H166827   4.203   4.797  10.695 -1.9827 -1.6104  2.8955
15112TIP3    H266828   4.277   4.878  10.799 -0.2724 -0.3854  0.7717
15113TIP3   OH266829   3.905   5.052  14.302  0.4759 -0.4499 -0.2958
15113TIP3    H166830   3.912   5.080  14.394 -0.6756 -1.7863  0.2194
15113TIP3    H266831   3.867   5.128  14.257 -0.5957 -0.3857  0.6780
15114TIP3   OH266832   0.873   5.777   5.163 -0.0135  0.1763 -0.1324
15114TIP3    H166833   0.904   5.820   5.084  0.0082  0.4999  0.0518
15114TIP3    H266834   0.866   5.685   5.139 -1.5598  0.5035 -0.9736
15115TIP3   OH266835   2.101   1.527  12.476 -0.2959 -0.0954  0.3550
15115TIP3    H166836   2.077   1.545  12.385 -1.3696  0.3191  0.7145
15115TIP3    H266837   2.153   1.446  12.472 -3.1527 -1.9693 -0.2691
15116TIP3   OH266838   0.273   1.035  12.586 -0.4188 -0.4780  0.7106
15116TIP3    H166839   0.322   1.008  12.509 -2.4662  0.3982 -0.9290
15116TIP3    H266840   0.252   0.952  12.631 -0.3596 -1.0840 -0.3722
15117TIP3   OH266841   3.426   4.794   5.610 -0.1507  0.0293 -0.3451
15117TIP3    H166842   3.407   4.774   5.518 -0.6198 -2.0899  0.1859
15117TIP3    H266843   3.344   4.774   5.655  0.6151 -0.6344  0.7627
15118TIP3   OH266844   5.461   0.791   5.312 -0.2837 -0.2323  0.1236
15118TIP3    H166845   5.386   0.795   5.254 -0.3366  2.3665  0.2807
15118TIP3    H266846   5.424   0.799   5.400  0.0051 -1.3024  0.3486
15119TIP3   OH266847   1.928   1.870  12.160 -0.3899  0.2347 -0.2863
15119TIP3    H166848   1.975   1.792  12.187  0.4476  0.2784 -1.5566
15119TIP3    H266849   1.990   1.917  12.104 -1.1196  1.4704 -0.0597
15120TIP3   OH266850   1.533   2.239  13.749  0.2880  0.3307 -0.2000
15120TIP3    H166851   1.600   2.176  13.774 -2.1364 -2.5207 -0.6946
15120TIP3    H266852   1.476   2.245  13.826 -0.8144  0.1059 -0.9841
15121TIP3   OH266853   6.216   1.546   2.887  0.4123 -0.1770 -0.1021
15121TIP3    H166854   6.253   1.616   2.941  0.8518  0.2831 -0.9787
15121TIP3    H266855   6.122   1.548   2.905  0.7205 -0.9242  1.6659
15122TIP3   OH266856   2.092   4.059  16.346  0.3787  0.5450 -0.4525
15122TIP3    H166857   2.082   4.077  16.439 -1.3655  2.0426 -0.8978
15122TIP3    H266858   2.119   4.143  16.308  0.5555  0.0827 -1.3687
15123TIP3   OH266859   6.319   3.651  12.619  0.5934  0.3191 -0.3763
15123TIP3    H166860   6.280   3.710  12.555  1.9576  1.0249 -0.5838
15123TIP3    H266861   6.330   3.568  12.572 -2.2845 -0.4579  0.2256
15124TIP3   OH266862   0.849   0.613  16.032  0.5245 -0.0830 -0.2420
15124TIP3    H166863   0.788   0.645  15.966  0.8374  0.4174 -0.2896
15124TIP3    H266864   0.896   0.541  15.989  1.7545  1.1819 -1.0633
15125TIP3   OH266865   6.533   5.010   1.101  0.2241 -0.1075 -0.1712
15125TIP3    H166866   6.549   5.047   1.187  0.6878  0.9442 -0.6961
15125TIP3    H266867   6.621   4.996   1.064  0.0257 -0.3016 -0.5810
15126TIP3   OH266868   0.322   1.404   4.552  0.0499  0.3902 -0.4273
15126TIP3    H166869   0.344   1.460   4.626 -1.6157 -1.7405  1.7608
15126TIP3    H266870   0.228   1.414   4.541  0.2633  0.5877 -2.1916
15127TIP3   OH266871   1.715   3.639  12.749  0.6602  0.2578  0.0169
15127TIP3    H166872   1.677   3.558  12.716 -2.0159  0.6950  1.8943
15127TIP3    H266873   1.808   3.632  12.728  0.1028 -2.2890 -1.8067
15128TIP3   OH266874   4.935   3.165  11.667 -0.3591 -0.1742 -0.3342
15128TIP3    H166875   4.974   3.137  11.584 -0.6059  0.0780 -0.5378
15128TIP3    H266876   4.864   3.225  11.641 -0.7171 -0.4324  0.0387
15129TIP3   OH266877   2.151   4.007  14.607 -0.3617 -0.3226 -0.0573
15129TIP3    H166878   2.127   4.039  14.694  0.6464  0.0798  0.0761
15129TIP3    H266879   2.142   3.912  14.614  1.7441 -0.4676  1.1340
15130TIP3   OH266880   0.146   1.004   0.328 -0.3104 -0.2617  0.1914
15130TIP3    H166881   0.082   1.056   0.375 -0.6260  1.0542 -1.6532
15130TIP3    H266882   0.231   1.037   0.358 -0.4836 -1.0195  1.5489
15131TIP3   OH266883   0.396   4.697  15.740  0.6668  0.3958 -0.2591
15131TIP3    H166884   0.486   4.670  15.722  1.4401  1.3464  2.0334
15131TIP3    H266885   0.373   4.755  15.668  1.4059 -0.9030 -1.5618
15132TIP3   OH266886   2.360   6.040   3.437  0.2282 -0.2712 -0.3229
15132TIP3    H166887   2.292   6.019   3.373  0.2756  1.5852 -1.0171
15132TIP3    H266888   2.424   6.091   3.387  0.9304  0.0499  0.8967
15133TIP3   OH266889   1.289   1.127   1.407 -0.6248  0.0129  0.8885
15133TIP3    H166890   1.248   1.185   1.472  0.8469  0.4653  1.4362
15133TIP3    H266891   1.383   1.138   1.422 -0.3133 -1.7668  0.3194
15134TIP3   OH266892   6.484   2.450   4.992 -0.0595 -0.4685  0.1936
15134TIP3    H166893   6.442   2.530   5.023  1.7572  0.8209 -0.5767
15134TIP3    H266894   6.578   2.468   4.998  0.3644 -1.9151 -1.5664
15135TIP3   OH266895   6.068   4.001  14.291  0.6864  0.2757  0.2603
15135TIP3    H166896   6.130   4.058  14.246  2.3639 -0.0994  2.0799
15135TIP3    H266897   6.120   3.951  14.353 -0.7185 -3.2663 -1.2206
15136TIP3   OH266898   1.337   5.965   4.484 -0.0012 -0.6797  0.3414
15136TIP3    H166899   1.276   6.033   4.512 -0.8295 -0.7712 -1.1695
15136TIP3    H266900   1.422   6.009   4.477  0.0567 -0.4692  2.1037
15137TIP3   OH266901   5.139   4.705  15.607  0.3833 -0.3755 -0.5756
15137TIP3    H166902   5.178   4.770  15.666  1.4061 -1.9411  0.5396
15137TIP3    H266903   5.065   4.670  15.656 -0.7230  0.5931 -1.5456
15138TIP3   OH266904   5.268   0.259  11.566 -0.4114 -0.4281  0.0486
15138TIP3    H166905   5.256   0.164  11.573  0.8177 -0.4554  2.2902
15138TIP3    H266906   5.216   0.284  11.489  0.2521 -3.0788 -1.3438
15139TIP3   OH266907   6.434   0.862   5.891  0.1682  0.2611 -0.3892
15139TIP3    H166908   6.348   0.871   5.934 -0.1113 -1.0699 -0.6464
15139TIP3    H266909   6.441   0.769   5.871  2.4366  0.0843  1.1668
15140TIP3   OH266910   2.336   3.382  16.266 -0.2718 -0.2273  0.1302
15140TIP3    H166911   2.361   3.319  16.334 -1.9589 -2.0995 -0.9317
15140TIP3    H266912   2.317   3.462  16.314  0.1494 -1.0396  1.7063
15141TIP3   OH266913   4.577   1.849   2.335 -0.1994  0.0678 -0.4050
15141TIP3    H166914   4.634   1.919   2.302  0.2274 -0.1057 -0.0426
15141TIP3    H266915   4.618   1.822   2.417 -0.6116 -0.3048 -0.3216
15142TIP3   OH266916   5.519   0.078  16.826  0.2236 -0.0878  0.3781
15142TIP3    H166917   5.612   0.069  16.804  0.5066  0.4616  1.3146
15142TIP3    H266918   5.485  -0.012  16.824  0.4924 -0.1617 -1.1493
15143TIP3   OH266919   1.325   5.219  14.716 -0.5341 -0.0901 -0.1968
15143TIP3    H166920   1.327   5.299  14.663  0.7599  0.6307  0.9188
15143TIP3    H266921   1.382   5.238  14.790 -0.7557 -1.8159  0.4303
15144TIP3   OH266922   6.358   1.379  11.218  0.0866  0.2144  0.1900
15144TIP3    H166923   6.302   1.444  11.261 -1.0413 -0.8184  0.3058
15144TIP3    H266924   6.398   1.427  11.145 -1.0311  0.9531  0.0429
15145TIP3   OH266925   3.226   1.255   2.867  0.2178 -0.0560 -0.2066
15145TIP3    H166926   3.151   1.292   2.822 -0.4776 -1.6386 -0.3890
15145TIP3    H266927   3.260   1.326   2.921 -1.5576  0.6001  0.0577
15146TIP3   OH266928   1.265   0.342   6.663  0.2928  0.2432  0.3451
15146TIP3    H166929   1.276   0.414   6.601  2.6263  1.4664  2.0995
15146TIP3    H266930   1.218   0.381   6.737 -2.2884 -1.1536 -0.4553
15147TIP3   OH266931   5.656   4.028  10.461  0.3304 -0.2933  0.2066
15147TIP3    H166932   5.570   3.997  10.492  0.7890  0.3823  2.2130
15147TIP3    H266933   5.719   3.983  10.517  1.1899  0.9450  0.2405
15148TIP3   OH266934   5.783   5.728  11.049 -0.4359 -0.1734  0.5453
15148TIP3    H166935   5.771   5.783  10.971  2.2012 -0.5345 -0.1731
15148TIP3    H266936   5.696   5.697  11.070 -1.5944  2.1423 -0.6321
15149TIP3   OH266937   0.821   0.426  13.962  0.3042 -0.3243  0.0169
15149TIP3    H166938   0.779   0.349  13.923  0.6122  0.3768 -1.7569
15149TIP3    H266939   0.802   0.419  14.056 -0.5209 -2.0221 -0.2518
15150TIP3   OH266940   0.298   1.421  15.684 -0.3168 -0.2314 -0.2222
15150TIP3    H166941   0.218   1.415  15.736  0.8437 -1.1762  1.4947
15150TIP3    H266942   0.339   1.503  15.712 -0.3025 -0.1199 -0.5629
15151TIP3   OH266943   0.147   3.873  16.854 -0.5034  0.1227 -0.2888
15151TIP3    H166944   0.076   3.888  16.916  0.8120  0.3668  1.2046
15151TIP3    H266945   0.188   3.791  16.885  1.3216  1.2313  0.3112
15152TIP3   OH266946   3.556   5.726  16.070 -0.4375  0.7186 -0.7819
15152TIP3    H166947   3.514   5.807  16.041 -0.9155  1.4740  1.8804
15152TIP3    H266948   3.483   5.671  16.100  0.0078 -0.1809 -1.3101
15153TIP3   OH266949   6.349   5.061   6.047  0.3266 -0.7541 -0.3649
15153TIP3    H166950   6.407   5.031   5.977 -0.1227 -0.9738 -0.6457
15153TIP3    H266951   6.396   5.134   6.087  0.6129 -0.6614 -0.8618
15154TIP3   OH266952   0.614   2.259   2.693  0.2790  0.2136  0.2642
15154TIP3    H166953   0.620   2.351   2.718 -4.0954  0.7973 -0.3494
15154TIP3    H266954   0.646   2.256   2.603  0.4919  1.1226  0.3028
15155TIP3   OH266955   1.244   0.984   0.914 -0.4044  0.5166 -0.0994
15155TIP3    H166956   1.278   1.060   0.961  0.1876  0.5606 -0.6003
15155TIP3    H266957   1.293   0.982   0.832 -0.8725 -0.0275 -0.3711
15156TIP3   OH266958   4.814   4.625  16.721  0.0747 -0.4108 -0.1367
15156TIP3    H166959   4.832   4.572  16.644  0.0032 -0.1883 -0.3075
15156TIP3    H266960   4.749   4.575  16.771 -2.1289  0.8028 -1.6885
15157TIP3   OH266961   3.217   6.750   2.598 -0.7827 -0.5251 -1.0603
15157TIP3    H166962   3.273   6.803   2.656 -0.2800  0.9868 -2.8597
15157TIP3    H266963   3.274   6.728   2.525 -1.2018 -3.0467 -0.6485
15158TIP3   OH266964   4.693   3.862   5.680 -0.5125  0.2387  0.1969
15158TIP3    H166965   4.611   3.892   5.642  0.2461  2.0005 -0.1155
15158TIP3    H266966   4.732   3.941   5.719  1.0249 -0.5598  0.3203
15159TIP3   OH266967   0.516   6.499   3.567 -0.8626 -0.0312  0.7593
15159TIP3    H166968   0.443   6.480   3.627 -0.9817 -2.0770 -0.0044
15159TIP3    H266969   0.486   6.467   3.482 -0.4437  2.3107 -0.2966
15160TIP3   OH266970   2.297   4.386  15.039  0.3596  0.0078 -0.5404
15160TIP3    H166971   2.285   4.440  15.117 -0.1815 -0.2373 -0.4541
15160TIP3    H266972   2.386   4.406  15.009  0.9117 -0.6109  0.6803
15161TIP3   OH266973   3.443   1.895   0.806  0.1736  0.1500  0.1030
15161TIP3    H166974   3.358   1.937   0.813 -0.0805 -0.1952 -0.9382
15161TIP3    H266975   3.477   1.896   0.896 -0.6161  0.9098  0.4038
15162TIP3   OH266976   6.200   5.246   4.909 -0.0188 -0.0370  0.1432
15162TIP3    H166977   6.293   5.235   4.928 -0.3281 -0.6338  1.3434
15162TIP3    H266978   6.177   5.330   4.949  0.1559  0.4329 -0.7384
15163TIP3   OH266979   4.058   1.399   3.233  0.1685  0.1311 -0.2073
15163TIP3    H166980   4.108   1.322   3.206  0.4563  0.0308  0.5961
15163TIP3    H266981   3.967   1.376   3.214  0.3837  0.1947 -1.3834
15164TIP3   OH266982   0.025   1.863   3.005  0.2367  0.5589 -0.3125
15164TIP3    H166983  -0.055   1.902   3.041  0.0659  2.3624 -2.5157
15164TIP3    H266984   0.091   1.932   3.012  0.6493  0.3440 -1.7552
15165TIP3   OH266985   3.621   2.222  16.944  0.0260  0.4175 -0.0559
15165TIP3    H166986   3.610   2.235  16.850  0.5156  1.4058  0.0198
15165TIP3    H266987   3.588   2.302  16.983 -0.1350  0.0247  0.6184
15166TIP3   OH266988   1.804   5.259  13.697  0.0867  0.6621 -0.1285
15166TIP3    H166989   1.818   5.207  13.776  0.2433 -0.5550 -0.9285
15166TIP3    H266990   1.810   5.195  13.626 -1.3859  1.5222 -1.0367
15167TIP3   OH266991   4.361   1.590  16.627 -0.1729  0.0018 -0.6134
15167TIP3    H166992   4.429   1.601  16.693  0.4211 -0.7270 -1.0986
15167TIP3    H266993   4.402   1.536  16.559 -1.2187 -0.4146 -0.9234
15168TIP3   OH266994   4.631   3.194  13.737  0.3977 -0.3365 -0.4905
15168TIP3    H166995   4.681   3.272  13.713 -0.2552  0.7705  1.6018
15168TIP3    H266996   4.697   3.128  13.756  1.1478  1.2407  2.6627
15169TIP3   OH266997   3.667   5.909  16.904 -0.1897  0.0230  0.4551
15169TIP3    H166998   3.759   5.916  16.930 -0.7218 -0.5188  2.6352
15169TIP3    H266999   3.644   5.818  16.920 -1.3030  0.3236  0.6286
15170TIP3   OH267000   2.983   0.895   4.202  0.4662  0.7868  0.5094
15170TIP3    H167001   2.913   0.949   4.239  0.9127  1.3123  0.5929
15170TIP3    H267002   3.053   0.899   4.267  0.7308  0.5994  0.2351
15171TIP3   OH267003   2.879   6.164   4.726 -0.0264 -0.1404  0.2925
15171TIP3    H167004   2.844   6.083   4.764 -2.9994  0.2445 -1.4839
15171TIP3    H267005   2.928   6.135   4.649  1.7778 -0.4795  1.5208
15172TIP3   OH267006   6.359   4.753   5.447  0.2221 -0.4188  0.3394
15172TIP3    H167007   6.336   4.670   5.405 -1.0986  0.0953  0.0222
15172TIP3    H267008   6.277   4.782   5.488  0.0013  2.0229 -1.7432
15173TIP3   OH267009   3.381   0.911   1.837  1.1666  0.1371 -0.6840
15173TIP3    H167010   3.405   0.898   1.929  1.0155  0.5764 -0.5830
15173TIP3    H267011   3.462   0.943   1.796  0.8384  1.3788 -0.3943
15174TIP3   OH267012   1.146   6.593  16.371  0.2911  0.4542 -0.4232
15174TIP3    H167013   1.060   6.563  16.402  0.7648  0.2553  0.7480
15174TIP3    H267014   1.165   6.669  16.426  0.9389  0.3986 -0.5735
15175TIP3   OH267015   5.971   6.529  15.410  0.6807  0.5315 -0.1102
15175TIP3    H167016   5.945   6.441  15.439 -0.0715  0.6945 -0.3001
15175TIP3    H267017   6.009   6.569  15.488 -0.2452  0.5339  0.3501
15176TIP3   OH267018   0.927   5.412   1.444 -0.2111  0.5002  0.8181
15176TIP3    H167019   1.016   5.395   1.475 -0.5696  0.1064  1.6467
15176TIP3    H267020   0.871   5.376   1.513 -1.0081  1.6494  0.7681
15177TIP3   OH267021   0.247   2.840   2.913 -0.1662 -0.0478 -0.1218
15177TIP3    H167022   0.236   2.900   2.987  0.1277  0.4977 -0.5176
15177TIP3    H267023   0.330   2.796   2.931  0.2373  0.5714 -0.4692
15178TIP3   OH267024   1.384   6.239   1.092 -0.1348  0.0944  0.2608
15178TIP3    H167025   1.351   6.220   1.180 -0.4547  0.4688  0.2203
15178TIP3    H267026   1.447   6.311   1.106  1.2335 -1.1093  0.4437
15179TIP3   OH267027   3.387   3.171  13.435 -0.2445  0.2523  0.7984
15179TIP3    H167028   3.469   3.185  13.483  0.0861  3.1686 -0.5042
15179TIP3    H267029   3.401   3.090  13.386  1.7260  0.5316  0.8754
15180TIP3   OH267030   5.298   6.160   2.140 -0.2787 -0.2329  0.2102
15180TIP3    H167031   5.384   6.119   2.149 -0.8619 -1.9534 -1.7850
15180TIP3    H267032   5.248   6.127   2.215  0.2765 -0.5515  0.4444
15181TIP3   OH267033   1.237   4.106  13.326  0.6367  0.0677  0.1704
15181TIP3    H167034   1.328   4.085  13.303  0.2628 -1.5165  0.0865
15181TIP3    H267035   1.234   4.202  13.325  1.9610  0.1249 -1.2093
15182TIP3   OH267036   1.988   6.745   2.302 -0.2281  0.1025 -0.8310
15182TIP3    H167037   2.066   6.719   2.349 -1.2996 -2.2392 -0.2836
15182TIP3    H267038   1.987   6.690   2.223 -0.7693  0.8496 -1.3583
15183TIP3   OH267039   4.167   0.781   3.377  0.2627 -0.5899 -0.3743
15183TIP3    H167040   4.193   0.726   3.451  0.3474 -0.8054 -0.5623
15183TIP3    H267041   4.100   0.729   3.332 -1.1799  0.3442  0.6324
15184TIP3   OH267042   3.963   5.111   5.813  0.0730 -0.2433 -0.6145
15184TIP3    H167043   3.907   5.176   5.771  0.5107  0.2507 -0.4515
15184TIP3    H267044   3.997   5.156   5.891 -0.1030 -0.8749 -0.1636
15185TIP3   OH267045   4.197   6.722  17.272  0.6621  0.0748  0.0265
15185TIP3    H167046   4.255   6.752  17.202 -0.9970 -0.3089 -1.5687
15185TIP3    H267047   4.217   6.629  17.283  0.8682  0.1157 -0.0069
15186TIP3   OH267048   2.420   5.480  10.664  0.3950 -0.3717  0.7398
15186TIP3    H167049   2.380   5.402  10.627  1.4425 -0.9558  0.8200
15186TIP3    H267050   2.361   5.552  10.639 -0.2910 -1.1125  0.2207
15187TIP3   OH267051   4.561   4.225   1.650 -0.0617 -0.1169 -0.4779
15187TIP3    H167052   4.512   4.302   1.679 -0.5851 -0.4029 -0.5922
15187TIP3    H267053   4.558   4.230   1.554 -2.7327 -1.9229 -0.5245
15188TIP3   OH267054   3.684   4.518   2.964  0.2312 -0.2000  0.3401
15188TIP3    H167055   3.689   4.426   2.989  0.1967  0.0112  1.1305
15188TIP3    H267056   3.689   4.566   3.047 -0.6881  0.4784  0.0131
15189TIP3   OH267057   1.466   6.313   4.730 -0.2636 -0.3449  0.0263
15189TIP3    H167058   1.376   6.280   4.730 -0.6326  0.6410  0.9501
15189TIP3    H267059   1.518   6.241   4.766 -0.4732 -1.4339 -1.7699
15190TIP3   OH267060   5.279   2.857   2.055 -0.1299  0.1850  0.3204
15190TIP3    H167061   5.278   2.953   2.055 -1.4462  0.1925 -1.1360
15190TIP3    H267062   5.257   2.833   1.965  0.7348 -1.4936  0.5417
15191TIP3   OH267063   5.466   2.194  13.851  0.4152 -0.4748 -0.2662
15191TIP3    H167064   5.405   2.125  13.823 -0.6831  0.2667  0.2594
15191TIP3    H267065   5.415   2.248  13.911  0.9248  1.4124 -1.4872
15192TIP3   OH267066   0.906   1.175  14.074  0.8142 -0.4432  0.2160
15192TIP3    H167067   0.926   1.202  13.984  1.9597 -0.1845  0.5381
15192TIP3    H267068   0.909   1.256  14.124 -0.9147 -0.4207  0.3169
15193TIP3   OH267069   3.376   0.434   3.396 -0.3051  0.1281  0.0641
15193TIP3    H167070   3.355   0.422   3.488 -0.6079 -0.9894 -0.1444
15193TIP3    H267071   3.437   0.364   3.375 -1.0224 -0.2510 -0.8295
15194TIP3   OH267072   1.225   1.450   4.018 -0.8739 -0.0603  0.4777
15194TIP3    H167073   1.179   1.528   4.049  2.2385  1.2519  1.9101
15194TIP3    H267074   1.188   1.379   4.071 -1.4855  0.8985  1.3636
15195TIP3   OH267075   0.941   2.366   2.018 -0.2779 -0.0003 -0.3921
15195TIP3    H167076   0.916   2.411   2.099 -0.0577  1.5336 -1.1416
15195TIP3    H267077   0.999   2.296   2.046  0.3193  0.9231  0.7423
15196TIP3   OH267078   3.439   2.378  13.283 -0.0670 -0.0491  0.1616
15196TIP3    H167079   3.381   2.420  13.220  0.1463  0.8854  0.5725
15196TIP3    H267080   3.404   2.290  13.294 -0.0819 -0.2294 -1.2857
15197TIP3   OH267081   5.607   1.836  16.783 -0.1263 -0.4072  0.4465
15197TIP3    H167082   5.622   1.821  16.690 -2.4079 -1.9442  0.2921
15197TIP3    H267083   5.618   1.750  16.824 -1.0164 -0.1087  1.3306
15198TIP3   OH267084   4.930   3.117   2.656  0.1038 -0.1834  0.5621
15198TIP3    H167085   4.985   3.138   2.731  0.8693  0.1088 -0.0835
15198TIP3    H267086   4.955   3.180   2.589  1.0102 -1.8602 -0.7128
15199TIP3   OH267087   1.288   5.526  16.048 -0.5530  0.1570 -0.1036
15199TIP3    H167088   1.358   5.570  16.097  2.9798 -2.1911 -2.8640
15199TIP3    H267089   1.274   5.444  16.095 -0.6105  0.0844 -0.2486
15200TIP3   OH267090   6.153   5.896  16.840  0.0033 -0.3293  0.4190
15200TIP3    H167091   6.104   5.924  16.917  0.6349  0.8334  0.4162
15200TIP3    H267092   6.245   5.914  16.863  0.1902  0.0900 -0.6138
15201TIP3   OH267093   0.813   0.948   2.796  0.8137  0.0405  0.3127
15201TIP3    H167094   0.773   0.867   2.828  0.5074 -0.5924 -1.5886
15201TIP3    H267095   0.752   1.017   2.822 -0.2367 -0.6376 -0.3047
15202TIP3   OH267096   0.396   4.655   3.836  0.0122  0.1180  0.2844
15202TIP3    H167097   0.434   4.730   3.791 -0.7792 -0.2694 -1.0623
15202TIP3    H267098   0.461   4.586   3.828 -0.9362 -0.5784 -2.1116
15203TIP3   OH267099   0.737   1.587  11.523 -0.0293 -0.8407 -0.0065
15203TIP3    H167100   0.829   1.611  11.523  0.4299 -2.4480 -1.2022
15203TIP3    H267101   0.690   1.670  11.523  1.4217 -0.0028 -0.1440
15204TIP3   OH267102   0.918   6.376  11.975 -0.2414 -0.1237  0.4794
15204TIP3    H167103   0.948   6.337  12.058 -1.2331 -0.3872  0.7146
15204TIP3    H267104   0.833   6.335  11.958 -0.8424  1.2218  0.2151
15205TIP3   OH267105   0.925   6.626   6.275 -0.2159 -0.7593 -0.1026
15205TIP3    H167106   0.999   6.591   6.225  1.6839  0.6995  1.6255
15205TIP3    H267107   0.851   6.571   6.249  1.5144 -2.4308 -1.6597
15206TIP3   OH267108   5.341   0.237   3.454 -0.6744 -0.2609  0.2621
15206TIP3    H167109   5.363   0.284   3.374  0.4570 -3.2375 -1.2621
15206TIP3    H267110   5.248   0.254   3.468 -0.7882  0.6084 -1.4851
15207TIP3   OH267111   1.118   4.981   5.519 -0.1641 -0.5872  0.1557
15207TIP3    H167112   1.043   4.934   5.555 -0.6745 -0.2550 -0.4720
15207TIP3    H267113   1.083   5.030   5.445  0.8463 -1.0868 -0.6598
15208TIP3   OH267114   0.513   6.239  12.835  0.5238  0.0424 -0.1563
15208TIP3    H167115   0.581   6.260  12.899  0.5010  0.2150 -0.1894
15208TIP3    H267116   0.559   6.193  12.765  0.3973 -0.9368  0.4067
15209TIP3   OH267117   3.920   2.353   4.949  0.2923  0.1128  0.5084
15209TIP3    H167118   3.998   2.354   4.893 -0.1579 -1.3555 -0.1513
15209TIP3    H267119   3.951   2.315   5.031  0.6905  1.2558  0.9071
15210TIP3   OH267120   0.653   5.487   3.430  0.3869 -0.1346 -0.3757
15210TIP3    H167121   0.729   5.431   3.411 -0.5309 -0.6407 -2.8097
15210TIP3    H267122   0.578   5.428   3.425 -0.4238  0.9194 -1.0537
15211TIP3   OH267123   2.369   1.016   5.482 -0.8410  0.1227  0.0855
15211TIP3    H167124   2.408   1.049   5.563 -0.5528 -1.2924  0.5372
15211TIP3    H267125   2.299   0.957   5.511  0.9389 -2.4246 -0.6198
15212TIP3   OH267126   4.756   2.496   2.870 -0.0948 -0.6771  0.5961
15212TIP3    H167127   4.779   2.428   2.933  1.7421 -0.5608  0.0658
15212TIP3    H267128   4.840   2.527   2.836 -0.9416  1.2234  0.1700
15213TIP3   OH267129   6.209   6.040  13.505  0.0034 -0.3245 -0.3574
15213TIP3    H167130   6.226   6.020  13.413  0.9916 -0.3568 -0.1703
15213TIP3    H267131   6.285   6.090  13.533 -0.4189 -0.0846  0.3811
15214TIP3   OH267132   3.716   0.527  12.097 -0.1126  0.0793 -0.4418
15214TIP3    H167133   3.637   0.579  12.081 -0.1962  0.1588  0.1862
15214TIP3    H267134   3.688   0.458  12.157  0.3961  0.4061  0.1912
15215TIP3   OH267135   0.202   3.203  15.544 -0.1892 -0.5480 -0.7161
15215TIP3    H167136   0.242   3.139  15.485  1.2993  0.5996 -0.9757
15215TIP3    H267137   0.264   3.211  15.616  1.2880  3.0093 -2.2621
15216TIP3   OH267138   4.256   4.458  16.946 -0.0180 -0.1559  0.1060
15216TIP3    H167139   4.167   4.492  16.950 -0.3818 -1.2380  1.2823
15216TIP3    H267140   4.278   4.435  17.036  0.8209 -1.4874 -0.4127
15217TIP3   OH267141   4.461   5.904   6.141  0.0465 -0.2987 -0.7069
15217TIP3    H167142   4.529   5.851   6.182 -0.5557 -1.2485 -0.9098
15217TIP3    H267143   4.437   5.968   6.208 -0.0986 -1.0886  0.0222
15218TIP3   OH267144   2.884   5.444  10.777 -0.0648  0.1576  0.0285
15218TIP3    H167145   2.923   5.514  10.725 -0.1434  0.4388  0.3474
15218TIP3    H267146   2.921   5.363  10.741 -0.7185  0.2958 -0.9854
15219TIP3   OH267147   6.362   1.435   4.645 -0.7625  0.4855 -0.2469
15219TIP3    H167148   6.398   1.446   4.557  2.2645 -2.6482  0.5019
15219TIP3    H267149   6.397   1.509   4.695  1.4815 -0.3798 -0.5132
15220TIP3   OH267150   4.411   4.086  16.261 -0.1385 -0.0824  0.6060
15220TIP3    H167151   4.425   4.033  16.183 -0.5784  0.1624  0.3598
15220TIP3    H267152   4.483   4.062  16.320 -0.3015 -0.9070  0.4714
15221TIP3   OH267153   5.444   3.119  12.087  0.0586  0.2962 -0.1759
15221TIP3    H167154   5.529   3.122  12.131  1.4803 -3.7233 -2.4201
15221TIP3    H267155   5.386   3.074  12.149  0.6139 -0.5005 -0.2373
15222TIP3   OH267156   6.724   1.052   1.142 -0.1637 -0.3471  0.4493
15222TIP3    H167157   6.806   1.090   1.171 -0.3287 -0.1050  0.6003
15222TIP3    H267158   6.747   0.963   1.117  0.7108  0.6242 -2.3298
15223TIP3   OH267159   5.480   1.056   5.528 -0.3268 -0.2087  0.4846
15223TIP3    H167160   5.441   1.062   5.615 -1.3778 -2.4737  0.2249
15223TIP3    H267161   5.449   1.134   5.482 -0.3798  0.6204  1.8996
15224TIP3   OH267162   5.757   2.974   1.132  0.0410 -0.3534 -0.0244
15224TIP3    H167163   5.705   3.032   1.076 -1.9183 -0.5106  1.5788
15224TIP3    H267164   5.721   2.886   1.116  1.6909 -0.8967 -0.9628
15225TIP3   OH267165   0.491   1.179   3.110  0.2048 -0.5388 -0.1178
15225TIP3    H167166   0.480   1.166   3.016  1.3348 -2.1049 -0.0465
15225TIP3    H267167   0.564   1.122   3.134 -0.4180 -0.5613  1.8025
15226TIP3   OH267168   6.103   0.055  13.701  0.1024 -0.5235 -0.3232
15226TIP3    H167169   6.079   0.024  13.614 -1.3170 -1.3949  0.3672
15226TIP3    H267170   6.074   0.147  13.703 -1.8334 -1.1171 -0.0438
15227TIP3   OH267171   6.291   1.608   2.472 -0.0801  0.0056 -0.7451
15227TIP3    H167172   6.328   1.542   2.530  1.4641  1.6516  0.1905
15227TIP3    H267173   6.297   1.690   2.521 -0.8119  1.0612 -2.3527
15228TIP3   OH267174   1.506   3.311  12.849 -0.6352 -0.4144  0.1202
15228TIP3    H167175   1.517   3.364  12.770  1.3574 -0.7530  0.1490
15228TIP3    H267176   1.515   3.221  12.818 -1.7618 -0.6596  0.4516
15229TIP3   OH267177   6.068   4.832   1.003  0.0628  0.1121  0.4382
15229TIP3    H167178   6.158   4.840   0.971 -0.1337  1.9664  0.2478
15229TIP3    H267179   6.073   4.768   1.074  1.5058  0.0419  0.2876
15230TIP3   OH267180   4.260   3.951   4.698 -0.1141 -0.0379  0.6856
15230TIP3    H167181   4.240   3.941   4.605 -0.0846  0.7093  0.5973
15230TIP3    H267182   4.176   3.940   4.743 -0.0375 -0.9470  0.6140
15231TIP3   OH267183   6.291   6.777   4.536 -0.5108 -0.1253 -0.4196
15231TIP3    H167184   6.346   6.784   4.458  0.8379 -0.6447  0.4740
15231TIP3    H267185   6.206   6.811   4.508  0.2686  0.7422 -1.8068
15232TIP3   OH267186   3.089   2.100   1.928  0.0918  0.1074  0.0239
15232TIP3    H167187   3.161   2.097   1.991 -0.1320 -0.1184  0.2656
15232TIP3    H267188   3.133   2.099   1.842  0.4026  0.5767  0.1716
15233TIP3   OH267189   4.547   2.974   1.868 -0.3001 -0.4893  0.4310
15233TIP3    H167190   4.546   2.878   1.871 -1.1573 -0.5212 -0.5297
15233TIP3    H267191   4.523   3.001   1.956  0.5507 -1.1488  0.8765
15234TIP3   OH267192   0.104   5.762  16.828  0.0282  0.8005 -0.5984
15234TIP3    H167193   0.155   5.697  16.877  0.6967  0.1040 -2.1934
15234TIP3    H267194   0.080   5.827  16.894 -1.0656 -1.2854  1.1310
15235TIP3   OH267195   5.432   1.538  11.557 -0.4012 -0.3863  0.0497
15235TIP3    H167196   5.347   1.508  11.588 -0.0248  0.0515  1.5738
15235TIP3    H267197   5.482   1.457  11.543 -0.7126 -0.6074  0.2028
15236TIP3   OH267198   2.552   5.897   3.221  0.2382 -0.0202  0.1331
15236TIP3    H167199   2.584   5.867   3.306 -0.4796  1.7350  1.0465
15236TIP3    H267200   2.539   5.992   3.232  1.0606  0.4054 -2.2167
15237TIP3   OH267201   6.234   5.570   2.902 -0.1737  0.6883  0.6829
15237TIP3    H167202   6.210   5.557   2.811 -0.6919  0.0044  0.9095
15237TIP3    H267203   6.220   5.663   2.918 -0.7107  0.6847  0.2398
15238TIP3   OH267204   2.486   5.076   0.210 -0.2154 -0.4298  0.0301
15238TIP3    H167205   2.421   5.006   0.202 -0.7669  0.1343 -0.4781
15238TIP3    H267206   2.535   5.073   0.128 -1.3526  0.8684 -0.7246
15239TIP3   OH267207   3.132   4.176   5.661 -0.1221 -0.1090 -0.2528
15239TIP3    H167208   3.134   4.209   5.750 -1.6946 -1.0607  0.1531
15239TIP3    H267209   3.086   4.244   5.611 -0.4871 -0.2102 -0.0562
15240TIP3   OH267210   2.963   6.474   5.723 -0.0848 -0.1299  0.2447
15240TIP3    H167211   2.946   6.472   5.629 -1.1617  1.8365  0.3667
15240TIP3    H267212   3.020   6.399   5.739  0.6664 -0.0894 -2.0854
15241TIP3   OH267213   4.785   6.139  11.319  0.0841  0.6566  0.5882
15241TIP3    H167214   4.831   6.168  11.241 -0.0658 -1.0451 -0.1699
15241TIP3    H267215   4.820   6.192  11.390  1.8298  0.6973 -0.2928
15242TIP3   OH267216   5.920   3.693  15.980  0.1771  0.0267 -1.0339
15242TIP3    H167217   5.975   3.705  15.903 -0.3197 -0.6290 -1.4956
15242TIP3    H267218   5.846   3.641  15.949 -0.3032  0.2296 -0.2375
15243TIP3   OH267219   4.462   3.096  16.236  0.1240 -0.3140  0.2587
15243TIP3    H167220   4.521   3.027  16.267 -1.5902 -2.3832 -0.8700
15243TIP3    H267221   4.398   3.106  16.306 -0.9662 -1.5909 -0.4998
15244TIP3   OH267222   2.265   3.258  11.636  0.0401 -0.3150 -0.4528
15244TIP3    H167223   2.180   3.299  11.646 -0.2860 -0.9687 -0.5380
15244TIP3    H267224   2.307   3.307  11.565 -0.1907  0.1188 -0.2887
15245TIP3   OH267225   2.791   4.438   5.252 -0.1029 -0.3825  0.5588
15245TIP3    H167226   2.702   4.412   5.274 -0.2780 -2.0545 -1.8858
15245TIP3    H267227   2.782   4.489   5.171  1.0476  0.4234  0.9206
15246TIP3   OH267228   3.174   4.666   1.481 -0.7435  0.0163  0.4072
15246TIP3    H167229   3.084   4.689   1.459 -1.0595 -3.2213 -2.1029
15246TIP3    H267230   3.227   4.714   1.417 -0.7217  1.2423  1.3328
15247TIP3   OH267231   0.277   3.201  12.536 -0.1900  0.3565 -0.2358
15247TIP3    H167232   0.281   3.158  12.451  1.0233 -0.9542  0.4715
15247TIP3    H267233   0.208   3.267  12.526  0.0148  0.2900 -2.2545
15248TIP3   OH267234   6.186   0.668   2.400 -0.5911  0.0365 -0.6862
15248TIP3    H167235   6.114   0.641   2.457  0.0959 -0.4268 -0.0239
15248TIP3    H267236   6.217   0.751   2.438  1.1100 -1.2382  0.7675
15249TIP3   OH267237   4.617   3.145  12.281  0.3286  0.2561 -0.3086
15249TIP3    H167238   4.621   3.217  12.344  0.1426 -0.9295  1.0751
15249TIP3    H267239   4.565   3.180  12.208 -0.2956  1.3143  0.6276
15250TIP3   OH267240   1.046   5.579   4.443 -0.6273  0.1245  0.0592
15250TIP3    H167241   0.956   5.560   4.469  0.0473  1.9288  4.0715
15250TIP3    H267242   1.059   5.671   4.467  1.5569  0.6393 -2.7669
15251TIP3   OH267243   2.340   4.465   5.506  0.9187 -0.5288  0.2250
15251TIP3    H167244   2.278   4.497   5.571  0.5359 -1.1361  0.1568
15251TIP3    H267245   2.396   4.404   5.554  1.2502 -0.2406  0.2078
15252TIP3   OH267246   1.376   3.854  12.442  0.2328 -0.0513  0.3375
15252TIP3    H167247   1.333   3.869  12.358 -0.8667 -2.2638  0.4601
15252TIP3    H267248   1.359   3.933  12.492 -1.7407  0.0644 -0.4627
15253TIP3   OH267249   3.656   0.900  11.372 -0.5910  0.0714  0.1051
15253TIP3    H167250   3.700   0.917  11.289 -0.0818  0.0447  0.3634
15253TIP3    H267251   3.673   0.807  11.389  0.9818  0.5203  1.1941
15254TIP3   OH267252   5.008   0.741   0.554  0.2791  0.3633 -0.1896
15254TIP3    H167253   4.943   0.696   0.500  0.4055 -0.6088  0.4391
15254TIP3    H267254   4.971   0.828   0.570 -0.5485  0.0576 -0.4075
15255TIP3   OH267255   6.523   4.465   1.591  0.3120  0.9514 -0.4571
15255TIP3    H167256   6.587   4.512   1.645 -0.0506  1.9607 -0.8953
15255TIP3    H267257   6.520   4.514   1.509 -0.6386  0.6059 -0.6366
15256TIP3   OH267258   1.403   2.279   2.363 -0.0137  0.2550 -0.2777
15256TIP3    H167259   1.437   2.366   2.383 -2.1814  1.6201 -2.2244
15256TIP3    H267260   1.308   2.287   2.375 -0.2907 -1.6753 -1.0174
15257TIP3   OH267261   2.905   2.118   3.267  0.3057 -0.0439 -0.2532
15257TIP3    H167262   2.905   2.204   3.224 -0.3985  0.9147  1.5763
15257TIP3    H267263   2.996   2.088   3.261  1.0719  1.8757  1.0269
15258TIP3   OH267264   4.754   5.113   2.818  0.1887 -0.4626  0.4787
15258TIP3    H167265   4.786   5.166   2.891 -0.6837 -1.4376  1.5745
15258TIP3    H267266   4.834   5.080   2.777  0.6451 -1.4395  2.1283
15259TIP3   OH267267   2.174   3.537  11.578  0.0449 -0.7659  0.5801
15259TIP3    H167268   2.211   3.597  11.513  0.1224  0.3140  1.6101
15259TIP3    H267269   2.206   3.570  11.662  1.4566 -3.2239  1.0546
15260TIP3   OH267270   3.207   0.589  10.990 -0.1577 -0.2643 -0.1704
15260TIP3    H167271   3.179   0.498  10.991  0.9251 -0.6836 -3.0438
15260TIP3    H267272   3.126   0.639  11.004 -0.9654 -1.6220  0.1163
15261TIP3   OH267273   3.693   0.064   0.311 -0.3796 -0.2379  0.6391
15261TIP3    H167274   3.782   0.074   0.345 -0.1769  0.1170  0.0087
15261TIP3    H267275   3.646   0.020   0.382  0.3859 -0.7662  0.8344
15262TIP3   OH267276   5.928   2.906  14.041 -0.4061 -0.0970  0.3503
15262TIP3    H167277   5.978   2.943  13.968 -0.7258 -0.1457  0.1060
15262TIP3    H267278   5.866   2.845  14.000 -0.7638  0.0665  0.6381
15263TIP3   OH267279   5.156   5.480   5.508 -0.0773  0.2376  0.2228
15263TIP3    H167280   5.225   5.413   5.513 -1.8680 -1.5958  1.6770
15263TIP3    H267281   5.125   5.476   5.418  0.8110  0.1290 -0.0852
15264TIP3   OH267282   0.282   0.305   5.343  0.2567  0.3468  0.1133
15264TIP3    H167283   0.352   0.304   5.277  0.2483  0.6981  0.0976
15264TIP3    H267284   0.273   0.214   5.369 -0.2582  0.0909 -0.9243
15265TIP3   OH267285   3.831   4.487   0.548  0.2017  0.5848  0.1503
15265TIP3    H167286   3.926   4.481   0.535 -0.1155 -1.9238 -1.2916
15265TIP3    H267287   3.799   4.536   0.472  0.0712 -0.8703 -0.7545
15266TIP3   OH267288   0.747   6.143   3.428  0.3565 -0.0903  0.2116
15266TIP3    H167289   0.770   6.131   3.336  1.2699  1.0218  0.2776
15266TIP3    H267290   0.756   6.056   3.466 -0.0919 -0.5743 -0.7603
15267TIP3   OH267291   0.629   1.343   0.425  0.1432  0.1954  0.2853
15267TIP3    H167292   0.687   1.270   0.448 -0.4737  0.2612  2.0915
15267TIP3    H267293   0.594   1.320   0.339  0.7073 -1.1559  0.4136
15268TIP3   OH267294   5.765   5.618   0.988 -0.1566  0.0046  0.0641
15268TIP3    H167295   5.842   5.594   0.937 -1.0640 -0.2469 -1.2094
15268TIP3    H267296   5.789   5.598   1.079  0.6586 -1.6956 -0.5064
15269TIP3   OH267297   6.548   6.116  11.390  0.7577  0.1152 -0.7633
15269TIP3    H167298   6.554   6.093  11.482  1.1932 -1.6327 -1.2119
15269TIP3    H267299   6.518   6.207  11.390  1.4638  0.3706  1.0994
15270TIP3   OH267300   1.496   0.010   0.204 -0.5459 -0.2829  0.2609
15270TIP3    H167301   1.523   0.086   0.254 -0.6214 -0.7007  0.9396
15270TIP3    H267302   1.540  -0.064   0.246 -1.0065 -0.6959  0.0217
15271TIP3   OH267303   5.870   5.596   1.321 -0.1702  0.0079  0.0556
15271TIP3    H167304   5.905   5.685   1.322 -0.0024 -0.0167 -1.8053
15271TIP3    H267305   5.786   5.602   1.366  0.9156  0.6324  2.0358
15272TIP3   OH267306   2.507   1.819   0.307 -0.0805  0.2003  0.0589
15272TIP3    H167307   2.504   1.887   0.240  1.9166  0.5556  0.2916
15272TIP3    H267308   2.600   1.812   0.330 -0.5090 -1.2035  1.4701
15273TIP3   OH267309   5.099   2.170  17.071  0.6088  0.2943 -0.3659
15273TIP3    H167310   5.167   2.198  17.008 -0.9968  0.0108 -2.2767
15273TIP3    H267311   5.061   2.252  17.102  1.6170  0.4474  0.4918
15274TIP3   OH267312   1.942   4.913   5.257 -0.1223  0.4610  0.7714
15274TIP3    H167313   1.981   4.983   5.205  0.1307 -0.7731 -0.7338
15274TIP3    H267314   2.016   4.872   5.301 -0.1515  0.5024  0.8588
15275TIP3   OH267315   3.537   0.728  12.450 -0.0246  0.0990 -0.7339
15275TIP3    H167316   3.631   0.721  12.462 -0.0792  1.8219  0.9127
15275TIP3    H267317   3.526   0.800  12.387 -0.2382 -0.1038 -0.9287
15276TIP3   OH267318   4.451   1.113  16.856  0.3419 -0.5625  0.2734
15276TIP3    H167319   4.398   1.060  16.915  0.7936 -1.3592 -0.0245
15276TIP3    H267320   4.389   1.146  16.791  0.2221 -1.5559 -0.1233
15277TIP3   OH267321   2.823   0.153   4.759 -0.4280  0.6872  0.1655
15277TIP3    H167322   2.899   0.118   4.714  0.0719 -0.1352  1.5943
15277TIP3    H267323   2.748   0.120   4.710  0.1090  0.2919 -0.3911
15278TIP3   OH267324   4.571   4.125   0.934 -0.7160  0.3165 -0.7085
15278TIP3    H167325   4.633   4.127   0.861  1.3641  0.9101  1.0105
15278TIP3    H267326   4.596   4.046   0.983  0.0651  1.6667  1.1260
15279TIP3   OH267327   5.369   6.129   0.746  0.2123  0.2397 -0.1545
15279TIP3    H167328   5.299   6.188   0.775  0.6678  1.5789 -1.7212
15279TIP3    H267329   5.405   6.171   0.668  2.0502 -0.9869  0.0072
15280TIP3   OH267330   4.198   0.047   3.719  0.1623 -0.2521  0.2307
15280TIP3    H167331   4.157   0.109   3.780 -1.6292 -2.0960  0.9963
15280TIP3    H267332   4.292   0.062   3.728 -0.2216  1.7653  1.0033
15281TIP3   OH267333   4.704   2.652  12.783 -0.4558  0.6185 -0.0516
15281TIP3    H167334   4.671   2.742  12.776  0.1913  0.6748 -3.5467
15281TIP3    H267335   4.676   2.610  12.702  0.4591 -1.9445  0.9065
15282TIP3   OH267336   3.955   3.131  11.471 -0.9308 -0.3782  0.6377
15282TIP3    H167337   4.017   3.203  11.477 -1.7661  0.6275 -2.0517
15282TIP3    H267338   4.006   3.053  11.494  0.6209  0.7650  1.1485
15283TIP3   OH267339   2.133   1.121   3.138  0.2246  0.0038 -0.1977
15283TIP3    H167340   2.180   1.137   3.220  1.9046  0.7527 -1.2990
15283TIP3    H267341   2.184   1.053   3.093  1.5959  2.4293 -2.4337
15284TIP3   OH267342   0.665   3.186   4.813  0.3979 -0.1220  0.2097
15284TIP3    H167343   0.712   3.201   4.895  0.0162  0.7836  0.2748
15284TIP3    H267344   0.708   3.111   4.773  0.3264 -0.8226  1.4405
15285TIP3   OH267345   5.312   5.510  13.378  0.1587  0.1573 -0.7733
15285TIP3    H167346   5.216   5.510  13.381  0.1399  1.5500 -0.8852
15285TIP3    H267347   5.335   5.432  13.327 -0.9100 -0.2666 -0.6079
15286TIP3   OH267348   1.489   0.886   2.578 -0.2037 -0.5451  0.5942
15286TIP3    H167349   1.415   0.939   2.548 -2.1431 -2.2338  2.1755
15286TIP3    H267350   1.562   0.947   2.584 -1.6629  1.3446 -0.2745
15287TIP3   OH267351   1.798   0.853  12.655 -0.0153 -0.5081 -0.1130
15287TIP3    H167352   1.853   0.808  12.591 -1.0714  0.1958 -1.5335
15287TIP3    H267353   1.754   0.921  12.605 -1.8482 -0.7768  1.0990
15288TIP3   OH267354   4.191   4.054  13.001  0.4056 -0.2566  0.6528
15288TIP3    H167355   4.148   4.128  13.043 -0.0736  0.1435 -0.5298
15288TIP3    H267356   4.120   4.000  12.968  0.7957  0.3085 -1.1416
15289TIP3   OH267357   0.475   5.600  12.854 -0.1846 -0.2105  0.2816
15289TIP3    H167358   0.389   5.565  12.879  0.3869 -1.6114  0.3013
15289TIP3    H267359   0.507   5.540  12.787  0.1955  1.0825 -0.7215
15290TIP3   OH267360   6.286   1.277   2.024  0.0274  0.4294 -0.3795
15290TIP3    H167361   6.293   1.185   2.048 -0.9378  0.5503  0.4050
15290TIP3    H267362   6.217   1.311   2.081  2.4326  2.3284  1.5664
15291TIP3   OH267363   5.079   6.265   1.269 -0.4886  0.1874  0.0159
15291TIP3    H167364   5.169   6.256   1.238 -0.4856  0.5887 -0.0863
15291TIP3    H267365   5.041   6.333   1.214 -1.2745 -0.9604 -0.8846
15292TIP3   OH267366   1.921   3.459  11.237  0.2868 -0.4968  0.4478
15292TIP3    H167367   1.985   3.413  11.291  1.2729 -0.9011 -1.0216
15292TIP3    H267368   1.867   3.390  11.199  0.2157 -0.2802  0.1539
15293TIP3   OH267369   0.483   6.705   0.643 -0.4962 -0.4140 -0.0756
15293TIP3    H167370   0.395   6.744   0.645 -0.2729  0.1256  3.0742
15293TIP3    H267371   0.468   6.612   0.661 -0.4204 -0.2935  0.6212
15294TIP3   OH267372   1.822   4.983  16.231  0.4572  0.1035  0.7582
15294TIP3    H167373   1.869   5.057  16.191 -0.6006  0.6720  0.5564
15294TIP3    H267374   1.853   4.906  16.184  1.2531  0.4673  0.6841
15295TIP3   OH267375   4.831   0.412   4.464 -0.0308 -0.3180 -0.1893
15295TIP3    H167376   4.921   0.379   4.456  0.1223  0.3003 -1.0989
15295TIP3    H267377   4.804   0.432   4.375 -2.0311 -2.8825 -0.2026
15296TIP3   OH267378   0.883   0.804  13.905  0.5626  0.2069  0.4163
15296TIP3    H167379   0.812   0.771  13.960  0.1017 -1.2967 -1.0575
15296TIP3    H267380   0.945   0.843  13.967 -0.8269  0.2176  1.8344
15297TIP3   OH267381   6.326   2.621   1.059  0.1396  0.0924 -0.6023
15297TIP3    H167382   6.369   2.628   1.144  0.2143 -0.7996 -0.5610
15297TIP3    H267383   6.246   2.673   1.069  0.4868  0.5607 -0.2127
15298TIP3   OH267384   5.694   3.855   0.134  0.5696 -0.2148 -0.0205
15298TIP3    H167385   5.669   3.763   0.145  0.9335 -0.3923 -0.5996
15298TIP3    H267386   5.787   3.851   0.112  0.4468  0.2501 -0.6481
15299TIP3   OH267387   3.249   6.420   1.514  0.2850  0.1079 -0.3343
15299TIP3    H167388   3.216   6.422   1.425  0.2624  1.4260 -0.3031
15299TIP3    H267389   3.255   6.327   1.535  0.9876 -0.2375 -1.9635
15300TIP3   OH267390   1.431   0.407  12.145 -0.8156  0.4384  0.1495
15300TIP3    H167391   1.356   0.394  12.204 -1.1042 -1.0861 -0.5224
15300TIP3    H267392   1.425   0.333  12.083  0.6895  0.8512 -0.4913
15301TIP3   OH267393   5.386   0.920   4.645  0.2402  0.4637  0.4096
15301TIP3    H167394   5.459   0.859   4.634  1.2244  1.4257  1.4207
15301TIP3    H267395   5.314   0.880   4.598  0.5331 -2.0702  1.9855
15302TIP3   OH267396   4.251   0.047   3.248 -0.0182 -0.0441 -0.1525
15302TIP3    H167397   4.193   0.077   3.178 -2.3961 -0.7297  1.4525
15302TIP3    H267398   4.251  -0.048   3.241  0.9627 -0.0478 -0.1741
15303TIP3   OH267399   6.355   2.292   4.058  0.3896 -0.2310 -0.0597
15303TIP3    H167400   6.371   2.367   4.000 -2.4514  1.6207  1.3956
15303TIP3    H267401   6.292   2.238   4.011  0.3439 -0.2800  0.0569
15304TIP3   OH267402   6.395   4.534  10.576  0.4930  0.0766  0.2579
15304TIP3    H167403   6.315   4.542  10.524  1.3775 -0.4201 -1.2122
15304TIP3    H267404   6.457   4.595  10.535  1.7281 -1.5141 -0.2927
15305TIP3   OH267405   0.866   1.650  13.566 -0.0077  0.0490  0.0164
15305TIP3    H167406   0.896   1.740  13.573 -0.1083  0.0750  0.1033
15305TIP3    H267407   0.856   1.635  13.472  0.2681  0.0445 -0.0130
15306TIP3   OH267408   6.682   2.221  13.934 -0.4951 -0.2553  0.1350
15306TIP3    H167409   6.745   2.191  14.000 -0.3728  1.1685  0.6891
15306TIP3    H267410   6.709   2.311  13.915 -0.7197 -0.5598 -1.6498
15307TIP3   OH267411   1.517   4.266   5.785 -0.3151 -0.1565 -0.2819
15307TIP3    H167412   1.525   4.259   5.689 -0.1343 -0.0616 -0.2746
15307TIP3    H267413   1.589   4.212   5.818 -2.5302 -3.1204 -0.1489
15308TIP3   OH267414   5.810   6.118   4.224 -0.1745 -0.3589  0.3095
15308TIP3    H167415   5.846   6.033   4.251 -0.8863 -0.7542  0.0269
15308TIP3    H267416   5.735   6.096   4.169 -0.8013  0.4592  0.8199
15309TIP3   OH267417   6.415   4.349  13.457  0.4956 -0.1025  0.0631
15309TIP3    H167418   6.410   4.438  13.492 -0.3697  0.0774 -0.5121
15309TIP3    H267419   6.325   4.319  13.454  0.8985 -1.5472  1.6189
15310TIP3   OH267420   5.859   5.978  16.384 -0.4872  0.2575  0.0851
15310TIP3    H167421   5.829   5.898  16.427  1.0186 -1.2571 -1.6086
15310TIP3    H267422   5.854   5.959  16.291  1.4785  1.5185 -0.3139
15311TIP3   OH267423   0.000   0.292   2.851 -0.9566  0.4745 -0.2172
15311TIP3    H167424  -0.008   0.248   2.935 -1.5484  0.2371 -0.3978
15311TIP3    H267425   0.070   0.356   2.864  0.1885 -0.7844 -0.0720
15312TIP3   OH267426   2.552   0.000   0.496 -0.1524 -0.5611  0.4853
15312TIP3    H167427   2.648  -0.001   0.493 -0.0760  0.1785  2.1748
15312TIP3    H267428   2.528   0.071   0.436  0.4157 -0.0178  0.8840
15313TIP3   OH267429   1.977   0.761  14.481  0.0750 -0.1823  0.4437
15313TIP3    H167430   1.915   0.695  14.452 -1.3717  1.0092  0.7834
15313TIP3    H267431   1.988   0.745  14.574  0.9267 -0.9196  0.2176
15314TIP3   OH267432   0.204   1.613  12.865 -0.9960  0.0931  0.0343
15314TIP3    H167433   0.141   1.630  12.935 -1.1967 -2.3774  0.4726
15314TIP3    H267434   0.153   1.618  12.785 -0.9364  2.0489  0.0847
15315TIP3   OH267435   2.198   3.093   2.103 -0.4477 -0.0505  0.2991
15315TIP3    H167436   2.270   3.058   2.156 -1.3900 -0.6645  1.1837
15315TIP3    H267437   2.239   3.162   2.050  1.0345 -1.1715 -0.0658
15316TIP3   OH267438   6.231   0.457  16.576 -0.1702 -0.3860 -0.2653
15316TIP3    H167439   6.177   0.378  16.570 -0.9235  0.2325 -1.7121
15316TIP3    H267440   6.260   0.473  16.486  0.7722  0.4489  0.1755
15317TIP3   OH267441   2.294   6.811   1.171  0.1233  0.1651  0.3185
15317TIP3    H167442   2.268   6.836   1.082 -0.7688  2.3695  1.1684
15317TIP3    H267443   2.356   6.879   1.198 -1.7537  1.1280  2.4044
15318TIP3   OH267444   2.194   3.656  17.144  0.4636 -0.0779 -0.2385
15318TIP3    H167445   2.125   3.636  17.079  0.7928 -0.2552 -0.5352
15318TIP3    H267446   2.257   3.584  17.134  0.7276  0.1271 -0.0184
15319TIP3   OH267447   2.952   4.848   1.713  0.1251 -0.1455 -0.1148
15319TIP3    H167448   3.021   4.880   1.655 -0.2224 -3.0776 -2.2855
15319TIP3    H267449   2.904   4.784   1.660  0.5957 -3.9670  3.7575
15320TIP3   OH267450   3.416   5.930  13.428 -0.2316 -0.0035  0.5408
15320TIP3    H167451   3.356   5.967  13.364 -0.0162 -0.2120  0.2131
15320TIP3    H267452   3.371   5.939  13.512  0.6581  2.8262  0.7555
15321TIP3   OH267453   3.738   2.289   1.174  0.8465 -0.5919  0.5057
15321TIP3    H167454   3.820   2.244   1.197 -0.1961 -2.5781  0.3872
15321TIP3    H267455   3.749   2.314   1.082  1.6435 -0.0996  0.7278
15322TIP3   OH267456   2.504   3.752   0.383 -0.3750  0.0639 -0.1470
15322TIP3    H167457   2.440   3.705   0.330  0.0431  1.4103 -1.8836
15322TIP3    H267458   2.589   3.729   0.344 -0.0383  0.7909  0.1483
15323TIP3   OH267459   0.342   1.317  11.780  0.2270  0.3179 -0.5795
15323TIP3    H167460   0.283   1.385  11.746  0.2602 -0.1223 -1.5337
15323TIP3    H267461   0.419   1.322  11.723 -0.2351 -1.2639 -1.3492
15324TIP3   OH267462   4.456   3.739   2.609  0.5365  0.1210  0.4010
15324TIP3    H167463   4.404   3.788   2.545 -1.2451  0.9505  2.4278
15324TIP3    H267464   4.546   3.751   2.581 -0.2300  0.0715 -2.2194
15325TIP3   OH267465   5.882   3.424  12.471  0.1320 -0.1901 -0.7745
15325TIP3    H167466   5.919   3.497  12.519  0.1649 -0.3399 -0.5702
15325TIP3    H267467   5.842   3.369  12.539  1.8694 -1.3998 -0.7178
15326TIP3   OH267468   1.968   1.329   4.352  0.0245 -0.0685 -0.2971
15326TIP3    H167469   2.020   1.366   4.279 -1.3306 -1.1748 -1.8494
15326TIP3    H267470   1.966   1.400   4.416  1.0097  1.0554 -1.4439
15327TIP3   OH267471   1.792   3.762   5.937  0.1259  0.3648  0.2054
15327TIP3    H167472   1.839   3.778   5.855  1.3744 -1.2952  0.5537
15327TIP3    H267473   1.840   3.812   6.003 -0.4945  1.1895  0.0329
15328TIP3   OH267474   6.745   2.455  11.849 -0.0684 -0.2725 -0.0418
15328TIP3    H167475   6.787   2.444  11.935 -0.0597  1.1350  0.1555
15328TIP3    H267476   6.819   2.463  11.788 -0.0651 -0.4986 -0.0660
15329TIP3   OH267477   0.014   6.098   0.882 -0.0255 -0.5199  0.3421
15329TIP3    H167478  -0.005   6.151   0.959 -1.0449 -0.7274  0.2439
15329TIP3    H267479  -0.072   6.069   0.851  0.2326  0.8838 -1.8157
15330TIP3   OH267480   3.765   1.651   4.266 -0.2710  0.2879 -0.0226
15330TIP3    H167481   3.735   1.597   4.339  1.5438 -2.9923 -1.6128
15330TIP3    H267482   3.688   1.662   4.211 -0.6834 -0.6183  0.3629
15331TIP3   OH267483   0.371   3.105   0.435 -0.9289 -0.9129 -0.4495
15331TIP3    H167484   0.305   3.071   0.375 -1.1536 -0.3870 -0.4989
15331TIP3    H267485   0.450   3.114   0.382 -1.2753  0.0663 -0.7885
15332TIP3   OH267486   2.505   5.059  15.399 -0.0732  0.7824  0.3872
15332TIP3    H167487   2.519   5.073  15.492 -0.0997 -1.3308  0.7512
15332TIP3    H267488   2.417   5.092  15.381  0.1434  1.6823  1.0008
15333TIP3   OH267489   5.452   6.394  12.928 -0.4991  0.1767  0.2173
15333TIP3    H167490   5.473   6.485  12.947  0.6538  0.3428 -1.7548
15333TIP3    H267491   5.451   6.351  13.014  0.0921  1.8051  1.0465
15334TIP3   OH267492   1.999   5.394  16.297 -0.4214  0.0017 -0.4862
15334TIP3    H167493   1.985   5.318  16.353  3.4164  0.2489  0.9796
15334TIP3    H267494   1.935   5.458  16.327  0.8983 -0.2329  3.0559
15335TIP3   OH267495   4.118   0.033  16.262 -0.3340  0.7158  0.6635
15335TIP3    H167496   4.187   0.032  16.196 -1.1653 -2.3198 -0.2101
15335TIP3    H267497   4.145  -0.033  16.326 -1.8507  0.3237  0.9110
15336TIP3   OH267498   4.436   6.810  13.083 -0.0628 -0.2783 -0.2332
15336TIP3    H167499   4.462   6.827  12.992  1.0147 -1.2418 -0.1172
15336TIP3    H267500   4.350   6.768  13.076  0.6247 -1.6233 -0.8991
15337TIP3   OH267501   2.837   5.852   0.214 -0.4065 -0.3706  0.6412
15337TIP3    H167502   2.849   5.795   0.290 -1.2066 -0.6151  0.5812
15337TIP3    H267503   2.832   5.940   0.250 -1.7036 -0.5715  0.9462
15338TIP3   OH267504   0.726   5.305   5.125 -0.2935  0.2736  0.4607
15338TIP3    H167505   0.661   5.241   5.157 -2.0487  2.1972  0.8373
15338TIP3    H267506   0.733   5.286   5.031 -2.0236  0.5580  0.2576
15339TIP3   OH267507   5.980   3.490   3.433 -0.4846 -0.0804 -0.1104
15339TIP3    H167508   5.915   3.421   3.437  1.7174 -2.1557  1.4567
15339TIP3    H267509   6.064   3.444   3.426  0.9971  2.4461  0.2352
15340TIP3   OH267510   2.020   5.371  10.823  0.2355  0.0407 -0.1589
15340TIP3    H167511   2.059   5.317  10.754  1.1070  0.1802  0.2237
15340TIP3    H267512   1.944   5.320  10.853  1.7652 -1.6039  1.0743
15341TIP3   OH267513   1.218   2.310   1.244  0.5694 -0.6520 -0.4390
15341TIP3    H167514   1.160   2.262   1.303 -0.6928  0.9727 -0.3268
15341TIP3    H267515   1.241   2.246   1.176 -0.6381 -1.5658 -0.0038
15342TIP3   OH267516   2.956   0.442   0.097  0.6274 -0.1464  0.6038
15342TIP3    H167517   2.940   0.402   0.011 -0.8890 -0.8111  1.1678
15342TIP3    H267518   2.905   0.523   0.096  0.4374 -0.2593  0.9519
15343TIP3   OH267519   1.053   5.452   5.497  0.0464  0.4586  0.2374
15343TIP3    H167520   0.963   5.479   5.515 -0.8144 -0.4661 -2.4783
15343TIP3    H267521   1.075   5.395   5.571 -3.3015 -3.1138 -1.3279
15344TIP3   OH267522   5.111   6.492  16.742 -0.4111 -0.1867  0.2995
15344TIP3    H167523   5.175   6.552  16.781 -2.4348  2.4740 -0.3122
15344TIP3    H267524   5.147   6.472  16.656  1.8167 -2.4168  1.6878
15345TIP3   OH267525   1.730   3.908   5.020  0.2468  0.4333  0.1719
15345TIP3    H167526   1.770   3.827   4.989  0.2567  0.3089  0.5028
15345TIP3    H267527   1.638   3.902   4.994  0.3423  0.5078 -0.1786
15346TIP3   OH267528   4.282   3.192   2.889 -0.2200  0.3216  0.1809
15346TIP3    H167529   4.284   3.099   2.866  1.6241  0.7565 -1.6143
15346TIP3    H267530   4.370   3.210   2.922 -1.2574  0.9351  2.7319
15347TIP3   OH267531   0.018   4.567  12.364  0.0533 -0.2118 -0.2207
15347TIP3    H167532   0.093   4.551  12.421  1.7191  0.6166 -2.1140
15347TIP3    H267533  -0.052   4.594  12.423  1.6548  0.3410  1.4580
15348TIP3   OH267534   2.921   6.693   1.277 -0.3843 -0.3436 -0.0575
15348TIP3    H167535   2.952   6.649   1.198 -1.7959 -1.0425 -0.2335
15348TIP3    H267536   2.987   6.760   1.294 -0.2315  0.0500 -2.0364
15349TIP3   OH267537   1.677   1.627  14.369 -0.1086 -0.2547 -0.2708
15349TIP3    H167538   1.602   1.571  14.349 -0.5127 -0.2773  1.3205
15349TIP3    H267539   1.691   1.617  14.463  1.1440  0.6800 -0.3446
15350TIP3   OH267540   6.077   6.566   4.230 -0.1993  0.0079  0.5018
15350TIP3    H167541   6.155   6.555   4.285 -0.9464 -0.7584  1.4438
15350TIP3    H267542   6.046   6.477   4.215  0.5489  0.1386 -2.0348
15351TIP3   OH267543   0.623   4.735   2.400  0.2726  0.0760 -0.1474
15351TIP3    H167544   0.718   4.735   2.405  0.2128 -0.1879  1.3782
15351TIP3    H267545   0.602   4.679   2.325  1.3248  0.7998 -0.9909
15352TIP3   OH267546   1.479   6.709  11.969 -0.5019  0.9088  0.1783
15352TIP3    H167547   1.510   6.740  12.054 -0.6308  1.4498  0.0268
15352TIP3    H267548   1.529   6.759  11.905  0.6256 -0.5071 -0.0796
15353TIP3   OH267549   5.191   6.490   2.576  0.1523  0.7476  0.0268
15353TIP3    H167550   5.101   6.512   2.555 -0.4286 -0.4982  1.2063
15353TIP3    H267551   5.204   6.523   2.665 -0.0764 -1.7277  1.0078
15354TIP3   OH267552   2.721   1.645   1.223  0.5825 -0.5458  0.7437
15354TIP3    H167553   2.695   1.558   1.255  2.1990 -0.9729  0.9335
15354TIP3    H267554   2.675   1.706   1.281  0.1112 -1.2814  1.1608
15355TIP3   OH267555   3.200   1.806  15.600  0.2922  0.0986  0.2601
15355TIP3    H167556   3.200   1.710  15.597 -0.8682  0.0299  1.9388
15355TIP3    H267557   3.290   1.830  15.578  0.6478 -1.3718  0.0116
15356TIP3   OH267558   4.881   4.678  14.980 -0.1083 -0.5202 -0.5542
15356TIP3    H167559   4.881   4.584  14.960  2.3666 -0.3840 -1.2463
15356TIP3    H267560   4.797   4.692  15.024 -1.9288 -2.4300 -3.2919
15357TIP3   OH267561   3.654   5.610  12.964 -0.0006 -0.3104  0.3933
15357TIP3    H167562   3.568   5.590  12.927 -0.7684  0.6467  1.6064
15357TIP3    H267563   3.712   5.620  12.888 -1.3659  0.8408 -0.5136
15358TIP3   OH267564   1.616   2.691   4.315  0.0034 -0.0640 -0.3578
15358TIP3    H167565   1.633   2.602   4.345 -0.7097 -0.2641 -0.5367
15358TIP3    H267566   1.695   2.740   4.338 -0.9744  0.0900  2.9024
15359TIP3   OH267567   2.914   4.486  15.327  0.5969  0.1565 -0.2283
15359TIP3    H167568   2.925   4.438  15.410 -1.5560 -1.4525 -0.8210
15359TIP3    H267569   2.866   4.565  15.351 -0.8423 -0.7462 -0.0175
15360TIP3   OH267570   5.995   2.648   2.360  0.0550 -0.2263 -0.2806
15360TIP3    H167571   6.003   2.553   2.345  1.6721  0.2199 -2.5238
15360TIP3    H267572   6.086   2.678   2.368 -0.4450  1.1718  0.1738
15361TIP3   OH267573   5.980   3.208   2.242 -0.6089 -0.3022  0.0236
15361TIP3    H167574   5.953   3.212   2.150 -0.3221 -0.0898 -0.0525
15361TIP3    H267575   5.980   3.114   2.263 -0.4126 -0.3695 -0.2739
15362TIP3   OH267576   5.634   6.547  12.206 -0.1773  0.2200  0.5108
15362TIP3    H167577   5.550   6.593  12.204 -0.5535 -0.5108 -1.1737
15362TIP3    H267578   5.689   6.593  12.142  0.2706 -0.1133  0.6498
15363TIP3   OH267579   3.707   2.650  11.204  0.7504  0.0784 -0.1146
15363TIP3    H167580   3.715   2.663  11.299 -1.0786 -0.8244  0.1767
15363TIP3    H267581   3.684   2.737  11.171  1.4016  0.3999  0.2688
15364TIP3   OH267582   2.555   5.993   0.784  0.2403  0.2613 -0.7800
15364TIP3    H167583   2.566   6.087   0.796  0.6405  0.0719  0.3107
15364TIP3    H267584   2.463   5.977   0.803  0.2371  0.3829 -0.6945
15365TIP3   OH267585   4.635   3.697   0.393  0.6352  0.0475 -0.2708
15365TIP3    H167586   4.672   3.702   0.304  0.2052  1.1171 -0.3902
15365TIP3    H267587   4.614   3.604   0.404  0.1165 -0.0031 -1.5302
15366TIP3   OH267588   3.005   1.636  12.653 -0.4597 -0.6624 -0.3476
15366TIP3    H167589   3.032   1.565  12.711 -2.7360 -1.1219  0.2006
15366TIP3    H267590   3.019   1.602  12.565 -0.3234 -1.3087 -0.0780
15367TIP3   OH267591   0.747   0.244   0.388 -0.1598 -0.8466  0.6357
15367TIP3    H167592   0.839   0.246   0.359  0.5774 -0.0851  2.9448
15367TIP3    H267593   0.697   0.239   0.306  1.8709  0.5214 -0.7688
15368TIP3   OH267594   2.144   6.718  13.305 -0.4661  0.7590  0.0768
15368TIP3    H167595   2.070   6.710  13.244 -0.8276 -1.7280  0.7787
15368TIP3    H267596   2.103   6.735  13.390 -0.2760 -1.2815  0.5837
15369TIP3   OH267597   2.491   3.059  14.313  0.4678 -0.2793 -0.0467
15369TIP3    H167598   2.523   3.068  14.403  0.8357 -0.7619 -0.1271
15369TIP3    H267599   2.396   3.068  14.320  0.5104 -0.1674  0.3739
15370TIP3   OH267600   1.121   2.339  14.945 -0.5280 -0.0570 -0.2782
15370TIP3    H167601   1.044   2.299  14.907 -0.7420  0.0483  0.0444
15370TIP3    H267602   1.094   2.429  14.965 -0.0243  0.2843 -1.0842
15371TIP3   OH267603   1.432   0.992   6.239  0.1033 -0.5187  0.1157
15371TIP3    H167604   1.428   0.897   6.236 -1.5562 -0.4249 -1.5406
15371TIP3    H267605   1.341   1.020   6.255  0.2511  0.8247 -1.2513
15372TIP3   OH267606   4.733   0.154  13.537  0.0472  0.0151 -0.0346
15372TIP3    H167607   4.741   0.062  13.511 -0.1216 -0.7765  2.5863
15372TIP3    H267608   4.823   0.187  13.534  0.0152  0.0099 -1.7325
15373TIP3   OH267609   0.832   2.977   4.695 -0.7465 -0.4634 -0.4181
15373TIP3    H167610   0.891   3.046   4.666  2.2754 -1.9469  1.8037
15373TIP3    H267611   0.816   2.924   4.617  1.7603 -0.6065 -0.8824
15374TIP3   OH267612   3.380   2.636   0.350 -0.2381  0.6407 -0.6759
15374TIP3    H167613   3.305   2.634   0.409  0.3844  0.8193  0.1224
15374TIP3    H267614   3.369   2.716   0.299 -1.0569  0.2169 -1.1741
15375TIP3   OH267615   4.418   2.391   4.705  0.4499  0.5785  0.0241
15375TIP3    H167616   4.380   2.407   4.618  0.6880  1.7392  0.1315
15375TIP3    H267617   4.508   2.423   4.699  1.1510 -1.2869  0.0686
15376TIP3   OH267618   2.272   6.486  15.693 -0.8454 -0.6019  0.0604
15376TIP3    H167619   2.334   6.494  15.765 -1.0570 -2.5764  0.5200
15376TIP3    H267620   2.321   6.444  15.623 -1.4006 -1.3929  0.1260
15377TIP3   OH267621   2.039   4.322  11.377 -0.0399  0.4338 -0.4703
15377TIP3    H167622   1.983   4.317  11.454 -0.9175  1.0764 -1.0532
15377TIP3    H267623   2.085   4.238  11.375 -0.9002 -0.0560  0.0759
15378TIP3   OH267624   0.554   0.411  12.098  0.3130 -0.1183  0.2858
15378TIP3    H167625   0.527   0.332  12.144 -1.0331 -0.7816 -1.5846
15378TIP3    H267626   0.477   0.468  12.100  0.7316  0.4653  0.1707
15379TIP3   OH267627   5.742   3.597  15.069  0.6287  0.4481 -0.0583
15379TIP3    H167628   5.698   3.664  15.016  0.3796 -0.4219 -0.9810
15379TIP3    H267629   5.730   3.517  15.019  2.7480  0.0891 -0.0305
15380TIP3   OH267630   1.310   5.796  10.912 -0.2104 -0.0256  0.2029
15380TIP3    H167631   1.396   5.837  10.913  0.6099 -1.7005  0.6253
15380TIP3    H267632   1.251   5.863  10.878  0.8498  1.8853  2.0785
15381TIP3   OH267633   0.922   5.904  12.473 -0.0536  0.0001  0.7712
15381TIP3    H167634   0.946   5.814  12.493 -0.9201 -0.8105 -1.5774
15381TIP3    H267635   0.835   5.915  12.511  0.2427  0.0045  1.4562
15382TIP3   OH267636   1.435   3.426   5.109  0.1990  0.5489 -0.5839
15382TIP3    H167637   1.457   3.519   5.116 -0.5175  0.7198 -0.4969
15382TIP3    H267638   1.394   3.405   5.193  2.1517 -0.3587  0.1720
15383TIP3   OH267639   4.540   0.906  12.628 -0.0669  0.1771  0.2982
15383TIP3    H167640   4.482   0.906  12.703 -1.1029 -1.2391 -0.4799
15383TIP3    H267641   4.501   0.967  12.566  0.5917  1.0701  0.7617
15384TIP3   OH267642   6.474   6.497  12.638 -0.3893  0.0341 -0.9086
15384TIP3    H167643   6.517   6.553  12.573  1.7906  1.8429  1.9696
15384TIP3    H267644   6.420   6.557  12.689 -2.7150 -1.4978 -1.4993
15385TIP3   OH267645   2.649   0.572  12.544 -0.1637  0.4342  0.4654
15385TIP3    H167646   2.604   0.584  12.627  2.4077 -1.2096  2.1368
15385TIP3    H267647   2.727   0.627  12.550 -0.5850  1.2831 -1.3801
15386TIP3   OH267648   2.898   4.014   5.038  0.6971  0.1750 -0.0828
15386TIP3    H167649   2.937   4.040   4.955 -2.3094 -0.1568 -1.6586
15386TIP3    H267650   2.945   3.934   5.063  0.6507 -0.5614 -2.2478
15387TIP3   OH267651   1.258   3.634  14.010  1.2156  0.0372  0.0208
15387TIP3    H167652   1.189   3.641  13.944  1.7091  2.2540 -0.3009
15387TIP3    H267653   1.289   3.543  14.003 -1.9298 -1.1173  0.4754
15388TIP3   OH267654   0.167   4.905  14.997  0.4395 -0.2191 -0.0748
15388TIP3    H167655   0.236   4.847  14.966  1.5510  1.4822 -0.8822
15388TIP3    H267656   0.169   4.897  15.092  1.0232 -1.0075 -0.1564
15389TIP3   OH267657   3.437   4.859   2.380 -0.1556  0.6210  0.4599
15389TIP3    H167658   3.409   4.908   2.457  1.8475  2.6875 -0.0787
15389TIP3    H267659   3.412   4.914   2.306  0.6227  0.0541 -0.2333
15390TIP3   OH267660   2.484   6.245   0.183  0.9638 -0.2461 -0.6518
15390TIP3    H167661   2.432   6.278   0.257  2.3595 -0.6911  0.5532
15390TIP3    H267662   2.424   6.188   0.135  0.0244  0.0756  0.1261
15391TIP3   OH267663   3.316   3.635  13.706  0.2079  0.1779  0.7410
15391TIP3    H167664   3.275   3.693  13.770 -0.1606 -0.1648  0.8219
15391TIP3    H267665   3.394   3.602  13.750  0.1081  0.1645  0.9071
15392TIP3   OH267666   4.837   6.069   5.536 -0.2293  0.1336 -1.0437
15392TIP3    H167667   4.750   6.109   5.530 -0.0078  0.6256 -0.9911
15392TIP3    H267668   4.823   5.991   5.590 -0.6829  0.0798 -1.2287
15393TIP3   OH267669   0.801   3.660  16.236  0.4175  0.0472  0.4088
15393TIP3    H167670   0.774   3.570  16.222  0.6814 -0.1363  1.0689
15393TIP3    H267671   0.719   3.709  16.243  0.2783 -0.0160 -0.7346
15394TIP3   OH267672   3.401   6.276   1.929  0.4578  0.1040 -0.2022
15394TIP3    H167673   3.341   6.215   1.971 -0.3325  1.0685  0.0959
15394TIP3    H267674   3.346   6.350   1.902  0.9643 -0.4991 -2.9618
15395TIP3   OH267675   3.271   0.494  14.727 -0.6722 -0.8229  0.2570
15395TIP3    H167676   3.332   0.424  14.750  1.0022  0.5978  0.2455
15395TIP3    H267677   3.220   0.508  14.806 -0.7868 -1.8213  0.3668
15396TIP3   OH267678   1.928   2.916  15.147 -0.3894 -0.5301 -0.0035
15396TIP3    H167679   1.841   2.883  15.171 -0.2703 -1.0353 -0.2435
15396TIP3    H267680   1.979   2.909  15.227 -0.9290  1.0166  0.4873
15397TIP3   OH267681   0.975   1.646   4.159 -0.3989 -0.6120 -0.0525
15397TIP3    H167682   0.943   1.675   4.074  0.8239  0.6324 -0.1076
15397TIP3    H267683   0.981   1.726   4.212 -1.8479 -1.4669  1.4553
15398TIP3   OH267684   5.883   4.418   5.177 -0.8216  0.0932 -0.4107
15398TIP3    H167685   5.907   4.377   5.094  0.6572  0.4242 -0.1750
15398TIP3    H267686   5.903   4.352   5.243 -0.0699  0.5541 -0.1687
15399TIP3   OH267687   5.145   0.127  13.819  0.6056  0.5238  0.1408
15399TIP3    H167688   5.217   0.102  13.877  0.8863  2.3934  0.6099
15399TIP3    H267689   5.187   0.144  13.734  0.6536  1.2320  0.3108
15400TIP3   OH267690   0.170   4.549  14.988 -0.2202 -0.1774  0.0456
15400TIP3    H167691   0.075   4.537  14.984 -0.2249 -0.6763  1.4333
15400TIP3    H267692   0.182   4.627  15.042  0.1946 -0.6231  0.5893
15401TIP3   OH267693   2.693   2.424   4.563  0.0520 -0.5206 -0.2711
15401TIP3    H167694   2.625   2.391   4.503 -0.9179 -0.5194  0.7994
15401TIP3    H267695   2.695   2.360   4.634  0.8181 -0.2472 -0.0471
15402TIP3   OH267696   2.274   6.197  16.882 -0.4892  0.2562  0.7135
15402TIP3    H167697   2.352   6.238  16.921 -1.4729  1.6624  1.2157
15402TIP3    H267698   2.257   6.248  16.803 -0.0358 -0.9950 -0.2197
15403TIP3   OH267699   1.597   2.881   3.309 -0.4983 -0.1652  0.3013
15403TIP3    H167700   1.600   2.963   3.359  0.4624 -0.2039  0.3221
15403TIP3    H267701   1.673   2.832   3.340 -2.3364 -2.0694  1.9895
15404TIP3   OH267702   6.789   6.230  15.060  0.0843 -0.3744  0.0050
15404TIP3    H167703   6.808   6.303  15.118 -0.6416 -0.4462  0.3367
15404TIP3    H267704   6.739   6.268  14.988  0.7107 -0.3416 -0.4181
15405TIP3   OH267705   6.215   4.297  16.804 -0.6656 -0.4245 -0.4315
15405TIP3    H167706   6.189   4.388  16.819 -1.0764 -0.6935  0.5223
15405TIP3    H267707   6.300   4.289  16.846 -0.5801 -0.4547 -0.6118
15406TIP3   OH267708   2.117   0.827   1.268  0.4939 -0.1088  0.2659
15406TIP3    H167709   2.166   0.795   1.343  1.3436  1.1132  0.2579
15406TIP3    H267710   2.171   0.803   1.192  0.2828 -0.2029  0.1464
15407TIP3   OH267711   6.511   6.807   2.250  0.4400  0.1045 -0.3410
15407TIP3    H167712   6.592   6.857   2.237  1.0600 -0.6927  0.3337
15407TIP3    H267713   6.498   6.760   2.167  0.7630  0.1166 -0.3995
15408TIP3   OH267714   6.518   1.006   0.533 -0.1122  0.3968 -0.0511
15408TIP3    H167715   6.592   1.008   0.472 -0.4615  0.2628 -0.4764
15408TIP3    H267716   6.549   1.055   0.609  0.8346 -0.5943  0.2341
15409TIP3   OH267717   1.490   0.324  14.661 -0.4534 -0.1665 -0.9106
15409TIP3    H167718   1.522   0.271  14.734 -0.7851 -0.8031 -1.2218
15409TIP3    H267719   1.395   0.329  14.673 -0.2967  1.4614 -0.1590
15410TIP3   OH267720   5.800   5.112  11.817  0.2342  0.1414  0.0292
15410TIP3    H167721   5.795   5.207  11.829 -1.0508 -0.0688  1.3548
15410TIP3    H267722   5.890   5.089  11.838  0.1784  0.8996  1.1358
15411TIP3   OH267723   4.170   4.340  14.373  0.1121  0.5050 -0.2517
15411TIP3    H167724   4.098   4.368  14.429  0.6492 -1.0061  1.2404
15411TIP3    H267725   4.161   4.393  14.294 -1.1338  2.1303  0.9352
15412TIP3   OH267726   2.821   5.718  12.516  0.1930 -0.4652 -0.0879
15412TIP3    H167727   2.828   5.622  12.515  1.9797 -0.3452 -1.8037
15412TIP3    H267728   2.761   5.738  12.444 -0.4588 -0.3081  0.4968
15413TIP3   OH267729   3.845   0.900   0.846  0.4367  0.1308  0.0152
15413TIP3    H167730   3.912   0.832   0.847 -0.4735 -0.7758  0.4654
15413TIP3    H267731   3.781   0.870   0.782  0.8776  1.4137 -1.0404
15414TIP3   OH267732   5.668   3.631   2.391 -0.0769 -0.3623  0.2389
15414TIP3    H167733   5.752   3.651   2.433 -0.5053  0.0224  0.9328
15414TIP3    H267734   5.685   3.554   2.337  0.6376 -0.4923  0.6487
15415TIP3   OH267735   5.312   2.754  15.926  0.3375 -0.0050 -0.3273
15415TIP3    H167736   5.395   2.794  15.953  0.0151  1.9214 -2.0574
15415TIP3    H267737   5.266   2.823  15.879 -2.4871 -0.9067  1.0165
15416TIP3   OH267738   2.679   5.163   1.331 -0.0006 -0.0815 -0.2818
15416TIP3    H167739   2.679   5.111   1.250  0.5721  0.2883 -0.5184
15416TIP3    H267740   2.754   5.222   1.322  0.8083 -0.8730  1.0646
15417TIP3   OH267741   4.569   6.169  11.875  0.1268 -0.2829 -0.3129
15417TIP3    H167742   4.520   6.113  11.936 -3.3428  1.5162 -1.2979
15417TIP3    H267743   4.530   6.150  11.789  0.5086  1.9006 -1.0008
15418TIP3   OH267744   1.904   0.551   4.478 -0.0360 -0.0263 -0.4406
15418TIP3    H167745   1.884   0.589   4.563 -0.6543 -0.9986 -0.1422
15418TIP3    H267746   1.999   0.550   4.474  0.0269 -1.4081  0.9063
15419TIP3   OH267747   2.813   2.413   6.079  0.0576 -0.3238  0.2424
15419TIP3    H167748   2.770   2.498   6.092  0.5549 -0.0005 -0.1907
15419TIP3    H267749   2.890   2.417   6.135 -0.9845 -1.2912  1.7805
15420TIP3   OH267750   3.050   2.628   3.360  0.2065  0.6104  0.0397
15420TIP3    H167751   2.998   2.648   3.438  1.3670 -0.2345  1.0520
15420TIP3    H267752   3.100   2.708   3.343  2.1487 -0.1399  1.9355
15421TIP3   OH267753   2.141   4.105  13.918  0.1623  0.0098  0.4599
15421TIP3    H167754   2.197   4.032  13.893 -1.6765 -0.6084 -2.0672
15421TIP3    H267755   2.195   4.183  13.900  1.7767 -0.6285  2.2770
15422TIP3   OH267756   2.761   2.949   0.428 -0.2218 -0.4283 -0.3830
15422TIP3    H167757   2.731   3.030   0.470 -0.7139 -2.5249  3.5402
15422TIP3    H267758   2.856   2.957   0.425 -0.4046  1.3416 -2.3554
15423TIP3   OH267759   2.278   3.600  12.875 -0.2360 -0.3128  1.2817
15423TIP3    H167760   2.240   3.654  12.806 -0.7912 -0.4465  1.4784
15423TIP3    H267761   2.204   3.549  12.908  0.2141 -0.9355  1.3344
15424TIP3   OH267762   1.436   0.354  17.247  0.6650  0.0846  0.3691
15424TIP3    H167763   1.416   0.447  17.231  0.9782  0.3195  1.2995
15424TIP3    H267764   1.356   0.308  17.223  0.2988  0.6600  0.4692
15425TIP3   OH267765   2.528   3.105  13.690 -0.2815 -0.2560  0.2136
15425TIP3    H167766   2.544   3.024  13.642 -0.2596 -0.0370 -0.1511
15425TIP3    H267767   2.613   3.149  13.692  0.2498 -1.3265  2.4418
15426TIP3   OH267768   1.660   1.019   1.762 -0.5249 -0.1361 -0.1232
15426TIP3    H167769   1.702   0.991   1.681  0.5307 -1.7410  0.9635
15426TIP3    H267770   1.703   0.969   1.831 -1.4253  1.1866  1.4441
15427TIP3   OH267771   3.963   2.013  11.731 -0.1071  0.2005  0.0058
15427TIP3    H167772   4.027   1.944  11.719  0.5764  1.2766 -2.9968
15427TIP3    H267773   4.001   2.089  11.687 -3.2253  0.9913 -1.4704
15428TIP3   OH267774   2.553   0.832   2.857  0.2972  0.1334  0.0419
15428TIP3    H167775   2.566   0.906   2.917 -3.7632 -0.2631  1.5630
15428TIP3    H267776   2.585   0.756   2.905 -0.9282  0.1280  0.8875
15429TIP3   OH267777   6.596   0.138  12.932  0.3451 -0.2741 -0.0552
15429TIP3    H167778   6.554   0.199  12.993 -1.1558  0.3225 -1.6587
15429TIP3    H267779   6.556   0.053  12.952  0.6782 -0.2987  0.5292
15430TIP3   OH267780   4.928   0.318   4.714 -0.9822  0.0796 -0.0680
15430TIP3    H167781   4.840   0.285   4.729 -1.1013 -0.0845 -1.1167
15430TIP3    H267782   4.916   0.391   4.653 -0.7337  2.1012  2.1850
15431TIP3   OH267783   0.451   0.135  12.983  0.4463  0.0451 -0.0945
15431TIP3    H167784   0.533   0.101  12.947  0.8107 -2.1791  2.6604
15431TIP3    H267785   0.396   0.149  12.907  2.0803 -2.0497 -1.7329
15432TIP3   OH267786   6.646   2.214  17.254 -0.1399 -0.0545  0.3659
15432TIP3    H167787   6.616   2.303  17.234 -0.5336 -0.4247 -0.6979
15432TIP3    H267788   6.739   2.215  17.230 -0.4115 -0.2541 -0.6999
15433TIP3   OH267789   0.625   3.995  11.723  1.0115 -0.3533  0.5384
15433TIP3    H167790   0.636   4.044  11.804  1.7496  1.0103 -0.3510
15433TIP3    H267791   0.581   4.056  11.664 -1.9166 -2.2263  0.7159
15434TIP3   OH267792   1.000   3.619  11.679  0.4408  0.2223 -0.1759
15434TIP3    H167793   0.935   3.605  11.748 -1.1301 -0.2804 -1.7498
15434TIP3    H267794   0.977   3.704  11.641  0.0058 -0.4976 -1.5130
15435TIP3   OH267795   1.724   2.111  15.669  0.2639  0.0101 -0.2133
15435TIP3    H167796   1.806   2.160  15.667  0.8692 -0.9530  0.7310
15435TIP3    H267797   1.720   2.075  15.757 -1.5799  0.7281  0.0132
15436TIP3   OH267798   1.553   0.982  11.411 -0.8105  0.3630 -0.4578
15436TIP3    H167799   1.611   0.998  11.485 -0.6337  0.6039 -0.6471
15436TIP3    H267800   1.611   0.981  11.335 -0.8584 -0.8184 -0.4973
15437TIP3   OH267801   2.062   3.870   0.929  0.6609 -0.0862  0.1789
15437TIP3    H167802   2.095   3.856   1.018 -0.7585  0.2542  0.7701
15437TIP3    H267803   2.044   3.964   0.924  2.6162  0.2477 -1.1470
15438TIP3   OH267804   1.584   2.488   2.322  0.1582  0.4252  0.2441
15438TIP3    H167805   1.596   2.570   2.370  1.2078 -0.1300  0.9496
15438TIP3    H267806   1.591   2.512   2.230 -0.2029  1.2338  0.4301
15439TIP3   OH267807   2.500   5.308  16.016 -0.0879 -0.1872 -0.3320
15439TIP3    H167808   2.544   5.361  15.949  0.1684 -0.4844 -0.3987
15439TIP3    H267809   2.526   5.218  15.997 -0.0520 -0.2771  0.1427
15440TIP3   OH267810   5.195   3.300  11.464  0.0778  0.1273 -0.1759
15440TIP3    H167811   5.229   3.217  11.498  1.5158  0.7887  0.0435
15440TIP3    H267812   5.272   3.346  11.433 -1.1242 -0.2086 -3.8802
15441TIP3   OH267813   6.325   0.275   6.030  0.2919 -0.0358 -0.0768
15441TIP3    H167814   6.364   0.189   6.012 -0.2898 -0.1919 -0.6199
15441TIP3    H267815   6.233   0.264   6.008  0.5362  1.2135 -1.8114
15442TIP3   OH267816   1.942   1.535   6.372 -0.5413 -0.1625 -0.3693
15442TIP3    H167817   1.956   1.623   6.335  1.4861 -0.8191 -1.2279
15442TIP3    H267818   1.848   1.520   6.362 -0.5045  0.8805 -2.6019
15443TIP3   OH267819   3.044   3.530   0.257  0.8828  0.5177 -0.0457
15443TIP3    H167820   3.066   3.440   0.280  1.5602  0.6013 -0.3438
15443TIP3    H267821   3.028   3.574   0.341 -0.2799 -0.0800  0.0586
15444TIP3   OH267822   1.484   5.294   0.504 -0.0672 -0.0240 -0.5419
15444TIP3    H167823   1.509   5.307   0.413  0.0150 -0.0408 -0.5211
15444TIP3    H267824   1.488   5.382   0.543  0.0412 -0.0406 -0.5169
15445TIP3   OH267825   0.951   2.877   2.594  0.9218 -0.4251 -0.0719
15445TIP3    H167826   1.046   2.888   2.604  1.0338 -1.7695  0.4524
15445TIP3    H267827   0.919   2.964   2.572  2.1242  0.3147  1.0290
15446TIP3   OH267828   2.331   2.532  15.886  0.1941 -0.1343 -0.1219
15446TIP3    H167829   2.325   2.453  15.939  2.5217 -1.0565 -1.1756
15446TIP3    H267830   2.424   2.553  15.884 -0.1139  1.2118 -1.9064
15447TIP3   OH267831   1.491   1.697   3.902  0.6860 -0.1297  0.1535
15447TIP3    H167832   1.522   1.641   3.973  0.4186  0.1927  0.5245
15447TIP3    H267833   1.498   1.642   3.824 -0.8071 -1.1427  0.7003
15448TIP3   OH267834   1.761   4.455   1.826 -0.4892 -0.2704 -0.5772
15448TIP3    H167835   1.818   4.512   1.876 -1.7389 -0.5253  1.1980
15448TIP3    H267836   1.700   4.514   1.781  0.5775 -0.0489 -1.7646
15449TIP3   OH267837   1.581   4.999   2.673 -0.2829 -0.2286 -0.2023
15449TIP3    H167838   1.643   5.007   2.746 -1.1987 -1.7413  0.7863
15449TIP3    H267839   1.628   4.951   2.606 -0.2281 -1.0128  0.3862
15450TIP3   OH267840   3.157   3.689   4.031  0.1482 -0.0912 -0.3584
15450TIP3    H167841   3.174   3.714   3.940  0.0284  1.1803 -0.0433
15450TIP3    H267842   3.175   3.595   4.034  0.1364 -0.1477 -1.6975
15451TIP3   OH267843   2.575   5.039   1.873 -0.2107 -0.4151 -0.0531
15451TIP3    H167844   2.634   5.061   1.801  2.4003 -1.1585  1.7503
15451TIP3    H267845   2.620   5.071   1.951 -3.2941  1.0030  1.2153
15452TIP3   OH267846   5.112   4.764   2.239 -0.4755 -0.1485 -0.0071
15452TIP3    H167847   5.163   4.835   2.279  0.2077 -0.7504  0.2072
15452TIP3    H267848   5.174   4.722   2.179 -0.6628 -1.0096  0.3983
15453TIP3   OH267849   3.827   6.735   2.493  0.0915  0.1604 -0.0787
15453TIP3    H167850   3.887   6.807   2.474  0.4360 -0.2068 -0.3819
15453TIP3    H267851   3.877   6.656   2.473 -0.8102 -0.1254 -1.2284
15454TIP3   OH267852   1.289   4.613   0.281  0.2600 -0.6177 -0.4036
15454TIP3    H167853   1.210   4.578   0.240  0.0327 -0.6758  0.0763
15454TIP3    H267854   1.298   4.702   0.247 -0.2203 -0.4820 -0.1763
15455TIP3   OH267855   4.388   3.187  15.224 -0.3483 -0.0746  0.1334
15455TIP3    H167856   4.306   3.203  15.177  0.7342 -0.4029 -1.9138
15455TIP3    H267857   4.363   3.187  15.316 -2.4170  1.2390 -0.3865
15456TIP3   OH267858   1.148   0.117   6.552  0.3899  0.0243 -0.0356
15456TIP3    H167859   1.084   0.081   6.613  1.7614 -0.6114  1.0557
15456TIP3    H267860   1.202   0.175   6.606  2.1987 -1.2546 -0.4525
15457TIP3   OH267861   1.118   0.547  14.817  0.2485  0.2265 -0.1509
15457TIP3    H167862   1.147   0.456  14.810  2.8624  0.9083  1.1459
15457TIP3    H267863   1.064   0.548  14.896 -0.5560 -0.3719 -0.6847
15458TIP3   OH267864   0.947   2.949   1.088  0.4429 -0.1300 -0.1052
15458TIP3    H167865   0.896   2.906   1.019  0.0153 -0.8350  0.6358
15458TIP3    H267866   1.011   3.002   1.041  0.3565 -0.8416 -1.0460
15459TIP3   OH267867   6.589   1.915  16.128 -0.1925  0.4009  0.1685
15459TIP3    H167868   6.593   1.842  16.066  1.6979  0.2537  0.4359
15459TIP3    H267869   6.534   1.884  16.199  0.5918 -0.7553  0.2730
15460TIP3   OH267870   0.208   2.988   5.644  0.1910 -0.0462 -0.5909
15460TIP3    H167871   0.129   3.025   5.605  0.2268  1.3090  0.5991
15460TIP3    H267872   0.212   3.025   5.732  0.7867 -2.0873  0.2842
15461TIP3   OH267873   3.310   0.570  16.388 -0.0508 -0.6545 -0.3371
15461TIP3    H167874   3.333   0.522  16.467  1.8607 -0.3661 -0.6880
15461TIP3    H267875   3.278   0.654  16.420  0.4452 -0.6469  0.1550
15462TIP3   OH267876   3.576   3.541   2.232  0.8003  0.2939  0.2082
15462TIP3    H167877   3.595   3.451   2.206  3.6345  0.2280  2.2333
15462TIP3    H267878   3.661   3.586   2.226 -0.1238  2.2441  1.3700
15463TIP3   OH267879   3.302   3.907   1.347 -0.0968  0.3032  0.3446
15463TIP3    H167880   3.241   3.973   1.311 -0.8168 -0.5576 -0.0234
15463TIP3    H267881   3.389   3.939   1.322 -0.5618 -0.0527 -1.8166
15464TIP3   OH267882   6.395   4.322   0.683 -0.1518 -0.6263  0.0566
15464TIP3    H167883   6.375   4.233   0.653  0.6273 -0.3356 -1.4033
15464TIP3    H267884   6.377   4.377   0.606 -0.2541  0.4253  0.8301
15465TIP3   OH267885   2.952   5.824   3.464 -0.0126 -0.2915  0.6177
15465TIP3    H167886   2.974   5.738   3.427 -0.8823 -0.4914  0.5416
15465TIP3    H267887   2.978   5.887   3.398  0.3836 -0.5195  0.5597
15466TIP3   OH267888   3.182   3.657   0.761  0.2532  0.2515 -0.5027
15466TIP3    H167889   3.241   3.680   0.833  0.1454 -1.5496  0.1761
15466TIP3    H267890   3.095   3.658   0.801  0.1231 -0.0575 -0.7814
15467TIP3   OH267891   4.616   5.073   4.436 -0.0368  0.4273 -0.1532
15467TIP3    H167892   4.624   5.084   4.531 -0.0454  1.1486 -0.2286
15467TIP3    H267893   4.672   5.142   4.399  0.2639 -0.0936 -0.6705
15468TIP3   OH267894   2.372   5.048  16.813 -0.1067  0.3693 -0.3596
15468TIP3    H167895   2.293   5.101  16.809  0.3393  1.0477 -0.1686
15468TIP3    H267896   2.423   5.075  16.737 -0.4167 -0.6415 -0.9351
15469TIP3   OH267897   5.935   6.175  13.509 -0.1413 -0.1257  0.3061
15469TIP3    H167898   5.972   6.253  13.467  0.1503 -0.1115  0.5899
15469TIP3    H267899   6.011   6.120  13.528 -0.3761 -0.6132 -0.1659
15470TIP3   OH267900   1.486   5.820   0.294  0.6584 -0.3040  0.2648
15470TIP3    H167901   1.499   5.782   0.381  0.5520 -1.8674 -0.3943
15470TIP3    H267902   1.440   5.902   0.310 -0.5670 -1.2400  1.5811
15471TIP3   OH267903   3.364   3.849   5.795 -0.0219  0.4911 -0.1143
15471TIP3    H167904   3.340   3.898   5.874  2.5047  0.3977  0.7435
15471TIP3    H267905   3.300   3.777   5.792 -1.2983  1.5459  0.8001
15472TIP3   OH267906   4.223   0.604  14.415  0.0956 -0.1643 -0.3076
15472TIP3    H167907   4.294   0.661  14.445 -1.0014  1.3012 -0.4636
15472TIP3    H267908   4.184   0.571  14.496  0.9060 -0.9125 -0.2199
15473TIP3   OH267909   1.741   2.901  13.243 -0.0897  0.2191  0.2240
15473TIP3    H167910   1.679   2.870  13.308  1.5782  0.3781  1.9497
15473TIP3    H267911   1.810   2.834  13.242 -0.3867 -0.0917 -1.8390
15474TIP3   OH267912   2.233   1.997  13.984 -0.4269 -0.0477 -0.0327
15474TIP3    H167913   2.286   2.042  14.050 -0.4321 -0.6552  0.3928
15474TIP3    H267914   2.168   2.061  13.957  0.6835  0.7975 -0.7453
15475TIP3   OH267915   2.846   5.686   0.494 -0.0562 -0.4949  0.4448
15475TIP3    H167916   2.797   5.760   0.530 -0.3322 -1.1244  1.3772
15475TIP3    H267917   2.784   5.642   0.436 -0.0085 -0.2227  0.1839
15476TIP3   OH267918   0.350   6.170  14.118 -0.0226  0.2560 -0.2573
15476TIP3    H167919   0.272   6.224  14.131  1.0569  2.0785 -1.1366
15476TIP3    H267920   0.320   6.097  14.063 -1.7493 -0.6932  1.8611
15477TIP3   OH267921   6.185   4.091  11.633 -0.3656  0.0717 -0.6178
15477TIP3    H167922   6.092   4.071  11.644 -0.5606  1.3484  0.0799
15477TIP3    H267923   6.188   4.186  11.623  0.9618  0.1348  0.3531
15478TIP3   OH267924   4.926   6.015   1.318 -0.1266 -0.2290 -0.2805
15478TIP3    H167925   4.868   6.011   1.242  0.7321 -0.7868 -0.9125
15478TIP3    H267926   4.985   6.089   1.299  0.4912 -0.7603 -0.4532
15479TIP3   OH267927   4.029   0.170   1.959  0.1961  0.5870  0.0486
15479TIP3    H167928   4.081   0.117   1.898  1.4744 -2.4927  3.6119
15479TIP3    H267929   3.939   0.146   1.939  0.6510 -1.3114  0.0929
15480TIP3   OH267930   2.194   0.586   4.519  0.5688 -0.0910  0.1745
15480TIP3    H167931   2.280   0.628   4.513  0.2665  0.6990  1.3548
15480TIP3    H267932   2.200   0.529   4.596  0.1901 -0.4031 -0.0246
15481TIP3   OH267933   2.115   5.717   4.639 -0.2975 -0.7485 -0.3406
15481TIP3    H167934   2.208   5.711   4.618 -0.0726  0.4482  0.2355
15481TIP3    H267935   2.089   5.805   4.611 -1.1348 -0.8975 -0.0663
15482TIP3   OH267936   4.296   6.259  16.972  0.0533  0.1794  0.3209
15482TIP3    H167937   4.326   6.230  17.059 -0.0568 -0.2435  0.2187
15482TIP3    H267938   4.358   6.219  16.911 -1.5542 -1.9159 -0.0062
15483TIP3   OH267939   2.516   6.465  12.380 -0.3463 -0.3877 -0.3823
15483TIP3    H167940   2.506   6.553  12.416  0.4875 -0.5046  0.1425
15483TIP3    H267941   2.426   6.436  12.363 -0.6296  0.5434 -0.5328
15484TIP3   OH267942   4.352   1.229  12.369  0.0358 -0.3713  0.0925
15484TIP3    H167943   4.360   1.254  12.277 -0.6670 -1.7989 -0.3785
15484TIP3    H267944   4.364   1.310  12.417 -1.0286  0.6659 -1.3251
15485TIP3   OH267945   6.445   0.826  15.445  0.2135 -0.0686 -0.6099
15485TIP3    H167946   6.425   0.764  15.515 -0.0905  1.0999  0.3466
15485TIP3    H267947   6.528   0.795  15.409  1.9146  0.9736  2.2111
15486TIP3   OH267948   3.000   5.302   1.675  0.0571 -0.4653 -0.2870
15486TIP3    H167949   2.923   5.251   1.650 -0.2756  0.2134 -0.6829
15486TIP3    H267950   2.981   5.335   1.762 -2.5441  4.2650 -2.4706
15487TIP3   OH267951   4.728   3.985  14.847  0.3003  0.1656  0.1304
15487TIP3    H167952   4.771   3.970  14.763  0.7861  2.0328  0.0430
15487TIP3    H267953   4.635   3.969  14.830  0.2693  1.5182 -1.0088
15488TIP3   OH267954   0.326   6.465  12.048 -0.1666 -0.1091  0.4274
15488TIP3    H167955   0.239   6.427  12.044  0.1358 -0.7756  0.0801
15488TIP3    H267956   0.373   6.425  11.975  0.2364  0.7319  0.2222
15489TIP3   OH267957   1.111   3.417  12.066  0.2444  0.3214 -0.1438
15489TIP3    H167958   1.117   3.410  11.970 -0.5386 -2.7768 -0.0217
15489TIP3    H267959   1.201   3.417  12.096  0.4728 -0.1232 -0.8185
15490TIP3   OH267960   3.021   1.661  13.367 -0.4278 -0.2492 -0.3702
15490TIP3    H167961   2.953   1.606  13.329 -0.6555  0.9117 -1.6993
15490TIP3    H267962   3.052   1.715  13.294  2.0860 -0.9080  0.1605
15491TIP3   OH267963   5.318   4.964  13.973  0.1340  0.6917 -0.3080
15491TIP3    H167964   5.246   4.960  13.910  0.2115  1.8915 -0.4841
15491TIP3    H267965   5.389   4.917  13.931 -0.1231  0.6527 -0.7033
15492TIP3   OH267966   3.555   1.457   4.367  0.3014 -0.2267  0.5076
15492TIP3    H167967   3.538   1.505   4.286 -0.6935 -0.0698  0.8021
15492TIP3    H267968   3.524   1.516   4.437 -1.9662 -1.7037  0.8187
15493TIP3   OH267969   2.616   4.794   0.876 -0.0291  0.2393 -0.5686
15493TIP3    H167970   2.554   4.855   0.836 -1.5652 -0.0986  1.2595
15493TIP3    H267971   2.700   4.840   0.872 -1.0146  2.1653  0.0844
15494TIP3   OH267972   6.494   0.229   4.398  0.2031  0.3366 -0.0056
15494TIP3    H167973   6.539   0.277   4.329  1.2158 -0.0103  0.4018
15494TIP3    H267974   6.526   0.270   4.479  1.3301 -1.2274  0.3584
15495TIP3   OH267975   4.531   5.120   1.286  0.2035  0.1527 -0.0770
15495TIP3    H167976   4.543   5.026   1.271 -1.4457  0.0874 -1.0632
15495TIP3    H267977   4.605   5.161   1.242  1.1551 -0.7072  0.7083
15496TIP3   OH267978   2.261   2.476   1.738 -0.5790  0.2159  0.6853
15496TIP3    H167979   2.190   2.448   1.681  1.3268 -4.1556  0.2558
15496TIP3    H267980   2.331   2.502   1.677 -0.3777  0.6027  1.0807
15497TIP3   OH267981   3.544   1.254  16.145 -0.1951 -0.1398 -0.5155
15497TIP3    H167982   3.522   1.194  16.216  0.4931  1.5059  1.1379
15497TIP3    H267983   3.584   1.199  16.078 -1.1242 -1.7647  0.2451
15498TIP3   OH267984   3.379   5.883   1.807  0.6061  0.1747 -0.3484
15498TIP3    H167985   3.323   5.893   1.731  1.2191  1.2943 -0.6705
15498TIP3    H267986   3.347   5.804   1.851  0.0456 -0.2915 -1.5803
15499TIP3   OH267987   6.592   6.361  14.917  0.4158  0.0910 -0.3263
15499TIP3    H167988   6.507   6.376  14.957  1.0799  3.0624  0.0645
15499TIP3    H267989   6.604   6.435  14.858  2.6718 -0.3588 -0.4629
15500TIP3   OH267990   4.224   0.801   5.189 -0.0342 -0.4128  0.5940
15500TIP3    H167991   4.196   0.833   5.275 -0.1430  0.2855  0.3064
15500TIP3    H267992   4.184   0.862   5.127  1.3672  0.0628  0.1311
15501TIP3   OH267993   3.430   3.474   0.286 -0.0025 -0.1438 -0.2275
15501TIP3    H167994   3.467   3.394   0.247 -0.3029 -2.5012  4.0033
15501TIP3    H267995   3.481   3.488   0.365 -0.3430  3.6347 -0.6036
15502TIP3   OH267996   6.266   1.676   6.694  0.1348 -0.1114  0.6256
15502TIP3    H167997   6.176   1.688   6.723  0.3198 -0.0458  1.1955
15502TIP3    H267998   6.276   1.733   6.618 -0.7023 -1.1494 -0.2775
15503TIP3   OH267999   5.733   4.506  10.604  0.0168  0.3327 -0.0600
15503TIP3    H168000   5.689   4.495  10.519 -0.4078  0.0427  0.1952
15503TIP3    H268001   5.766   4.596  10.602 -0.1898  0.4038 -0.4410
15504TIP3   OH268002   3.700   6.501   6.660  0.2405 -0.3061  0.2463
15504TIP3    H168003   3.691   6.467   6.571 -1.5778  0.0518  0.2597
15504TIP3    H268004   3.730   6.426   6.712  0.3639 -0.7703 -0.4864
15505TIP3   OH268005   0.488   2.291  13.865 -0.2236  0.5268  0.0716
15505TIP3    H168006   0.430   2.362  13.891  0.7769  1.2193  0.4271
15505TIP3    H268007   0.469   2.220  13.927 -1.8081  0.1616 -0.7872
15506TIP3   OH268008   4.525   2.268  13.463  0.1649  0.4068 -0.0669
15506TIP3    H168009   4.536   2.207  13.536  0.5450  0.2442 -0.2549
15506TIP3    H268010   4.435   2.253  13.433 -0.0299  0.5606  0.4426
15507TIP3   OH268011   4.321   4.219   2.010  0.6560 -0.4981 -0.4263
15507TIP3    H168012   4.241   4.174   1.981  1.7660 -0.7760 -3.2106
15507TIP3    H268013   4.338   4.284   1.941  1.6489  1.0293  1.2235
15508TIP3   OH268014   1.301   4.191  14.850  0.5583  0.0102  0.1467
15508TIP3    H168015   1.241   4.251  14.807 -0.1708  0.4923  1.8316
15508TIP3    H268016   1.291   4.109  14.801 -0.3668  0.4965 -0.4950
15509TIP3   OH268017   2.551   6.496  13.072 -0.2734  0.2102 -0.2479
15509TIP3    H168018   2.629   6.549  13.085  0.3286 -0.2063 -2.0403
15509TIP3    H268019   2.577   6.407  13.099 -0.6388  0.3806  0.7051
15510TIP3   OH268020   3.546   1.400   5.707  0.0939 -0.1211  0.3345
15510TIP3    H168021   3.567   1.400   5.800 -1.1277 -3.9133  0.7035
15510TIP3    H268022   3.623   1.362   5.665 -0.3406 -0.7572  0.0995
15511TIP3   OH268023   3.989   2.056  16.772  0.2572  0.1206  0.0811
15511TIP3    H168024   4.001   2.149  16.789 -0.7669  0.5270 -1.3003
15511TIP3    H268025   3.974   2.017  16.858 -0.7043  1.4605  0.5297
15512TIP3   OH268026   5.022   4.414  15.194  0.9666  0.5667  0.4326
15512TIP3    H168027   4.995   4.372  15.276 -1.4874  1.0397 -0.0952
15512TIP3    H268028   5.087   4.478  15.220  2.6237 -1.5357  1.6072
15513TIP3   OH268029   5.006   4.475   2.991 -0.5638  0.0463  0.1022
15513TIP3    H168030   4.998   4.530   2.912 -2.0672 -0.0619  0.1721
15513TIP3    H268031   4.935   4.412   2.983 -0.1598 -0.5375  1.1135
15514TIP3   OH268032   2.066   6.339   4.835  0.2155 -0.0054  0.1460
15514TIP3    H168033   2.086   6.415   4.782  0.0134 -0.5490 -0.7151
15514TIP3    H268034   1.992   6.297   4.791  1.1254 -1.3902 -0.0988
15515TIP3   OH268035   0.251   2.111   6.314  0.4247 -0.2124  0.1914
15515TIP3    H168036   0.308   2.128   6.389  0.1909  0.3280  0.2528
15515TIP3    H268037   0.165   2.094   6.353  0.3283 -0.0470  0.0500
15516TIP3   OH268038   2.826   4.726  16.380  0.2587 -0.2646 -0.1335
15516TIP3    H168039   2.779   4.784  16.441 -0.2579  0.2273 -0.9975
15516TIP3    H268040   2.764   4.657  16.360  0.4733 -0.4936 -0.0169
15517TIP3   OH268041   0.268   1.375   5.254 -0.0678  0.0955  0.3191
15517TIP3    H168042   0.254   1.300   5.197  1.5213 -0.0996  0.1740
15517TIP3    H268043   0.180   1.412   5.267 -0.7410 -1.2704 -0.2932
15518TIP3   OH268044   4.146   2.733  12.997 -0.6714 -0.5028 -0.5075
15518TIP3    H168045   4.177   2.685  13.073 -0.6211  0.4075  0.0483
15518TIP3    H268046   4.224   2.745  12.942 -0.7416 -1.3053 -0.7826
15519TIP3   OH268047   1.570   2.687   0.155  0.2670  0.0551 -0.9760
15519TIP3    H168048   1.483   2.719   0.178  0.1948 -0.8057 -0.0121
15519TIP3    H268049   1.618   2.766   0.127 -0.2068  0.8435  0.3999
15520TIP3   OH268050   1.845   3.304   1.319 -0.0708 -0.5049 -0.4246
15520TIP3    H168051   1.831   3.317   1.413 -0.6202  0.3013 -0.6049
15520TIP3    H268052   1.930   3.345   1.302 -0.2749 -0.0543 -0.3892
15521TIP3   OH268053   3.805   3.714  11.730  0.0043 -0.0481 -0.1088
15521TIP3    H168054   3.843   3.626  11.732 -2.0045 -0.9487 -0.6115
15521TIP3    H268055   3.768   3.722  11.642  1.9347  2.0871 -0.7810
15522TIP3   OH268056   0.617   5.271   0.171 -0.5648 -0.3043  0.0122
15522TIP3    H168057   0.583   5.357   0.197  0.0759 -0.3597  1.0622
15522TIP3    H268058   0.584   5.211   0.238  1.4321 -0.3787  0.9659
15523TIP3   OH268059   5.158   4.083   3.399 -0.0392  0.0319 -0.3312
15523TIP3    H168060   5.151   4.160   3.344  0.2905  0.4379  0.1887
15523TIP3    H268061   5.229   4.104   3.461 -0.5068 -0.3509  0.3422
15524TIP3   OH268062   4.171   1.463  14.957 -0.3020  0.2866  0.0681
15524TIP3    H168063   4.105   1.462  15.026 -0.7467  1.1014 -0.3340
15524TIP3    H268064   4.180   1.371  14.931 -0.1460 -0.0148  1.1882
15525TIP3   OH268065   5.349   2.753   2.716  0.2733 -0.6277 -0.4351
15525TIP3    H168066   5.332   2.692   2.644 -1.5464 -0.4924 -0.1430
15525TIP3    H268067   5.349   2.698   2.794 -0.8518 -0.3384 -0.2251
15526TIP3   OH268068   6.661   2.223   3.380 -0.3387  0.0107  0.3395
15526TIP3    H168069   6.693   2.289   3.318  1.0228  0.8227  1.8831
15526TIP3    H268070   6.738   2.196   3.429 -0.8230 -2.9686 -0.4203
15527TIP3   OH268071   4.357   6.035  14.358 -0.0673  0.2989  0.1848
15527TIP3    H168072   4.295   6.102  14.327 -2.4406 -1.7578  0.3666
15527TIP3    H268073   4.423   6.030  14.289 -3.0105 -1.2168 -2.6568
15528TIP3   OH268074   1.831   1.304   5.387 -0.1552  1.2909 -0.0284
15528TIP3    H168075   1.914   1.274   5.425 -0.1977 -0.3666 -1.2223
15528TIP3    H268076   1.857   1.369   5.322  0.3911 -1.0119 -2.1432
15529TIP3   OH268077   0.466   1.561   2.403  0.1301  0.0366  1.0171
15529TIP3    H168078   0.523   1.637   2.396  0.1606  0.0156  1.0376
15529TIP3    H268079   0.461   1.544   2.497 -1.2103  1.0331  1.1603
15530TIP3   OH268080   1.523   2.243   5.749  0.0544 -0.0062 -0.4121
15530TIP3    H168081   1.460   2.187   5.703  1.6649 -1.2423 -1.1663
15530TIP3    H268082   1.591   2.182   5.779  0.9161  1.3149  0.3566
15531TIP3   OH268083   3.792   2.469   0.582 -0.0451  0.2206  0.1833
15531TIP3    H168084   3.761   2.532   0.517 -1.3312 -0.3579  0.2211
15531TIP3    H268085   3.807   2.521   0.661 -0.0260  0.6613 -0.1097
15532TIP3   OH268086   2.553   1.386  14.963  0.0513  0.2145 -0.3194
15532TIP3    H168087   2.617   1.406  15.031 -0.2134 -1.8909  0.5914
15532TIP3    H268088   2.604   1.381  14.882  1.2321 -2.4368  0.5554
15533TIP3   OH268089   5.838   6.384   2.038  0.2010  0.4140 -0.6431
15533TIP3    H168090   5.806   6.336   2.114  0.1062 -0.1459 -1.0292
15533TIP3    H268091   5.778   6.359   1.967  0.1658  1.0886 -0.8493
15534TIP3   OH268092   2.894   1.856  10.873  0.3179  0.0431  0.5409
15534TIP3    H168093   2.974   1.804  10.876 -0.3677 -1.0197  0.7950
15534TIP3    H268094   2.839   1.809  10.810 -0.0638  0.8188  0.3005
15535TIP3   OH268095   3.635   1.837   5.565 -0.1780  0.1238  0.2789
15535TIP3    H168096   3.642   1.910   5.503 -0.6142  0.2283  0.3470
15535TIP3    H268097   3.689   1.863   5.639  0.4742 -0.0698 -0.1209
15536TIP3   OH268098   1.716   2.414   4.668 -0.7323 -0.4742 -0.3384
15536TIP3    H168099   1.732   2.509   4.667  0.1418 -0.6047  0.0833
15536TIP3    H268100   1.696   2.395   4.760 -0.0141 -0.8300 -0.2505
15537TIP3   OH268101   2.672   6.386  16.631 -0.0451  0.0279 -0.1222
15537TIP3    H168102   2.602   6.344  16.581  1.6533 -1.8017 -1.0276
15537TIP3    H268103   2.714   6.446  16.568 -0.2343  0.4786  0.1737
15538TIP3   OH268104   6.445   0.184   5.675  0.4207  0.0987  0.6716
15538TIP3    H168105   6.523   0.139   5.708 -0.3247 -0.1060  2.1847
15538TIP3    H268106   6.392   0.115   5.636  1.8332  0.5014 -2.0965
15539TIP3   OH268107   5.315   2.067   4.436  0.4652  0.1943 -0.0892
15539TIP3    H168108   5.319   2.007   4.510 -0.8648  1.8530  1.3708
15539TIP3    H268109   5.400   2.111   4.435  1.6752 -2.0631 -1.5311
15540TIP3   OH268110   2.393   5.043  15.661 -0.4462 -0.1531  0.3087
15540TIP3    H168111   2.297   5.044  15.658 -0.4344  0.3032  0.0750
15540TIP3    H268112   2.414   5.029  15.753 -0.7399 -0.5808  0.3108
15541TIP3   OH268113   2.189   3.217   0.655 -0.3500  0.3075 -0.1062
15541TIP3    H168114   2.140   3.156   0.600 -0.0831 -0.9929  1.0663
15541TIP3    H268115   2.164   3.303   0.624 -1.5806 -0.3888 -1.0689
15542TIP3   OH268116   0.109   2.441   2.624  0.6956 -0.2252  0.5091
15542TIP3    H168117   0.182   2.382   2.640  0.3686 -0.9423 -0.5985
15542TIP3    H268118   0.121   2.471   2.533 -0.8746 -1.0632  0.0068
15543TIP3   OH268119   6.096   4.859  16.984  0.7309 -0.0527  0.1694
15543TIP3    H168120   6.092   4.952  16.959  2.4212  0.2064  0.7944
15543TIP3    H268121   6.129   4.815  16.907  0.4835 -0.0599  0.0655
15544TIP3   OH268122   2.036   4.685   2.516  0.3184 -0.7226  0.5355
15544TIP3    H168123   2.018   4.689   2.422 -2.6037  2.2627  1.1336
15544TIP3    H268124   2.076   4.599   2.529  0.3603 -1.3868 -3.3439
15545TIP3   OH268125   0.908   6.239   4.671 -0.4898 -0.1161  0.0465
15545TIP3    H168126   0.816   6.233   4.645 -0.8155 -1.4602  1.4097
15545TIP3    H268127   0.949   6.164   4.629 -0.0758  0.3189 -0.3243
15546TIP3   OH268128   0.358   6.431   5.638  0.1297  0.3887  0.2003
15546TIP3    H168129   0.268   6.402   5.624  0.8490 -2.7380  1.7513
15546TIP3    H268130   0.349   6.521   5.671 -2.4330 -0.0625  0.8401
15547TIP3   OH268131   5.961   0.414  15.717 -0.4916 -0.0014  1.0139
15547TIP3    H168132   5.971   0.490  15.659 -0.3018  0.6124  1.8431
15547TIP3    H268133   6.015   0.345  15.676 -1.1983  0.0987 -0.1002
15548TIP3   OH268134   1.393   4.361   1.725 -0.3974 -0.5987  0.2760
15548TIP3    H168135   1.489   4.359   1.732 -0.4805 -1.0087  1.5534
15548TIP3    H268136   1.374   4.440   1.674  0.6305 -0.5681 -0.0695
15549TIP3   OH268137   5.845   0.347   0.337  0.1657 -0.0621  0.5029
15549TIP3    H168138   5.752   0.337   0.354 -0.2626  2.1007 -0.4249
15549TIP3    H268139   5.875   0.412   0.402  0.1066  2.4175 -1.8431
15550TIP3   OH268140   2.175   4.617  14.392 -0.0362  0.0842  0.3811
15550TIP3    H168141   2.191   4.610  14.486  0.1744 -2.5133  0.1786
15550TIP3    H268142   2.262   4.617  14.352 -0.1678 -0.0565  0.0960
15551TIP3   OH268143   4.105   3.980   4.183 -0.0144 -0.3512 -0.2836
15551TIP3    H168144   4.158   3.967   4.262 -1.4908 -0.6042  0.6848
15551TIP3    H268145   4.157   4.039   4.129  0.4509  0.8602  1.4386
15552TIP3   OH268146   3.361   4.538   3.172 -0.0086 -0.2630 -0.1199
15552TIP3    H168147   3.333   4.587   3.250 -0.6823 -1.1723  0.2150
15552TIP3    H268148   3.455   4.524   3.185  0.0873  0.4901  0.0297
15553TIP3   OH268149   6.046   6.777   2.567  0.5043  0.9209  0.1854
15553TIP3    H168150   5.977   6.803   2.628  0.5830  1.3534  0.0885
15553TIP3    H268151   6.002   6.767   2.483  0.1568 -0.8993  0.5621
15554TIP3   OH268152   4.264   4.307   1.370  0.1634 -0.6233  0.0683
15554TIP3    H168153   4.220   4.271   1.447  0.1641  0.2146  0.4665
15554TIP3    H268154   4.197   4.305   1.301 -0.4189  0.3963  0.6014
15555TIP3   OH268155   4.186   1.634  11.921  0.1384 -0.3181 -0.6069
15555TIP3    H168156   4.213   1.636  12.012 -1.5053  1.5386 -0.1225
15555TIP3    H268157   4.260   1.596  11.874  2.0091  1.0873  1.1421
15556TIP3   OH268158   5.522   1.163  13.470 -0.1105  0.0590  0.4322
15556TIP3    H168159   5.603   1.208  13.447  0.5481  0.0007  2.5147
15556TIP3    H268160   5.487   1.132  13.387  1.4360  1.0329 -0.6100
15557TIP3   OH268161   4.799   1.989  11.814  0.1262  0.2466 -0.1021
15557TIP3    H168162   4.805   2.038  11.731  0.3829  0.1364 -0.1479
15557TIP3    H268163   4.772   1.901  11.788  0.5954  0.1047 -0.1005
15558TIP3   OH268164   5.645   6.523  15.694  0.1486 -0.2352  0.5720
15558TIP3    H168165   5.674   6.564  15.775  3.6343 -1.7195  0.2014
15558TIP3    H268166   5.699   6.564  15.626 -1.6587 -0.0631 -0.7763
15559TIP3   OH268167   3.132   1.117  15.278  0.1049 -0.1717 -0.2188
15559TIP3    H168168   3.171   1.054  15.339  0.6622 -1.7694 -2.1341
15559TIP3    H268169   3.038   1.099  15.281  0.2110 -0.7823 -0.3760
15560TIP3   OH268170   3.072   3.073  12.326 -0.5523  0.7449  0.3736
15560TIP3    H168171   3.048   3.085  12.234 -1.4797  1.5436  0.7137
15560TIP3    H268172   3.042   2.985  12.348  1.1873 -0.1029 -0.5473
15561TIP3   OH268173   2.573   3.963   2.945 -0.6196  0.6032 -0.6600
15561TIP3    H168174   2.645   3.922   2.897  1.6619  1.6025  1.8470
15561TIP3    H268175   2.539   4.029   2.884 -0.3842 -0.8181 -2.3916
15562TIP3   OH268176   2.523   0.109  15.430 -0.4402  0.0003  0.2534
15562TIP3    H168177   2.457   0.101  15.498 -0.0233 -1.9412  0.4596
15562TIP3    H268178   2.475   0.096  15.348 -0.6054  0.3361  0.2976
15563TIP3   OH268179   0.329   2.552  14.239  0.1250 -0.0102 -0.4706
15563TIP3    H168180   0.267   2.480  14.247 -0.6876  0.6262 -0.9276
15563TIP3    H268181   0.338   2.587  14.328 -1.6840  1.1273 -0.7092
15564TIP3   OH268182   5.075   2.784   1.159 -0.2558 -0.1251 -0.2820
15564TIP3    H168183   5.126   2.727   1.216  0.3509  0.0276 -0.6733
15564TIP3    H268184   4.986   2.779   1.195 -0.2632 -1.4995 -0.4573
15565TIP3   OH268185   4.415   6.244  15.602 -0.0066 -0.0080 -0.4909
15565TIP3    H168186   4.497   6.208  15.637 -0.3304 -0.4952 -0.2185
15565TIP3    H268187   4.442   6.315  15.545  0.8107 -2.0836 -2.8010
15566TIP3   OH268188   1.376   0.278   0.269 -0.3254 -0.1545  0.0531
15566TIP3    H168189   1.449   0.331   0.302 -0.1072 -0.8727  0.7355
15566TIP3    H268190   1.356   0.316   0.183 -0.1133  0.9743  0.4904
15567TIP3   OH268191   4.939   5.143  12.072  0.4565  0.1194  0.1864
15567TIP3    H168192   5.029   5.113  12.088  0.4027 -0.5894 -0.7945
15567TIP3    H268193   4.888   5.105  12.143  0.7440 -0.4338  0.1040
15568TIP3   OH268194   1.687   6.466  10.791 -0.0559 -0.1595  0.2066
15568TIP3    H168195   1.612   6.522  10.810  0.7228  0.5705  1.2572
15568TIP3    H268196   1.716   6.435  10.877  1.2491  0.1146 -0.1213
15569TIP3   OH268197   1.916   0.886  13.878 -0.3662  0.0152  0.0201
15569TIP3    H168198   1.920   0.965  13.932 -1.8123  0.2121 -0.1561
15569TIP3    H268199   2.008   0.865  13.862  0.0592  1.0033  1.0216
15570TIP3   OH268200   1.611   1.911  14.747  0.3257  0.3943 -0.0683
15570TIP3    H168201   1.585   1.991  14.794  1.6043  1.0461 -0.4453
15570TIP3    H268202   1.663   1.943  14.673 -1.0863 -0.6637 -1.5445
15571TIP3   OH268203   6.660   1.748  12.494  0.4166  0.3155 -0.3592
15571TIP3    H168204   6.716   1.758  12.417  1.2861 -1.9952 -0.0858
15571TIP3    H268205   6.661   1.654  12.512 -2.6630  0.3477  0.3298
15572TIP3   OH268206   0.631   4.091  13.202 -0.3182 -0.2251 -0.2454
15572TIP3    H168207   0.609   4.184  13.211 -0.8842 -0.4414  0.6621
15572TIP3    H268208   0.727   4.090  13.197 -0.2561  0.3450  0.6556
15573TIP3   OH268209   4.398   0.415   2.928  0.4608  0.5496 -0.0091
15573TIP3    H168210   4.398   0.360   3.006  1.1376 -2.1315 -1.8342
15573TIP3    H268211   4.326   0.477   2.943 -0.2107 -0.6976  2.1780
15574TIP3   OH268212   1.984   3.186   4.791  0.1343 -0.6877  0.4227
15574TIP3    H168213   1.916   3.122   4.812 -0.2532 -1.6846 -3.4725
15574TIP3    H268214   1.937   3.260   4.752  1.0395 -0.3540 -0.0565
15575TIP3   OH268215   6.555   4.655   2.258  0.1502  0.3360 -0.1413
15575TIP3    H168216   6.502   4.591   2.306  0.5505  0.4405  0.4545
15575TIP3    H268217   6.526   4.647   2.167  1.1970 -1.6871 -0.3110
15576TIP3   OH268218   5.574   4.316   1.514 -0.2987 -0.4200 -0.4007
15576TIP3    H168219   5.623   4.234   1.527  0.3560 -0.3057 -2.0447
15576TIP3    H268220   5.493   4.288   1.472 -0.4272 -0.3050 -0.2280
15577TIP3   OH268221   5.257   1.048   0.631  1.4129 -0.0218 -0.0301
15577TIP3    H168222   5.320   1.050   0.560  1.1816 -0.9782 -0.2682
15577TIP3    H268223   5.192   1.114   0.607  0.8063 -1.0314 -1.2013
15578TIP3   OH268224   5.546   2.682   0.829  0.4702  0.3626 -0.2663
15578TIP3    H168225   5.573   2.590   0.830 -1.1480 -0.1372 -0.3855
15578TIP3    H268226   5.454   2.679   0.854  0.3776  1.9535 -0.4107
15579TIP3   OH268227   2.711   4.878  11.755 -0.5560  0.4430 -0.5273
15579TIP3    H168228   2.620   4.905  11.740 -0.7469  0.0753 -0.0578
15579TIP3    H268229   2.760   4.960  11.757 -0.7514  0.6028 -1.5700
15580TIP3   OH268230   4.415   5.139   1.824  0.0320  0.0126  0.4063
15580TIP3    H168231   4.414   5.137   1.728  1.0401  2.0342  0.3285
15580TIP3    H268232   4.506   5.121   1.848 -0.3033 -0.9149  1.0058
15581TIP3   OH268233   5.228   2.011   1.656  0.0112  0.3919 -0.0386
15581TIP3    H168234   5.150   1.955   1.654 -0.3213  0.8245  0.7570
15581TIP3    H268235   5.299   1.953   1.628 -0.3503 -0.3835  0.6194
15582TIP3   OH268236   4.013   6.107   1.929  0.4221  0.3794  0.5821
15582TIP3    H168237   4.081   6.039   1.926  1.2956  1.2027  1.7430
15582TIP3    H268238   3.940   6.065   1.975  1.5237  0.7162  2.6676
15583TIP3   OH268239   6.597   1.651   1.587  0.1202  0.1435 -0.6950
15583TIP3    H168240   6.606   1.681   1.497  0.3258 -2.1298 -1.4668
15583TIP3    H268241   6.503   1.660   1.606  0.1636  1.1556 -0.9244
15584TIP3   OH268242   1.389   0.103   0.759  0.7111  0.4695  0.0052
15584TIP3    H168243   1.331   0.176   0.781  0.9260  0.4713  0.5807
15584TIP3    H268244   1.385   0.096   0.664  0.9647  1.4636 -0.0806
15585TIP3   OH268245   1.167   2.566   1.436  0.1715  0.1046 -0.0486
15585TIP3    H168246   1.144   2.618   1.514 -2.4215 -1.3993  0.2466
15585TIP3    H268247   1.111   2.601   1.367  2.1285  1.1122 -1.1440
15586TIP3   OH268248   4.506   6.399  16.652 -0.5823 -0.5205 -0.1366
15586TIP3    H168249   4.535   6.490  16.645  0.3157 -0.7462  0.6025
15586TIP3    H268250   4.425   6.403  16.703  0.2784 -0.2905  1.2245
15587TIP3   OH268251   4.947   3.525   3.348  0.8053  0.5213  0.4691
15587TIP3    H168252   5.023   3.482   3.310  1.5198  1.1223  1.1794
15587TIP3    H268253   4.877   3.460   3.345  0.7671  0.6651 -2.1125
15588TIP3   OH268254   3.606   2.915   0.711 -0.2045  0.5312 -0.2795
15588TIP3    H168255   3.635   2.826   0.731 -0.9419  0.1639 -0.8025
15588TIP3    H268256   3.539   2.904   0.644  0.3489  1.5611 -1.0065
15589TIP3   OH268257   3.816   5.415   1.456 -0.3176 -0.2598  0.1330
15589TIP3    H168258   3.790   5.503   1.430  1.9525  0.1068 -0.9969
15589TIP3    H268259   3.733   5.369   1.470 -1.5366  2.1904  1.3031
15590TIP3   OH268260   6.077   6.231   4.443 -0.0419 -0.0347  0.2930
15590TIP3    H168261   6.046   6.307   4.492  1.9084  0.6327  0.5549
15590TIP3    H268262   6.064   6.255   4.351 -0.7645  0.0287  0.4151
15591TIP3   OH268263   4.610   2.304  12.752 -0.0331 -0.2941 -0.0896
15591TIP3    H168264   4.684   2.265  12.706 -0.4654  0.8558 -1.7974
15591TIP3    H268265   4.538   2.244  12.736 -0.4417  0.6414 -1.8300
15592TIP3   OH268266   0.212   5.989  12.352 -0.5496  0.4165  0.2429
15592TIP3    H168267   0.138   5.951  12.305 -0.4904 -0.2734  0.7042
15592TIP3    H268268   0.271   5.916  12.368 -0.7053  0.5772  1.6369
15593TIP3   OH268269   2.997   6.817   2.411  0.7603  0.1900 -0.3703
15593TIP3    H168270   2.966   6.732   2.379 -1.2710  1.4221 -1.8000
15593TIP3    H268271   3.045   6.797   2.491 -1.1188 -2.1315  0.2119
15594TIP3   OH268272   2.097   0.328  12.580 -0.3682 -0.6047 -0.4513
15594TIP3    H168273   2.024   0.280  12.541 -1.4136 -0.2117  0.9686
15594TIP3    H268274   2.077   0.420  12.563 -0.4372 -0.4760  0.3028
15595TIP3   OH268275   6.407   1.670   3.506 -0.0425 -0.2040 -0.0547
15595TIP3    H168276   6.379   1.753   3.468  1.0838  0.3205  0.2503
15595TIP3    H268277   6.451   1.624   3.433  1.6104  0.5611  0.4400
15596TIP3   OH268278   5.934   1.648  15.786 -0.6295 -0.2766 -0.3896
15596TIP3    H168279   5.994   1.722  15.790 -0.7085 -0.1390 -1.5622
15596TIP3    H268280   5.887   1.650  15.869  1.2952 -0.6530  0.7481
15597TIP3   OH268281   5.339   0.732  16.404  0.6208 -0.9009 -0.4947
15597TIP3    H168282   5.270   0.731  16.471  0.8140 -1.2422 -0.3031
15597TIP3    H268283   5.300   0.687  16.329 -1.0769  3.0029 -2.0992
15598TIP3   OH268284   2.135   4.021   6.190 -0.5065 -0.9066 -0.0096
15598TIP3    H168285   2.063   3.964   6.161  1.6324 -2.8406 -1.7760
15598TIP3    H268286   2.200   3.960   6.226 -0.8142  1.0144  4.0920
15599TIP3   OH268287   0.156   5.079   0.015  0.5763 -0.3461  0.3273
15599TIP3    H168288   0.066   5.044   0.017 -0.1961  1.6615  2.5408
15599TIP3    H268289   0.147   5.164  -0.029  1.6281 -0.6918 -0.5779
15600TIP3   OH268290   2.148   0.524   4.780 -0.2382 -0.3179  0.1274
15600TIP3    H168291   2.111   0.590   4.839  1.5851  0.6339  0.2268
15600TIP3    H268292   2.239   0.514   4.809  0.7354  0.3114 -2.6643
15601TIP3   OH268293   5.690   4.127   0.139  0.3398  0.2205 -0.3439
15601TIP3    H168294   5.679   4.032   0.130 -2.8188  0.5826 -0.7862
15601TIP3    H268295   5.703   4.140   0.233  0.8547 -0.6665 -0.2862
15602TIP3   OH268296   1.008   4.974  15.939  0.0965 -0.3875  0.3184
15602TIP3    H168297   0.926   4.994  15.894  0.2102  0.4056  0.4544
15602TIP3    H268298   1.047   5.060  15.958 -0.0699 -0.6879  2.1555
15603TIP3   OH268299   5.124   1.874   1.124  0.1083  0.5759  0.1890
15603TIP3    H168300   5.041   1.861   1.078  1.2294 -0.6880 -1.5008
15603TIP3    H268301   5.145   1.788   1.161  0.8835  0.7955  0.2682
15604TIP3   OH268302   5.097   1.747   5.184 -0.5752  0.0533 -0.4123
15604TIP3    H168303   5.140   1.663   5.199 -1.5526 -0.3780  0.0009
15604TIP3    H268304   5.092   1.787   5.271 -2.1370 -0.4505 -0.2632
15605TIP3   OH268305   2.845   3.114   2.505 -0.1432 -0.3054 -0.5594
15605TIP3    H168306   2.828   3.027   2.468 -1.1973  0.1872 -1.2421
15605TIP3    H268307   2.841   3.173   2.430  0.6779  0.3296 -0.1160
15606TIP3   OH268308   4.915   4.489  17.072  0.3377 -0.4383  0.4705
15606TIP3    H168309   4.845   4.435  17.034 -1.0210  0.6511  1.4068
15606TIP3    H268310   4.935   4.554  17.004 -1.1317  0.6476  1.0601
15607TIP3   OH268311   0.848   6.074  10.896 -0.5389  0.1762  0.3003
15607TIP3    H168312   0.871   6.151  10.845 -1.0471 -0.1870 -0.4751
15607TIP3    H268313   0.846   6.002  10.833  2.3737 -0.9497  1.3883
15608TIP3   OH268314   6.511   4.412  10.783  0.0890 -0.3431 -0.3992
15608TIP3    H168315   6.463   4.445  10.708 -1.4271 -1.6450 -0.0141
15608TIP3    H268316   6.527   4.489  10.838  0.0986  0.3940 -1.4384
15609TIP3   OH268317   1.009   4.136   1.837 -0.0128  0.4502  0.7518
15609TIP3    H168318   1.089   4.088   1.816 -0.6034 -0.7601  1.1694
15609TIP3    H268319   1.019   4.221   1.795  0.6621 -0.3815 -0.7827
15610TIP3   OH268320   3.558   4.892  14.721  0.2568 -0.5395  0.0432
15610TIP3    H168321   3.644   4.919  14.753  0.0015 -0.1066  0.3724
15610TIP3    H268322   3.497   4.928  14.785 -0.1277 -1.4280  0.1884
15611TIP3   OH268323   6.173   3.579  11.339  0.3746  0.1906 -0.4076
15611TIP3    H168324   6.124   3.514  11.288  1.3388  0.3168 -1.5283
15611TIP3    H268325   6.228   3.528  11.397 -0.7477  0.0430  0.5446
15612TIP3   OH268326   3.211   5.600   2.255 -0.3772 -0.4297  0.1417
15612TIP3    H168327   3.237   5.510   2.234 -0.4004 -0.7541  1.4417
15612TIP3    H268328   3.117   5.593   2.274 -0.3629 -0.1364  0.3120
15613TIP3   OH268329   4.113   5.398  14.334  0.3761  0.4834  0.0740
15613TIP3    H168330   4.160   5.479  14.312 -2.0011  1.8727 -0.0606
15613TIP3    H268331   4.060   5.422  14.411 -0.7606 -0.7855 -0.3120
15614TIP3   OH268332   2.954   4.450   3.178  0.6307 -0.0930 -1.1615
15614TIP3    H168333   2.865   4.483   3.169  0.0084 -1.7717 -1.1668
15614TIP3    H268334   3.008   4.514   3.131 -0.3842  1.7061  0.0767
15615TIP3   OH268335   5.749   3.898  16.850 -0.4423 -0.2914 -0.0721
15615TIP3    H168336   5.718   3.926  16.937 -1.3369 -0.7701 -0.2288
15615TIP3    H268337   5.814   3.964  16.826 -0.9582  0.4396  0.5058
15616TIP3   OH268338   5.379   6.305  12.676  0.2725  0.5875  0.1629
15616TIP3    H168339   5.429   6.359  12.614 -0.8319  0.7387 -0.6091
15616TIP3    H268340   5.381   6.356  12.757  0.5676  1.0433 -0.1202
15617TIP3   OH268341   6.485   5.333  16.572  0.1808 -0.1727 -0.8716
15617TIP3    H168342   6.438   5.413  16.549  0.4483 -0.0839 -1.1057
15617TIP3    H268343   6.439   5.263  16.526  0.7072  0.0026 -1.6664
15618TIP3   OH268344   6.053   3.697   4.352  0.0601 -0.3028  0.0577
15618TIP3    H168345   6.123   3.688   4.417  0.2884 -1.6064 -0.3478
15618TIP3    H268346   5.993   3.625   4.372 -1.0189  0.6403  0.2230
15619TIP3   OH268347   1.538   0.840  15.142 -0.5159 -0.2839 -0.2639
15619TIP3    H168348   1.593   0.816  15.216 -0.4554  0.8947  0.0879
15619TIP3    H268349   1.511   0.757  15.104  0.8207 -0.8732  0.0625
15620TIP3   OH268350   5.683   5.751   0.030 -0.4613 -0.0817 -0.6604
15620TIP3    H168351   5.682   5.838   0.070 -0.7108 -0.0758 -0.6768
15620TIP3    H268352   5.602   5.710   0.060  0.9035 -1.3098  1.5492
15621TIP3   OH268353   4.360   1.398   4.841 -0.7321 -0.5394 -0.1389
15621TIP3    H168354   4.273   1.394   4.803 -0.1513  1.5622 -1.7877
15621TIP3    H268355   4.408   1.324   4.803 -0.6702  0.5453 -2.2119
15622TIP3   OH268356   0.438   3.858   0.572 -0.0850  0.0435  0.5662
15622TIP3    H168357   0.350   3.828   0.551  0.6973 -2.0830  0.2074
15622TIP3    H268358   0.450   3.836   0.664 -0.4069  1.5951  0.9986
15623TIP3   OH268359   2.796   2.534  12.851 -0.0030  0.1996 -0.1110
15623TIP3    H168360   2.840   2.592  12.789  1.4976 -1.3738 -0.5413
15623TIP3    H268361   2.846   2.543  12.932  0.5584 -0.8857 -0.3326
15624TIP3   OH268362   3.416   6.350  11.063  0.2160 -0.1231 -0.2323
15624TIP3    H168363   3.378   6.322  10.980 -0.1689  0.2603 -0.1885
15624TIP3    H268364   3.506   6.373  11.042  0.3395 -0.7519 -0.3972
15625TIP3   OH268365   1.924   5.410  16.853 -0.5617 -0.3359  0.5586
15625TIP3    H168366   1.943   5.395  16.761 -3.7642 -1.9897  0.0996
15625TIP3    H268367   1.903   5.503  16.859 -1.8935 -0.5476 -0.6934
15626TIP3   OH268368   6.058   1.080   3.724  0.3385  0.1270 -0.1289
15626TIP3    H168369   6.044   0.999   3.675  2.2835  0.3227 -1.0785
15626TIP3    H268370   6.103   1.053   3.804 -2.8389 -0.1928  1.6337
15627TIP3   OH268371   6.350   4.092   1.237  0.5653 -0.2492  0.2475
15627TIP3    H168372   6.326   4.089   1.144 -0.6238 -1.6299  0.5754
15627TIP3    H268373   6.282   4.147   1.277  0.2695 -0.8134  0.5236
15628TIP3   OH268374   0.534   2.000  13.941 -0.0789 -0.1275 -0.2225
15628TIP3    H168375   0.611   1.944  13.948 -0.9089 -1.1575  0.9796
15628TIP3    H268376   0.465   1.942  13.909 -0.3817  0.7668 -1.2231
15629TIP3   OH268377   4.097   5.821  14.661 -0.0594  0.3086 -0.2921
15629TIP3    H168378   4.156   5.872  14.717 -0.4056 -0.0360  0.3886
15629TIP3    H268379   4.010   5.854  14.682 -0.1000  0.9074 -1.3919
15630TIP3   OH268380   0.846   5.387  10.949 -0.5929 -0.2745  0.1679
15630TIP3    H168381   0.851   5.470  10.996  0.6217 -0.4481  0.3618
15630TIP3    H268382   0.790   5.332  11.003 -1.5092  0.4497 -0.0270
15631TIP3   OH268383   2.582   3.273   3.557  0.4825  0.0325  0.3423
15631TIP3    H168384   2.558   3.295   3.467  1.2894 -0.6396 -0.0504
15631TIP3    H268385   2.555   3.349   3.608 -2.3779 -0.6303 -0.0659
15632TIP3   OH268386   1.632   0.058  16.918 -0.5541 -0.1039 -0.4104
15632TIP3    H168387   1.578   0.046  16.996 -0.5181 -1.5100 -0.5945
15632TIP3    H268388   1.721   0.040  16.947 -0.3558  0.8310 -0.4354
15633TIP3   OH268389   0.460   6.128   3.814 -0.2482 -0.4695  0.4343
15633TIP3    H168390   0.431   6.060   3.753  0.8594  0.6085 -1.3450
15633TIP3    H268391   0.554   6.116   3.821  0.1949  1.7040 -1.0210
15634TIP3   OH268392   0.055   1.298   3.700  0.2913  0.2700 -0.1511
15634TIP3    H168393   0.127   1.294   3.638 -0.0866 -0.6259 -0.5334
15634TIP3    H268394  -0.009   1.357   3.659 -0.1663 -0.6967 -0.8349
15635TIP3   OH268395   3.325   0.011   5.569  0.5592  0.3948 -0.5417
15635TIP3    H168396   3.316   0.104   5.592 -1.3377  0.6575 -2.2265
15635TIP3    H268397   3.416   0.003   5.540  0.8731  1.6395  0.0388
15636TIP3   OH268398   4.409   0.094  15.390  0.0714 -0.0662  0.3777
15636TIP3    H168399   4.452   0.042  15.322  2.0052 -0.4130  1.8215
15636TIP3    H268400   4.338   0.038  15.422 -0.3611 -0.2042 -0.8236
15637TIP3   OH268401   1.452   6.337   0.609 -0.1964 -0.5691 -0.9388
15637TIP3    H168402   1.398   6.415   0.623  1.8247  0.4237  1.7013
15637TIP3    H268403   1.400   6.264   0.643  0.7368  0.5877  3.1482
15638TIP3   OH268404   5.575   5.039  11.290  0.3356  0.7928  0.1885
15638TIP3    H168405   5.493   5.006  11.255  1.1327  1.6549 -2.5742
15638TIP3    H268406   5.623   4.961  11.318 -0.7891  0.1801  0.4089
15639TIP3   OH268407   5.328   6.736  11.085 -0.4158 -0.2189  0.2353
15639TIP3    H168408   5.255   6.689  11.044 -1.3060  1.0344  0.3657
15639TIP3    H268409   5.379   6.770  11.011 -0.7523  0.1191  0.1624
15640TIP3   OH268410   1.396   0.191  16.771 -0.1386  0.1250  0.3587
15640TIP3    H168411   1.473   0.163  16.821 -0.5198 -0.5539  0.5838
15640TIP3    H268412   1.329   0.126  16.793 -1.0191  1.1476  0.7887
15641TIP3   OH268413   3.960   3.043   3.813  0.8213 -0.0128  0.1798
15641TIP3    H168414   3.930   2.965   3.861  0.2038 -0.8616 -1.5461
15641TIP3    H268415   3.882   3.097   3.804  0.6041 -0.5102 -1.0712
15642TIP3   OH268416   4.819   1.971  16.711 -0.2604 -0.7722 -0.3014
15642TIP3    H168417   4.782   1.883  16.710 -1.3398 -0.3287 -1.1548
15642TIP3    H268418   4.846   1.985  16.802 -2.2999 -1.0970  0.3816
15643TIP3   OH268419   6.170   3.045  11.752 -0.1106  0.5314  0.4434
15643TIP3    H168420   6.264   3.062  11.741 -0.1315 -0.1744 -0.9418
15643TIP3    H268421   6.128   3.096  11.684 -0.4243 -2.0830 -1.4114
15644TIP3   OH268422   3.438   2.339   4.644  0.3272  0.2389  0.8534
15644TIP3    H168423   3.413   2.415   4.696 -0.1132  0.1423  0.7884
15644TIP3    H268424   3.361   2.283   4.646  0.1520  0.4220 -0.2363
15645TIP3   OH268425   1.668   2.725   1.259  0.2744 -0.3790  0.1624
15645TIP3    H168426   1.647   2.788   1.190  1.2884 -0.2576 -0.0311
15645TIP3    H268427   1.714   2.776   1.326 -0.1036 -0.6375  0.6273
15646TIP3   OH268428   3.127   4.239  11.114 -0.4410  0.5600 -0.0795
15646TIP3    H168429   3.190   4.300  11.076  2.1729 -0.7866  1.9631
15646TIP3    H268430   3.139   4.158  11.065 -1.5998  0.6987 -0.6135
15647TIP3   OH268431   1.122   0.922   1.925  0.4156  0.0642 -0.1163
15647TIP3    H168432   1.111   0.965   2.010  2.2143  0.5856 -0.1263
15647TIP3    H268433   1.212   0.942   1.899  1.1181 -3.1971 -0.4281
15648TIP3   OH268434   5.296   0.426   0.740  0.1963  0.0104 -0.6605
15648TIP3    H168435   5.289   0.345   0.790 -0.2911 -0.5172 -1.5713
15648TIP3    H268436   5.356   0.481   0.791 -0.2212 -0.5481  0.4518
15649TIP3   OH268437   1.947   0.564   1.810 -0.1756 -0.0009  0.8740
15649TIP3    H168438   1.981   0.492   1.756 -2.7856 -0.3043 -0.4479
15649TIP3    H268439   1.935   0.636   1.748 -1.0109  0.4002  1.4959
15650TIP3   OH268440   2.375   6.600   1.936 -0.5722 -0.1182  0.5320
15650TIP3    H168441   2.325   6.602   1.855 -0.4758  1.9141  0.4805
15650TIP3    H268442   2.378   6.692   1.964  1.4535 -0.4647  1.5440
15651TIP3   OH268443   0.313   2.319  14.998  0.0868  0.3627  0.0376
15651TIP3    H168444   0.293   2.229  14.972  1.4121 -0.6156  2.3019
15651TIP3    H268445   0.242   2.343  15.058 -1.3948  1.5979 -2.1465
15652TIP3   OH268446   5.733   4.034   4.647  0.1147  0.1305  0.1377
15652TIP3    H168447   5.827   4.027   4.665 -0.3517 -3.3234  1.6483
15652TIP3    H268448   5.691   4.006   4.728 -2.2339  1.7967 -0.4685
15653TIP3   OH268449   4.672   1.414   0.772  0.1056 -0.0287  0.2253
15653TIP3    H168450   4.750   1.367   0.743  0.2967  0.8805 -0.7798
15653TIP3    H268451   4.605   1.346   0.783  0.5517 -0.6087 -0.5975
15654TIP3   OH268452   2.947   2.045  13.050 -0.6228  0.1686 -0.5717
15654TIP3    H168453   2.967   2.025  13.142  1.6956 -0.5533 -1.2065
15654TIP3    H268454   2.852   2.037  13.045 -0.5756 -2.2969  1.1953
15655TIP3   OH268455   5.813   3.240  16.047 -0.2232 -0.2439  0.4098
15655TIP3    H168456   5.837   3.148  16.061 -1.2411 -0.5305  0.2895
15655TIP3    H268457   5.719   3.238  16.030 -0.2227  0.8108  0.2670
15656TIP3   OH268458   6.791   3.515   2.320  0.1219 -0.1867 -0.6069
15656TIP3    H168459   6.840   3.433   2.325  0.5270  0.1998  2.9257
15656TIP3    H268460   6.856   3.583   2.338 -0.7580  0.7040 -0.7354
15657TIP3   OH268461   2.093   5.862   4.914  0.2203 -0.4350 -0.3330
15657TIP3    H168462   2.081   5.769   4.897 -1.0700 -0.1694 -0.8910
15657TIP3    H268463   2.049   5.906   4.842 -1.1091  0.6328  1.1137
15658TIP3   OH268464   3.784   3.093   4.324  0.0577  0.2566 -0.6121
15658TIP3    H168465   3.695   3.084   4.358  0.0383  1.9891 -0.1547
15658TIP3    H268466   3.838   3.036   4.380 -0.6088 -0.0513 -0.2822
15659TIP3   OH268467   3.637   4.796  12.873  0.2055 -0.1954  0.4294
15659TIP3    H168468   3.546   4.785  12.844  0.1106  0.9836  0.2887
15659TIP3    H268469   3.629   4.831  12.962  0.5295  1.6654 -0.2670
15660TIP3   OH268470   3.772   1.745  12.783  0.0875  0.1663  0.0062
15660TIP3    H168471   3.718   1.694  12.843 -0.9651 -0.7500 -1.7033
15660TIP3    H268472   3.773   1.695  12.702  2.5760  0.7506 -0.3613
15661TIP3   OH268473   1.315   0.984  17.009  0.0530 -0.6369 -1.0387
15661TIP3    H168474   1.269   0.901  16.990 -0.7348 -0.5855  0.5514
15661TIP3    H268475   1.347   0.973  17.099  0.1372  0.7032 -0.9074
15662TIP3   OH268476   1.856   4.411   5.923 -0.4484  0.0131  0.0030
15662TIP3    H168477   1.858   4.325   5.965 -2.2476  0.0667  0.2360
15662TIP3    H268478   1.863   4.473   5.996  2.0817  0.0813 -0.2583
15663TIP3   OH268479   1.999   5.775   2.524  0.1141  0.0817 -0.1432
15663TIP3    H168480   2.043   5.860   2.529  0.8239 -0.2595 -0.4594
15663TIP3    H268481   2.055   5.716   2.574 -1.2512  0.1467  1.4837
15664TIP3   OH268482   1.163   1.050   5.132 -0.0592  0.0792 -0.3501
15664TIP3    H168483   1.090   0.995   5.105 -0.8960 -0.2651  2.3763
15664TIP3    H268484   1.232   0.988   5.154 -0.2753  0.1986  0.6979
15665TIP3   OH268485   2.222   4.230   1.369  0.4084  0.3411  0.4277
15665TIP3    H168486   2.199   4.191   1.453 -0.2473  0.9276  0.5191
15665TIP3    H268487   2.217   4.324   1.384  1.6806  0.4733  0.1199
15666TIP3   OH268488   0.050   5.411   2.813  0.8056 -0.1081 -0.2017
15666TIP3    H168489   0.015   5.483   2.865  2.2373  0.3417  0.1532
15666TIP3    H268490   0.135   5.392   2.852  1.3464 -0.6101 -1.5929
15667TIP3   OH268491   6.305   1.667   0.032 -0.4305  0.9563  0.4421
15667TIP3    H168492   6.212   1.678   0.009 -0.2656 -0.0124 -0.7233
15667TIP3    H268493   6.350   1.667  -0.053  0.6369  1.3863  1.0028
15668TIP3   OH268494   4.111   6.504  11.323  0.7445  0.0120 -0.0905
15668TIP3    H168495   4.159   6.565  11.267  2.7057 -0.3361  1.1638
15668TIP3    H268496   4.165   6.425  11.325  0.2150 -0.3385  1.4624
15669TIP3   OH268497   6.677   5.764  13.646  0.2585  0.1341 -0.0223
15669TIP3    H168498   6.692   5.768  13.740  3.1564  1.7829 -0.5131
15669TIP3    H268499   6.756   5.800  13.607 -0.5341 -1.3366 -3.1354
15670TIP3   OH268500   0.327   3.357   1.270  0.2634  0.1884  0.2138
15670TIP3    H168501   0.232   3.342   1.277 -0.0036  1.4745 -0.6153
15670TIP3    H268502   0.348   3.410   1.347 -0.0618  1.6490 -0.6871
15671TIP3   OH268503   0.600   2.474   3.081  0.4531 -0.4463 -0.5595
15671TIP3    H168504   0.633   2.387   3.102  0.0628 -0.2251  1.0658
15671TIP3    H268505   0.534   2.492   3.148 -1.0016  0.2415 -2.1348
15672TIP3   OH268506   5.812   3.299   3.339  0.6358  0.2373  0.6214
15672TIP3    H168507   5.743   3.331   3.281  0.6910 -0.1556  0.3371
15672TIP3    H268508   5.765   3.244   3.402  0.8373 -0.9378 -0.2518
15673TIP3   OH268509   6.192   5.937   0.666 -0.3592  0.1185 -0.2975
15673TIP3    H168510   6.115   5.979   0.704  0.4122  2.6580 -1.4267
15673TIP3    H268511   6.171   5.929   0.573 -0.8758 -2.9661  0.0237
15674TIP3   OH268512   2.477   0.548   6.407 -0.1475 -0.2525  0.3102
15674TIP3    H168513   2.533   0.575   6.480 -0.2958  0.2290  0.2489
15674TIP3    H268514   2.413   0.489   6.446 -0.4468  0.2859  0.6353
15675TIP3   OH268515   5.071   0.890  12.647 -0.1446  0.1993  0.5926
15675TIP3    H168516   5.156   0.902  12.604  0.2578 -2.2067  0.6592
15675TIP3    H268517   5.025   0.826  12.592 -0.8398 -0.5544  2.0246
15676TIP3   OH268518   0.672   4.909   1.290  0.6248 -0.4419  0.1641
15676TIP3    H168519   0.689   4.909   1.196  1.5967  1.1897  0.3177
15676TIP3    H268520   0.754   4.939   1.329  0.2110 -1.0767  1.5229
15677TIP3   OH268521   4.326   0.998   0.373  0.2059 -0.3463  0.3317
15677TIP3    H168522   4.247   1.049   0.392  0.4773  0.1415  0.1581
15677TIP3    H268523   4.389   1.062   0.342  1.5298 -0.3335  2.9064
15678TIP3   OH268524   0.325   2.011  14.420 -0.7114 -0.4135 -0.3841
15678TIP3    H168525   0.300   1.951  14.349  0.0938 -0.5934 -0.5231
15678TIP3    H268526   0.420   2.019  14.412 -0.3835 -1.7430  1.6991
15679TIP3   OH268527   0.250   4.649   3.121 -0.3931  0.0053 -0.4566
15679TIP3    H168528   0.346   4.646   3.117 -0.4807 -1.1247 -1.8165
15679TIP3    H268529   0.229   4.601   3.201  0.1956  0.7226  0.1386
15680TIP3   OH268530   4.261   3.830  12.795  0.2859 -0.1355 -0.3906
15680TIP3    H168531   4.229   3.791  12.877 -1.1250  0.5159 -0.6350
15680TIP3    H268532   4.259   3.758  12.732  0.1831 -0.3243 -0.1724
15681TIP3   OH268533   0.746   0.656   4.844  0.0080 -0.1351  0.0863
15681TIP3    H168534   0.763   0.599   4.769  1.6092 -0.4195  0.6595
15681TIP3    H268535   0.761   0.599   4.920 -1.4748  0.1843  0.6345
15682TIP3   OH268536   2.455   5.745  15.216  0.1108 -0.0315  0.5134
15682TIP3    H168537   2.530   5.722  15.271 -0.0158 -0.6664  0.4232
15682TIP3    H268538   2.395   5.791  15.275  0.2110 -0.2398  0.7812
15683TIP3   OH268539   3.942   0.065  15.934 -0.6150 -0.1760  0.3102
15683TIP3    H168540   3.988   0.019  16.004 -1.2078 -1.3580 -0.0480
15683TIP3    H268541   4.001   0.059  15.859 -0.3042  0.4356  0.5034
15684TIP3   OH268542   0.918   0.294   1.829  0.2030  0.2529 -0.6922
15684TIP3    H168543   0.841   0.346   1.807  0.7220  1.1740 -0.3470
15684TIP3    H268544   0.990   0.340   1.787  0.5934 -0.5468 -0.9206
15685TIP3   OH268545   2.519   2.073  10.970 -0.0962  0.4549  0.5368
15685TIP3    H168546   2.543   2.019  10.895 -0.5880 -0.2935  0.9132
15685TIP3    H268547   2.459   2.138  10.935 -0.4657 -0.0072  0.3124
15686TIP3   OH268548   4.823   6.254   4.942 -0.0904 -0.1135  0.2711
15686TIP3    H168549   4.820   6.196   5.019 -0.8184 -2.2981 -1.3475
15686TIP3    H268550   4.751   6.316   4.956  1.2220  1.0025  2.4329
15687TIP3   OH268551   3.542   3.148  13.813 -0.0364 -0.0415  0.8242
15687TIP3    H168552   3.572   3.227  13.857  1.6053 -0.5222  0.6152
15687TIP3    H268553   3.613   3.125  13.753 -2.3099  0.7230 -2.2957
15688TIP3   OH268554   1.015   2.659   0.442  0.3564  0.1887 -0.1517
15688TIP3    H168555   1.109   2.651   0.425 -0.0889  1.2473 -3.4620
15688TIP3    H268556   0.985   2.569   0.456  1.9772 -0.0827  1.9553
15689TIP3   OH268557   5.579   6.556   5.980  0.7202  0.8241 -0.5663
15689TIP3    H168558   5.615   6.565   6.068 -1.7859 -3.0777  0.9663
15689TIP3    H268559   5.504   6.616   5.978 -0.6513 -0.8277  0.7992
15690TIP3   OH268560   0.760   1.947  17.005  0.7733  0.9868 -0.2328
15690TIP3    H168561   0.739   2.037  17.032  1.9566  1.3247 -0.4387
15690TIP3    H268562   0.707   1.934  16.926 -0.5872  0.9536  0.6626
15691TIP3   OH268563   5.903   3.790  14.196  0.1872 -0.2062 -0.6681
15691TIP3    H168564   5.971   3.856  14.212  0.3485 -0.9520  1.9660
15691TIP3    H268565   5.951   3.708  14.183 -0.1493 -0.8583  1.8291
15692TIP3   OH268566   4.661   3.333  12.488  0.5099  0.1277 -0.3977
15692TIP3    H168567   4.747   3.347  12.529  1.2795  0.6852 -2.1415
15692TIP3    H268568   4.612   3.413  12.509  1.2183  0.8141 -1.3386
15693TIP3   OH268569   3.505   4.797   2.924 -0.0082  0.3756  0.2398
15693TIP3    H168570   3.481   4.800   2.831  0.2468  0.5254  0.1817
15693TIP3    H268571   3.424   4.769   2.968 -0.0189 -0.0940 -0.0691
15694TIP3   OH268572   3.885   2.277  15.124 -0.1385 -0.8048 -0.2447
15694TIP3    H168573   3.957   2.215  15.117 -0.5695 -1.2669 -0.6231
15694TIP3    H268574   3.923   2.361  15.096 -0.8754 -1.8865 -4.8664
15695TIP3   OH268575   2.618   3.762   4.387 -0.0205 -0.4302  0.1914
15695TIP3    H168576   2.612   3.780   4.481  2.5182 -1.5511  0.6324
15695TIP3    H268577   2.652   3.843   4.349 -0.4651 -0.1744  0.3461
15696TIP3   OH268578   2.527   2.027   0.537 -0.3869  0.4674 -0.6974
15696TIP3    H168579   2.518   2.086   0.612 -2.0367 -0.3885 -0.1999
15696TIP3    H268580   2.462   2.059   0.473 -0.6562 -0.2527 -0.7858
15697TIP3   OH268581   6.584   1.368  15.850  0.3638 -0.0996  0.1728
15697TIP3    H168582   6.537   1.437  15.803 -0.6000 -1.6105 -1.1641
15697TIP3    H268583   6.532   1.353  15.929  1.0063  1.2257  0.8592
15698TIP3   OH268584   4.242   0.808  10.858 -0.3036  0.4744 -0.1105
15698TIP3    H168585   4.258   0.884  10.802 -1.5577  0.2337 -0.8049
15698TIP3    H268586   4.173   0.836  10.918  0.3791  0.4202  0.7136
15699TIP3   OH268587   2.990   3.991   2.045 -0.0805 -0.1126 -0.7959
15699TIP3    H168588   2.910   3.950   2.012  0.3031 -0.5595 -1.1870
15699TIP3    H268589   2.986   3.979   2.140 -0.1262 -0.7798 -0.8776
15700TIP3   OH268590   4.372   0.970   4.546  0.4813 -0.0790 -0.4924
15700TIP3    H168591   4.417   1.013   4.473  2.0549  0.8778  1.0085
15700TIP3    H268592   4.282   1.000   4.539 -0.2164 -2.5514 -3.9604
15701TIP3   OH268593   0.276   3.956   1.149  0.7345 -0.6393  0.0886
15701TIP3    H168594   0.313   4.037   1.187  0.9987 -0.9928  0.5998
15701TIP3    H268595   0.306   3.957   1.058 -1.8770  1.4220 -0.8366
15702TIP3   OH268596   3.934   1.607   1.759 -0.1709  0.0696  0.2677
15702TIP3    H168597   3.839   1.607   1.760 -0.2115 -2.0548  0.0565
15702TIP3    H268598   3.959   1.539   1.822  1.1123 -1.5632 -1.9258
15703TIP3   OH268599   4.382   0.532  11.269  0.0171  0.4104  0.0226
15703TIP3    H168600   4.302   0.502  11.313 -0.0886 -0.6851 -0.8964
15703TIP3    H268601   4.440   0.557  11.341  0.4758 -2.9576  0.9184
15704TIP3   OH268602   0.737   4.452   5.204  0.4440 -0.2171 -0.5548
15704TIP3    H168603   0.674   4.461   5.276  0.2729 -0.5559 -0.6619
15704TIP3    H268604   0.742   4.539   5.165 -1.2978 -0.6064 -1.6666
15705TIP3   OH268605   5.658   5.790   1.913 -0.4468 -0.2299 -0.0882
15705TIP3    H168606   5.584   5.850   1.910 -1.1925 -0.9378  2.5476
15705TIP3    H268607   5.620   5.706   1.938  0.8495 -1.3597 -1.7934
15706TIP3   OH268608   2.288   3.932   0.658  0.3388 -0.0469 -0.2014
15706TIP3    H168609   2.223   3.868   0.632  1.1147 -0.6437 -0.7114
15706TIP3    H268610   2.340   3.888   0.725  0.0848  0.4950  0.3536
15707TIP3   OH268611   3.606   0.862   2.275  0.7044  0.3266 -0.5620
15707TIP3    H168612   3.555   0.939   2.302 -0.0621 -0.2338 -0.3926
15707TIP3    H268613   3.567   0.836   2.192  0.2571 -0.5365 -0.0767
15708TIP3   OH268614   1.893   2.649  14.529 -0.2146  0.0275 -0.0426
15708TIP3    H168615   1.950   2.650  14.452 -1.5199  1.3058 -1.0102
15708TIP3    H268616   1.844   2.568  14.522 -0.0657 -0.0350 -0.3593
15709TIP3   OH268617   3.777   1.195   6.406 -0.4854  0.0287  0.3116
15709TIP3    H168618   3.682   1.190   6.396 -0.4393 -0.3732  0.0702
15709TIP3    H268619   3.811   1.191   6.317 -0.3107  1.8208  0.2798
15710TIP3   OH268620   6.084   0.800  13.286 -0.4319  0.1840 -0.0591
15710TIP3    H168621   6.066   0.711  13.317 -2.6128  0.6271  0.0288
15710TIP3    H268622   6.014   0.818  13.223 -0.2752  1.9919  0.2580
15711TIP3   OH268623   2.555   1.140  12.680 -0.3705 -0.2970 -0.5491
15711TIP3    H168624   2.502   1.185  12.745  0.4863  2.1143 -1.4841
15711TIP3    H268625   2.511   1.056  12.667 -2.3013  0.4807  0.8192
15712TIP3   OH268626   3.491   5.969  11.557 -0.1121  0.1321  0.2962
15712TIP3    H168627   3.541   5.952  11.636  0.2167 -0.2441  0.0102
15712TIP3    H268628   3.549   6.023  11.503 -0.3330  0.3837  0.3076
15713TIP3   OH268629   2.967   0.845   2.465 -0.0221 -0.4481  0.1398
15713TIP3    H168630   2.984   0.751   2.476  1.0465 -0.2928 -0.1249
15713TIP3    H268631   3.007   0.886   2.541  0.9704 -0.0595 -0.5794
15714TIP3   OH268632   5.685   0.790  14.162 -0.0642  0.1422 -0.2557
15714TIP3    H168633   5.767   0.836  14.183  1.1204 -1.0525 -2.1627
15714TIP3    H268634   5.685   0.784  14.067 -2.6983  0.6531 -0.3047
15715TIP3   OH268635   4.746   2.563  14.314 -0.0993  0.2708 -0.0075
15715TIP3    H168636   4.749   2.656  14.336 -0.9000  0.9331 -2.5240
15715TIP3    H268637   4.835   2.532  14.330 -0.0057  1.2796  1.5364
15716TIP3   OH268638   1.107   3.056   3.103  0.5938 -0.4088 -0.1433
15716TIP3    H168639   1.111   2.986   3.039 -1.7626  0.6183 -1.4601
15716TIP3    H268640   1.036   3.031   3.162  0.2969  0.4568 -0.1298
15717TIP3   OH268641   6.719   6.218   1.603 -0.5518 -0.4735 -0.2048
15717TIP3    H168642   6.634   6.252   1.576 -0.0501 -0.5766 -1.9506
15717TIP3    H268643   6.724   6.131   1.564  0.5604 -0.2793 -0.5202
15718TIP3   OH268644   1.374   0.228   3.533 -0.6387  0.1981 -0.1280
15718TIP3    H168645   1.332   0.310   3.509 -0.6151  0.3898  0.4899
15718TIP3    H268646   1.468   0.249   3.535 -0.7895  0.8167  2.5410
15719TIP3   OH268647   1.853   1.464   4.721 -0.7611  0.4705  0.1386
15719TIP3    H168648   1.896   1.418   4.793 -0.8639 -0.4918 -0.4072
15719TIP3    H268649   1.773   1.413   4.705 -1.2235  1.2403 -0.0140
15720TIP3   OH268650   1.478   4.251  11.415 -0.0488 -0.3808 -0.4163
15720TIP3    H168651   1.521   4.167  11.401 -0.7614 -1.1152  1.6519
15720TIP3    H268652   1.524   4.289  11.491  0.1214  0.9939 -1.1956
15721TIP3   OH268653   5.306   3.517  14.188 -0.1790  0.1302  0.6559
15721TIP3    H168654   5.312   3.484  14.098  2.9316 -0.4210  1.0291
15721TIP3    H268655   5.220   3.559  14.192  0.0783  1.1623 -2.9274
15722TIP3   OH268656   3.571   3.958  16.368  0.2630  0.2673 -0.1871
15722TIP3    H168657   3.624   3.879  16.377 -1.7137 -1.2262 -1.3120
15722TIP3    H268658   3.529   3.950  16.282 -2.8261  0.7215  1.1982
15723TIP3   OH268659   5.440   5.133   4.505  0.0495  0.0027 -0.2903
15723TIP3    H168660   5.409   5.221   4.483 -0.0250 -0.3425 -1.5965
15723TIP3    H268661   5.364   5.077   4.491  0.1069 -0.2879  0.5174
15724TIP3   OH268662   0.816   4.765   4.871  0.5205  0.0011 -0.0624
15724TIP3    H168663   0.786   4.815   4.795  1.4292 -0.1841 -0.5516
15724TIP3    H268664   0.742   4.710   4.894 -0.1656  0.8957 -0.1013
15725TIP3   OH268665   4.691   1.631  12.230  0.2851 -0.6113 -0.2225
15725TIP3    H168666   4.746   1.708  12.224 -2.7366  1.6591 -0.0448
15725TIP3    H268667   4.628   1.640  12.159 -1.6044 -1.6397  1.2370
15726TIP3   OH268668   3.608   6.164   4.054 -0.7534  0.0836  0.1566
15726TIP3    H168669   3.692   6.171   4.008  0.0734 -0.7655  1.5062
15726TIP3    H268670   3.552   6.230   4.013  0.3045  0.0668 -1.3383
15727TIP3   OH268671   3.792   5.538   5.492  0.1475 -0.8421  0.0759
15727TIP3    H168672   3.714   5.548   5.546 -1.1600  0.5809 -1.9919
15727TIP3    H268673   3.760   5.496   5.411  1.3167  0.7179 -1.2313
15728TIP3   OH268674   5.914   5.155   2.543 -0.0483 -0.2725 -0.0834
15728TIP3    H168675   5.983   5.114   2.595  0.0256  1.6709  1.4162
15728TIP3    H268676   5.855   5.083   2.520  1.2721 -1.5823  0.5248
15729TIP3   OH268677   5.353   4.698   4.681  0.0756  0.2181 -0.3337
15729TIP3    H168678   5.386   4.616   4.716 -0.1311  0.4298  0.3810
15729TIP3    H268679   5.271   4.713   4.728  0.0171  0.7389 -0.5911
15730TIP3   OH268680   2.580   5.428   4.343 -0.0569 -0.3081  0.3842
15730TIP3    H168681   2.503   5.452   4.395 -0.6583 -1.4167  0.0249
15730TIP3    H268682   2.604   5.509   4.298  0.5684  0.7231  2.4833
15731TIP3   OH268683   0.521   1.130   0.257 -0.7021 -0.2589 -0.2535
15731TIP3    H168684   0.597   1.113   0.202 -1.0940  1.0855 -1.2394
15731TIP3    H268685   0.446   1.111   0.200 -1.1010 -0.1666  0.2414
15732TIP3   OH268686   4.195   0.477   2.335 -0.3792  0.7208 -0.1671
15732TIP3    H168687   4.179   0.434   2.418  0.2064 -0.2981 -0.5710
15732TIP3    H268688   4.121   0.452   2.279 -0.1623  0.4318 -0.3260
15733TIP3   OH268689   2.459   1.387   3.054  0.4929  0.0237  0.1161
15733TIP3    H168690   2.509   1.456   3.097 -0.4127 -0.2977  1.7276
15733TIP3    H268691   2.457   1.315   3.118 -0.3277 -0.7067 -0.7157
15734TIP3   OH268692   0.397   5.154   5.753 -0.5645  0.1329 -0.0739
15734TIP3    H168693   0.350   5.108   5.822 -0.5580  0.5196  0.1891
15734TIP3    H268694   0.481   5.179   5.793 -0.4054  0.0218 -0.3374
15735TIP3   OH268695   5.741   5.744  17.064 -0.6460  0.3507  0.3366
15735TIP3    H168696   5.813   5.682  17.054 -1.7748 -0.7281 -1.3774
15735TIP3    H268697   5.717   5.739  17.157 -0.2897 -1.2835  0.3482
15736TIP3   OH268698   3.090   5.561   0.404  0.2767  0.4521 -0.0126
15736TIP3    H168699   3.140   5.622   0.351 -1.9983  0.9018 -1.7058
15736TIP3    H268700   3.021   5.614   0.444  0.6257 -0.2984  1.6649
15737TIP3   OH268701   5.942   4.796   4.936 -0.2177  0.2684 -0.2252
15737TIP3    H168702   6.016   4.856   4.938 -1.6762  2.0903  0.8992
15737TIP3    H268703   5.873   4.844   4.890 -1.1984 -0.7868  0.1184
15738TIP3   OH268704   4.765   2.860  17.254  0.3170  0.5992 -0.8605
15738TIP3    H168705   4.687   2.815  17.221  0.9888 -0.3267 -1.1695
15738TIP3    H268706   4.748   2.871  17.348 -0.8509  1.7504 -1.1918
15739TIP3   OH268707   6.215   0.950  16.949  0.3890 -0.0445 -0.4208
15739TIP3    H168708   6.278   1.014  16.982 -0.3675 -0.0640  1.0637
15739TIP3    H268709   6.164   0.998  16.884  0.2005  0.6991  0.2746
15740TIP3   OH268710   1.682   3.039   4.450  0.1660  0.5058 -0.5786
15740TIP3    H168711   1.768   3.007   4.478  0.1046 -0.0968 -1.0678
15740TIP3    H268712   1.625   3.023   4.525  0.4366  0.7312 -0.3218
15741TIP3   OH268713   1.805   3.281   4.512  0.2642  0.9644  0.0110
15741TIP3    H168714   1.759   3.198   4.501 -0.5795  1.5303 -0.9118
15741TIP3    H268715   1.836   3.303   4.424  2.0399  0.7476  0.5764
15742TIP3   OH268716   4.268   3.510  14.959  0.4672  0.1950 -0.0529
15742TIP3    H168717   4.178   3.480  14.954  0.6253 -0.2924  0.0125
15742TIP3    H268718   4.297   3.515  14.868  0.7628 -0.8247 -0.0119
15743TIP3   OH268719   2.687   0.712   2.627  0.3121 -0.0548  0.2727
15743TIP3    H168720   2.655   0.748   2.710 -0.6142 -0.2225 -0.0067
15743TIP3    H268721   2.703   0.619   2.645  2.0557  0.3279  0.8079
15744TIP3   OH268722   2.928   6.542   2.378  0.3926 -0.4644  0.4795
15744TIP3    H168723   2.876   6.461   2.378 -0.9400  0.3683 -0.4186
15744TIP3    H268724   3.004   6.520   2.324 -0.2139 -0.9817 -0.1886
15745TIP3   OH268725   2.390   1.984  11.694 -0.1895 -0.3925  0.4133
15745TIP3    H168726   2.470   2.011  11.648  0.4453 -1.7002  0.7412
15745TIP3    H268727   2.337   2.064  11.698  1.6926  0.8454  1.3896
15746TIP3   OH268728   3.399   0.013  14.499 -0.2630 -0.7662 -0.1866
15746TIP3    H168729   3.489  -0.000  14.529  0.4810  2.0098 -1.0754
15746TIP3    H268730   3.404   0.007  14.404 -1.1582 -1.2708 -0.2109
15747TIP3   OH268731   6.227   5.811   4.407  0.0154 -0.1092 -0.0587
15747TIP3    H168732   6.259   5.749   4.341 -0.5143  0.4831 -0.8849
15747TIP3    H268733   6.305   5.858   4.436  0.2842 -0.5338 -0.1002
15748TIP3   OH268734   1.490   5.376   4.796 -0.2957 -0.0433 -0.8792
15748TIP3    H168735   1.476   5.353   4.888  0.8337  2.3391 -0.0724
15748TIP3    H268736   1.402   5.379   4.759 -1.0451  2.1382  0.9527
15749TIP3   OH268737   4.418   4.887   1.541 -0.0604 -0.8092 -0.0259
15749TIP3    H168738   4.413   4.792   1.547  0.5994 -0.7941  0.9414
15749TIP3    H268739   4.498   4.903   1.491 -1.2718 -0.7881 -1.9991
15750TIP3   OH268740   4.082   5.453  17.201  0.2847  0.1698  0.2666
15750TIP3    H168741   4.175   5.473  17.212 -0.0935  1.6383  0.9850
15750TIP3    H268742   4.054   5.420  17.286  0.0073  0.3542  0.2486
15751TIP3   OH268743   4.840   6.080  12.691  0.2794 -0.3815  0.2935
15751TIP3    H168744   4.909   6.116  12.636 -0.2031  1.2991  0.7297
15751TIP3    H268745   4.777   6.043  12.629  0.2183  0.6077 -0.2538
15752TIP3   OH268746   3.581   6.401   0.191 -0.1685 -0.5084  0.2345
15752TIP3    H168747   3.611   6.406   0.282 -1.7139 -1.7527  0.8208
15752TIP3    H268748   3.582   6.492   0.161  2.7455 -0.3258  0.6733
15753TIP3   OH268749   4.370   4.436  16.164  0.3258 -0.1749 -0.1242
15753TIP3    H168750   4.449   4.434  16.110 -0.9473  2.2518 -2.1410
15753TIP3    H268751   4.326   4.353  16.145  1.5836 -0.8390 -0.1908
15754TIP3   OH268752   0.228   3.051   3.984  0.6156 -0.0166 -0.1202
15754TIP3    H168753   0.272   3.135   3.991  0.8990 -0.2574  0.9556
15754TIP3    H268754   0.257   3.016   3.899  0.5753  0.9144 -0.5200
15755TIP3   OH268755   2.220   1.165  14.172 -0.2308 -0.4561 -0.1752
15755TIP3    H168756   2.197   1.247  14.126  0.5017 -0.1125  0.0630
15755TIP3    H268757   2.155   1.157  14.241  0.7580  0.8869  0.9451
15756TIP3   OH268758   0.174   1.771  11.493  0.0153  0.4851 -0.6905
15756TIP3    H168759   0.251   1.802  11.446  0.5384  0.5310  0.1797
15756TIP3    H268760   0.116   1.737  11.425  0.8504  0.3471 -1.3376
15757TIP3   OH268761   3.817   4.595  15.651 -0.3216 -0.0077 -0.4833
15757TIP3    H168762   3.796   4.687  15.634 -2.4223 -0.1752  1.0111
15757TIP3    H268763   3.899   4.598  15.701 -0.8212  1.1118  0.2988
15758TIP3   OH268764   1.719   5.586   1.653  0.0802  0.2247 -0.4386
15758TIP3    H168765   1.737   5.510   1.598  0.1628 -0.2861  0.2938
15758TIP3    H268766   1.626   5.579   1.674  0.5192 -0.7505  1.2459
15759TIP3   OH268767   0.752   2.459   0.729  0.2870 -0.3159  0.4565
15759TIP3    H168768   0.783   2.548   0.745 -0.9426  0.0014  1.1312
15759TIP3    H268769   0.687   2.444   0.798 -0.4766 -1.2542 -0.4645
15760TIP3   OH268770   2.893   1.565   4.232 -0.2810 -0.4434 -0.1422
15760TIP3    H168771   2.973   1.600   4.194  0.0529 -0.7272  0.3054
15760TIP3    H268772   2.922   1.510   4.304 -0.7962 -1.6428 -0.8300
15761TIP3   OH268773   5.717   6.581   2.180 -0.6036  0.1137  0.1827
15761TIP3    H168774   5.651   6.540   2.124 -0.2540  1.1096 -0.9655
15761TIP3    H268775   5.707   6.537   2.265 -0.6822 -1.8523 -0.8405
15762TIP3   OH268776   3.362   1.014  15.139 -0.6542  0.2854 -0.0316
15762TIP3    H168777   3.289   1.054  15.186 -0.2942  0.3158  0.5150
15762TIP3    H268778   3.427   1.084  15.131 -0.6696  0.2475 -0.4762
15763TIP3   OH268779   4.610   2.263   2.111 -0.2541  0.1675  0.2342
15763TIP3    H168780   4.640   2.341   2.157 -0.8394  1.8360 -2.0839
15763TIP3    H268781   4.548   2.296   2.046 -1.8057 -2.4426  0.3346
15764TIP3   OH268782   2.194   3.937   1.911 -0.5485 -0.1404 -0.4314
15764TIP3    H168783   2.160   3.907   1.996 -0.8567  0.9843 -0.1460
15764TIP3    H268784   2.120   3.983   1.871 -0.6570 -1.4109 -1.6823
15765TIP3   OH268785   4.431   1.191   5.032 -0.5279  0.7609 -0.2152
15765TIP3    H168786   4.339   1.207   5.053 -0.0261  1.0411  1.9438
15765TIP3    H268787   4.444   1.098   5.047 -0.2523  0.8898  0.3623
15766TIP3   OH268788   1.403   1.207   2.039 -0.0668  0.0878  0.4343
15766TIP3    H168789   1.473   1.270   2.019 -0.3044  0.2167  0.0098
15766TIP3    H268790   1.421   1.180   2.129  2.0327 -1.8552 -0.5146
15767TIP3   OH268791   5.691   5.128   1.751 -0.1653  0.2052  0.5181
15767TIP3    H168792   5.616   5.188   1.745  0.3176  0.5972 -2.6603
15767TIP3    H268793   5.762   5.174   1.705  1.1334 -1.4495  0.8285
15768TIP3   OH268794   5.479   2.171   3.133 -0.1082  0.5729  0.1115
15768TIP3    H168795   5.487   2.248   3.189  0.8727 -0.5673  1.5988
15768TIP3    H268796   5.441   2.104   3.190 -2.4115  0.3786 -1.5993
15769TIP3   OH268797   0.502   4.189  15.370 -0.3701  0.0554  0.2756
15769TIP3    H168798   0.538   4.161  15.455  0.5463  0.5905  0.0696
15769TIP3    H268799   0.562   4.257  15.340  1.1069 -2.2686 -2.2769
15770TIP3   OH268800   4.895   4.204   5.701  0.3696  0.4782 -0.1176
15770TIP3    H168801   4.943   4.163   5.773  1.4364 -0.9114 -1.5912
15770TIP3    H268802   4.927   4.294   5.699  1.0081  0.2711  0.5633
15771TIP3   OH268803   2.643   6.338   0.492  0.1609  1.0510 -0.0316
15771TIP3    H168804   2.630   6.283   0.415 -1.5461 -0.3045  1.2089
15771TIP3    H268805   2.738   6.354   0.494  0.2255  1.1750 -2.4327
15772TIP3   OH268806   4.934   1.046  15.807 -0.0770  0.3562 -0.5604
15772TIP3    H168807   4.992   0.970  15.801 -3.0365 -2.1016  0.5305
15772TIP3    H268808   4.990   1.117  15.838  2.1216 -2.1677  1.4731
15773TIP3   OH268809   3.965   2.098  12.297 -0.2373  0.0970 -0.7945
15773TIP3    H168810   3.920   2.089  12.381 -0.0146 -2.0599 -0.8805
15773TIP3    H268811   4.051   2.134  12.320 -0.1470 -0.5538 -0.0728
15774TIP3   OH268812   2.461   6.486   1.105  0.3917 -0.3702 -0.4057
15774TIP3    H168813   2.387   6.485   1.166 -1.0656 -0.2489 -2.1004
15774TIP3    H268814   2.526   6.542   1.147 -0.4315 -0.5586  1.1768
15775TIP3   OH268815   0.417   6.076  16.909  0.0416  0.0717 -0.4599
15775TIP3    H168816   0.384   6.006  16.966 -0.4019  1.4033  0.9708
15775TIP3    H268817   0.348   6.089  16.844 -0.9473  0.8004  0.7150
15776TIP3   OH268818   5.484   5.676  11.095 -0.4269  0.3251  0.1669
15776TIP3    H168819   5.469   5.764  11.062  0.2884  0.0385 -0.9581
15776TIP3    H268820   5.478   5.619  11.018 -0.7265 -0.5916  0.8477
15777TIP3   OH268821   0.055   1.670   5.185 -0.0475  0.3990  1.2616
15777TIP3    H168822   0.023   1.664   5.095  1.0912  0.5696  0.8448
15777TIP3    H268823   0.015   1.595   5.229  1.0208 -0.8830  0.1048
15778TIP3   OH268824   5.720   1.990  11.344 -0.1431  0.7975 -0.2998
15778TIP3    H168825   5.814   2.002  11.327 -0.0438  2.6394  1.3677
15778TIP3    H268826   5.715   1.905  11.388  0.8111  0.9048  0.0466
15779TIP3   OH268827   3.928   0.014   3.882 -0.2268 -0.3828 -0.0589
15779TIP3    H168828   3.926   0.008   3.787 -0.9526 -1.5676  0.0266
15779TIP3    H268829   3.986  -0.057   3.910  1.6107  1.2135  0.2943
15780TIP3   OH268830   3.912   3.457   4.238 -0.4116 -0.3533 -0.0638
15780TIP3    H168831   3.830   3.444   4.286 -0.6425  0.1383 -0.3146
15780TIP3    H268832   3.946   3.540   4.270 -2.1081  1.5322 -2.8656
15781TIP3   OH268833   2.590   1.578  11.901 -0.2641  0.2272 -0.2285
15781TIP3    H168834   2.659   1.513  11.914 -1.7746 -1.1897  0.8885
15781TIP3    H268835   2.587   1.625  11.985 -1.6824 -0.7462  0.2852
15782TIP3   OH268836   2.482   5.598  17.096  0.1612 -0.1128 -0.5264
15782TIP3    H168837   2.567   5.642  17.096 -0.2010  0.6015  0.0572
15782TIP3    H268838   2.502   5.507  17.119  0.8327 -0.0945 -1.0061
15783TIP3   OH268839   4.966   4.604  12.355 -0.3370 -0.1673 -0.4381
15783TIP3    H168840   4.902   4.655  12.404  0.6085 -0.8584  1.5688
15783TIP3    H268841   4.915   4.559  12.287 -1.5300  1.4896 -0.6662
15784TIP3   OH268842   0.805   3.080  14.433 -0.0570  0.7487 -0.8921
15784TIP3    H168843   0.710   3.094  14.444 -0.7531 -2.2214 -2.6743
15784TIP3    H268844   0.830   3.142  14.364 -0.6876  1.5165 -0.4450
15785TIP3   OH268845   5.353   0.573  14.827 -0.2603 -0.0393 -0.1902
15785TIP3    H168846   5.391   0.493  14.864  0.1820  0.5618  0.6859
15785TIP3    H268847   5.260   0.568  14.851 -0.2325 -0.2951 -0.1322
15786TIP3   OH268848   1.382   2.629   0.715 -0.1780  0.3677 -0.3657
15786TIP3    H168849   1.348   2.542   0.736 -1.5548  1.3053  1.5143
15786TIP3    H268850   1.391   2.629   0.620  1.7111 -2.4725 -0.2317
15787TIP3   OH268851   0.922   6.643   0.149  0.9158 -0.4943 -0.0144
15787TIP3    H168852   1.001   6.620   0.101  1.7195 -0.1773  1.1297
15787TIP3    H268853   0.925   6.590   0.228 -0.2153 -0.7573 -0.1354
15788TIP3   OH268854   1.685   2.790   0.506  0.1374  0.4378 -0.2583
15788TIP3    H168855   1.721   2.846   0.576 -1.2855  1.2132 -0.1310
15788TIP3    H268856   1.717   2.830   0.425 -2.4218  2.6369 -0.2659
15789TIP3   OH268857   3.123   3.622  16.211 -0.9055  0.8571 -0.4351
15789TIP3    H168858   3.044   3.661  16.248 -1.7781 -1.1763 -0.0798
15789TIP3    H268859   3.170   3.696  16.171 -3.3771  1.9570 -1.3886
15790TIP3   OH268860   4.081   1.261   1.464  0.3287  0.1236 -0.5950
15790TIP3    H168861   4.018   1.212   1.412 -1.8304  0.0219  2.0125
15790TIP3    H268862   4.127   1.194   1.515  0.1493  0.4828  0.0438
15791TIP3   OH268863   2.056   3.855  16.881 -0.3318  0.6842  0.1410
15791TIP3    H168864   1.977   3.834  16.932  0.7352  0.0381  1.5767
15791TIP3    H268865   2.096   3.770  16.863 -0.6395  0.9169 -1.7295
15792TIP3   OH268866   5.715   3.339   1.102  0.1143 -0.4282  0.1954
15792TIP3    H168867   5.626   3.328   1.070  0.1493 -3.0367  0.8405
15792TIP3    H268868   5.768   3.352   1.023 -0.6868  0.1198 -0.2559
15793TIP3   OH268869   2.904   1.502  16.947  0.0163 -0.0489 -0.2023
15793TIP3    H168870   2.931   1.412  16.933  0.2895  0.6189 -4.7259
15793TIP3    H268871   2.950   1.529  17.027  0.8825 -3.4732  0.5428
15794TIP3   OH268872   3.786   5.051  15.931  0.2357 -0.0992  0.4475
15794TIP3    H168873   3.739   4.969  15.918  0.0429  0.3487 -1.7852
15794TIP3    H268874   3.719   5.119  15.921  0.3361  0.3598  2.5404
15795TIP3   OH268875   0.866   3.514   5.594  0.3564  0.0440 -0.3163
15795TIP3    H168876   0.874   3.608   5.612 -2.5117  1.0527 -3.7640
15795TIP3    H268877   0.802   3.482   5.657  0.5345  0.6048  0.1523
15796TIP3   OH268878   2.757   1.601  11.432 -0.5485 -0.4234 -0.5011
15796TIP3    H168879   2.682   1.557  11.472  0.4706 -0.8182  1.0043
15796TIP3    H268880   2.745   1.693  11.454 -1.0160 -0.3708 -0.9619
15797TIP3   OH268881   2.133   4.308  11.064  0.6278 -0.0186 -0.2883
15797TIP3    H168882   2.082   4.240  11.020 -0.8096  1.4946 -1.0234
15797TIP3    H268883   2.124   4.288  11.158  0.3057 -0.8863 -0.4968
15798TIP3   OH268884   6.424   1.492   2.125  0.2134 -1.0181  0.3500
15798TIP3    H168885   6.354   1.539   2.171  0.3946 -1.3570  0.9867
15798TIP3    H268886   6.381   1.413   2.092  0.3130 -1.2800  0.8353
15799TIP3   OH268887   0.147   4.331  10.289  0.7499  0.2478  0.4805
15799TIP3    H168888   0.167   4.389  10.216  0.5860 -2.1818 -1.5806
15799TIP3    H268889   0.231   4.291  10.311  0.4682 -0.4191  0.3600
15800TIP3   OH268890   5.406   3.720   4.670 -0.2747  0.4981 -0.1391
15800TIP3    H168891   5.343   3.649   4.680  1.6366 -1.6272 -2.4305
15800TIP3    H268892   5.388   3.755   4.582  2.0952 -0.5657 -1.0864
15801TIP3   OH268893   5.131   3.820  13.099 -0.1805  0.0004 -0.1519
15801TIP3    H168894   5.154   3.840  13.190  0.7899  1.6438 -0.7340
15801TIP3    H268895   5.040   3.849  13.091 -0.1595  0.1658  0.1962
15802TIP3   OH268896   1.044   4.467   0.197  0.0160 -0.4339 -0.0421
15802TIP3    H168897   1.018   4.377   0.215 -0.8262 -0.1927 -0.0409
15802TIP3    H268898   0.990   4.520   0.255  0.9060  0.0459  0.3673
15803TIP3   OH268899   1.914   5.719   2.875 -0.3273  0.1558 -0.0646
15803TIP3    H168900   1.845   5.697   2.812 -1.0698  0.1617  0.7415
15803TIP3    H268901   1.962   5.637   2.887 -2.5879 -0.8598  2.3057
15804TIP3   OH268902   6.650   1.128  13.427 -0.0628  0.0046  0.6502
15804TIP3    H168903   6.708   1.066  13.382 -0.6055 -0.5762  0.7390
15804TIP3    H268904   6.666   1.212  13.383 -0.0729 -0.4103 -0.1688
15805TIP3   OH268905   5.357   3.797   2.072 -0.3348 -0.4580  0.4469
15805TIP3    H168906   5.346   3.741   1.995  1.6562  0.0606 -0.2546
15805TIP3    H268907   5.271   3.798   2.114 -0.9784 -2.1773 -0.7942
15806TIP3   OH268908   3.550   5.902   5.664 -0.4454 -0.0045 -0.2134
15806TIP3    H168909   3.531   5.814   5.630  0.8353 -0.2767 -0.2547
15806TIP3    H268910   3.545   5.892   5.759  1.2208 -0.5000 -0.1627
15807TIP3   OH268911   3.474   2.769  15.079 -0.0259  0.1538 -0.2546
15807TIP3    H168912   3.448   2.696  15.135 -0.1140  1.9019  2.0883
15807TIP3    H268913   3.567   2.755  15.061  0.0123 -0.4171  0.3830
15808TIP3   OH268914   5.822   3.392   0.206  0.5671 -0.2449  0.3325
15808TIP3    H168915   5.882   3.454   0.247 -1.0173  0.1253  2.1516
15808TIP3    H268916   5.799   3.431   0.122  0.9792  0.7652  0.6926
15809TIP3   OH268917   6.503   6.117  14.369  0.0571 -0.2088  0.5481
15809TIP3    H168918   6.479   6.141  14.279 -0.3672 -0.5354  0.5700
15809TIP3    H268919   6.422   6.127  14.418  0.1986 -0.4084  0.8210
15810TIP3   OH268920   4.218   6.360   2.005 -0.1055  0.3658 -0.5265
15810TIP3    H168921   4.235   6.266   2.010 -1.7778  0.1266  1.6251
15810TIP3    H268922   4.289   6.394   1.951  1.9618 -1.7795  0.7226
15811TIP3   OH268923   2.054   2.944  16.874 -0.6774  0.0780  0.0446
15811TIP3    H168924   2.119   2.934  16.944 -0.5597  0.8539  0.0455
15811TIP3    H268925   2.049   2.857  16.834 -0.4951 -0.2883  0.7942
15812TIP3   OH268926   1.254   5.006  17.062 -0.1097  0.2911  0.3456
15812TIP3    H168927   1.207   5.083  17.093 -0.4825 -0.4531  1.6752
15812TIP3    H268928   1.281   4.960  17.142  1.2456 -0.2736 -0.4094
15813TIP3   OH268929   0.397   3.221   2.009 -0.4739  0.3833 -0.6101
15813TIP3    H168930   0.457   3.293   2.031 -3.0829  2.7939 -1.1071
15813TIP3    H268931   0.432   3.184   1.928  1.2538  0.6603 -0.0126
15814TIP3   OH268932   0.640   1.177  14.484 -0.2196 -0.0160 -0.2215
15814TIP3    H168933   0.558   1.224  14.502 -0.6881 -1.1143  0.5536
15814TIP3    H268934   0.630   1.148  14.393 -0.8641 -0.4782 -0.0104
15815TIP3   OH268935   0.026   0.832  12.217 -0.5967 -0.1834 -0.2077
15815TIP3    H168936  -0.058   0.873  12.197 -0.3766  0.0962 -0.5749
15815TIP3    H268937   0.048   0.782  12.138 -0.6947 -0.7302  0.1047
15816TIP3   OH268938   5.855   0.224   0.596 -0.1229 -0.1084 -0.3594
15816TIP3    H168939   5.949   0.234   0.578 -0.0525 -0.5587 -0.2609
15816TIP3    H268940   5.813   0.233   0.510  0.1690 -1.7390 -0.6869
15817TIP3   OH268941   2.412   4.681  10.320 -0.2088  0.5711  0.0395
15817TIP3    H168942   2.369   4.728  10.249 -0.4782  1.4137  0.7615
15817TIP3    H268943   2.506   4.686  10.299 -0.3057  0.5660 -0.4000
15818TIP3   OH268944   3.216   2.940  13.210  0.3681  0.2501  0.8603
15818TIP3    H168945   3.141   2.885  13.231  0.9312 -0.5440  0.8662
15818TIP3    H268946   3.179   3.021  13.178 -0.5099 -1.0065 -1.4178
15819TIP3   OH268947   3.613   3.223   4.702  0.3335  0.3537 -0.0980
15819TIP3    H168948   3.624   3.241   4.795  0.3345 -0.9391  0.1664
15819TIP3    H268949   3.696   3.184   4.675  0.2353  0.4697 -0.5765
15820TIP3   OH268950   1.407   3.540  14.242 -0.2075  0.0518  0.5154
15820TIP3    H168951   1.422   3.632  14.263  0.3700 -0.4045  2.1298
15820TIP3    H268952   1.485   3.495  14.271 -0.9151 -1.1006  0.6708
15821TIP3   OH268953   5.036   5.433  14.822 -0.1899  0.6420  0.1590
15821TIP3    H168954   5.118   5.440  14.871  0.2132 -2.5681  0.0903
15821TIP3    H268955   5.063   5.401  14.735 -1.3449  1.3308 -0.4584
15822TIP3   OH268956   1.575   1.151   3.478  0.1503  0.7301  0.2067
15822TIP3    H168957   1.568   1.120   3.569  0.5230  0.8764  0.2868
15822TIP3    H268958   1.590   1.245   3.486 -1.9707  1.1183 -0.0628
15823TIP3   OH268959   3.545   0.518   2.210 -0.0554 -0.0687  0.4461
15823TIP3    H168960   3.548   0.540   2.303 -2.1524 -0.0808  0.5318
15823TIP3    H268961   3.453   0.522   2.187  0.4117 -0.3506 -1.5811
15824TIP3   OH268962   2.168   1.894   4.606  0.1491  0.2043 -0.1408
15824TIP3    H168963   2.123   1.869   4.525  2.1287  1.5128 -1.7001
15824TIP3    H268964   2.144   1.986   4.618 -3.7887 -1.1062  3.3148
15825TIP3   OH268965   5.985   2.023  14.940  0.5673 -0.1163 -0.3969
15825TIP3    H168966   5.938   1.993  14.862  0.7169 -0.0102 -0.5277
15825TIP3    H268967   6.072   2.048  14.908  0.3648  0.6923 -0.3374
15826TIP3   OH268968   1.656   3.928   6.226  0.3138  0.3466  0.4052
15826TIP3    H168969   1.598   4.001   6.248  0.7525  0.0263  2.7361
15826TIP3    H268970   1.597   3.852   6.219 -0.1029  0.8286 -1.7355
15827TIP3   OH268971   1.974   4.691   4.545  0.1957  0.4469 -0.2055
15827TIP3    H168972   1.897   4.645   4.579  0.7420  0.0780  0.5552
15827TIP3    H268973   1.952   4.784   4.554 -0.2520  0.3435 -0.2035
15828TIP3   OH268974   6.734   1.415  11.782  0.1088  0.0591  0.0536
15828TIP3    H168975   6.799   1.414  11.712 -0.0383  1.7494 -0.1243
15828TIP3    H268976   6.729   1.507  11.810 -2.3640  0.0109 -0.0871
15829TIP3   OH268977   4.284   3.854   3.558  0.5642 -0.1910  0.2333
15829TIP3    H168978   4.268   3.783   3.620  0.6026 -1.5179 -1.2402
15829TIP3    H268979   4.217   3.919   3.578 -0.9819 -1.6921  0.0602
15830TIP3   OH268980   2.843   2.162   2.063  0.3947 -0.1261 -0.4118
15830TIP3    H168981   2.894   2.240   2.041 -0.1102  0.7168  1.3534
15830TIP3    H268982   2.876   2.095   2.004  0.5863  1.5117 -2.2364
15831TIP3   OH268983   3.519   6.465   3.601  0.0160 -0.4298 -0.1341
15831TIP3    H168984   3.542   6.393   3.542  3.2375  0.8930 -0.6201
15831TIP3    H268985   3.484   6.533   3.543  3.6079  1.0462 -0.7006
15832TIP3   OH268986   5.337   6.515   4.666 -0.3758  0.4674 -0.1016
15832TIP3    H168987   5.328   6.460   4.744  1.4652 -0.5080 -0.5362
15832TIP3    H268988   5.397   6.585   4.692 -2.9488  2.5077  0.5365
15833TIP3   OH268989   0.303   0.173  12.456 -0.1501  0.2555 -0.0474
15833TIP3    H168990   0.326   0.102  12.515  0.9298  1.6895  1.3002
15833TIP3    H268991   0.209   0.162  12.440 -0.1929 -0.8648  0.9463
15834TIP3   OH268992   5.957   4.456   5.507 -0.5393 -0.3625 -0.4585
15834TIP3    H168993   5.984   4.430   5.595 -0.9104  0.6549 -0.0238
15834TIP3    H268994   5.865   4.482   5.518 -0.5044  0.0275 -1.0860
15835TIP3   OH268995   4.568   5.554   1.019 -0.1409  0.4270  0.0523
15835TIP3    H168996   4.662   5.547   1.001 -0.7051  1.2746 -3.5861
15835TIP3    H268997   4.536   5.463   1.014  0.2801  0.2759  0.0610
15836TIP3   OH268998   5.367   2.269   2.000  0.1942 -0.3211 -0.0008
15836TIP3    H168999   5.314   2.195   1.971 -0.8380  1.1780 -2.1141
15836TIP3    H269000   5.453   2.252   1.961  0.5255 -1.3467  1.1268
15837TIP3   OH269001   1.324   4.861   2.899 -0.5252 -0.3457 -0.2665
15837TIP3    H169002   1.395   4.804   2.869 -0.5680  0.5711 -2.2299
15837TIP3    H269003   1.349   4.948   2.867 -1.8270  0.2453  0.2875
15838TIP3   OH269004   0.349   5.212   4.664  0.8117  0.1690  0.0690
15838TIP3    H169005   0.266   5.253   4.688  0.9107 -1.1516  2.8891
15838TIP3    H269006   0.325   5.141   4.605  0.1353  1.0571 -0.7332
15839TIP3   OH269007   5.239   2.065   2.189  0.6533  0.5190 -0.3759
15839TIP3    H169008   5.180   2.111   2.249  0.6123  1.5788 -1.2264
15839TIP3    H269009   5.326   2.077   2.226  0.7608  2.1199 -1.1120
15840TIP3   OH269010   2.557   3.126   5.035  0.5250  0.3464  0.8414
15840TIP3    H169011   2.581   3.109   5.126  2.0471  0.3147  0.4378
15840TIP3    H269012   2.640   3.144   4.990 -0.1730  0.1226 -0.5929
15841TIP3   OH269013   4.647   0.049  11.072  0.1056  0.2644 -0.4524
15841TIP3    H169014   4.717  -0.016  11.063 -0.0020  0.1143 -0.2052
15841TIP3    H269015   4.596   0.041  10.992  0.3031  0.2937 -0.5811
15842TIP3   OH269016   6.310   0.645   3.577  0.2610  0.1772  0.4928
15842TIP3    H169017   6.293   0.700   3.501  0.9916 -0.3919 -0.0907
15842TIP3    H269018   6.366   0.698   3.633  1.7050 -0.2979 -0.4823
15843TIP3   OH269019   2.016   3.384   1.788 -0.2830  0.4639 -0.5043
15843TIP3    H169020   2.110   3.375   1.802  0.0276  0.6846 -2.3994
15843TIP3    H269021   1.987   3.440   1.860  1.2154  1.2614 -0.4945
15844TIP3   OH269022   5.621   5.469  13.968  0.0486  0.2744 -0.2300
15844TIP3    H169023   5.564   5.418  14.025  0.3430 -0.4483 -0.5722
15844TIP3    H269024   5.690   5.502  14.025 -1.1274  1.7821  0.3262
15845TIP3   OH269025   0.952   0.549  11.458 -0.0788  0.5467 -0.5391
15845TIP3    H169026   0.988   0.634  11.483 -1.1646  0.2762  2.1933
15845TIP3    H269027   1.028   0.494  11.444  0.6323  1.2532  0.4330
15846TIP3   OH269028   0.420   2.929  14.617  0.2876 -0.0092  0.0640
15846TIP3    H169029   0.369   3.010  14.622 -1.4406 -1.1519  1.3549
15846TIP3    H269030   0.453   2.927  14.526 -1.8598  0.8026 -0.7594
15847TIP3   OH269031   5.132   6.394  14.957  0.6329 -0.6836 -0.3546
15847TIP3    H169032   5.222   6.364  14.961  0.4288 -1.4553 -1.5446
15847TIP3    H269033   5.133   6.478  15.004  2.1755 -0.1743 -1.2584
15848TIP3   OH269034   4.355   1.180   2.383 -0.2601  0.2480  0.3062
15848TIP3    H169035   4.356   1.118   2.310  1.0848 -2.1055  2.2397
15848TIP3    H269036   4.447   1.191   2.405 -0.7316 -0.5099  2.7809
15849TIP3   OH269037   6.694   4.427  17.242 -0.0986  0.0038 -0.6030
15849TIP3    H169038   6.635   4.502  17.245 -0.5724 -0.4261  0.7913
15849TIP3    H269039   6.769   4.459  17.191 -1.5465  0.5113 -2.4876
15850TIP3   OH269040   6.559   3.434   1.319 -0.3440  0.3314  0.2269
15850TIP3    H169041   6.576   3.340   1.331 -1.7879 -0.2702 -2.1271
15850TIP3    H269042   6.539   3.466   1.407 -0.5232 -1.7108  0.9612
15851TIP3   OH269043   3.690   1.127   5.572 -0.1184 -0.0585  0.3250
15851TIP3    H169044   3.779   1.150   5.601  0.0403 -0.8213  0.4539
15851TIP3    H269045   3.664   1.055   5.629 -0.2924 -0.7312 -0.5897
15852TIP3   OH269046   1.867   6.249   0.766  0.0554  0.3007  0.2965
15852TIP3    H169047   1.887   6.162   0.801 -0.2719  0.0096 -0.2406
15852TIP3    H269048   1.952   6.284   0.740 -0.2443 -1.5350 -3.3909
15853TIP3   OH269049   3.096   4.089   6.640  0.1093 -0.6713  0.5081
15853TIP3    H169050   3.045   4.050   6.570 -2.0075 -0.7399  2.0277
15853TIP3    H269051   3.176   4.037   6.644  1.4069  0.8274 -3.4051
15854TIP3   OH269052   6.213   5.871  15.581  0.3161  0.1558  0.7969
15854TIP3    H169053   6.274   5.797  15.581 -0.1514 -0.2486 -1.7408
15854TIP3    H269054   6.227   5.913  15.667  2.3884 -1.3626  1.2404
15855TIP3   OH269055   2.653   6.735  15.248 -0.5102 -0.4179  0.6517
15855TIP3    H169056   2.712   6.734  15.173  1.6678 -1.2601  2.3317
15855TIP3    H269057   2.639   6.828  15.267 -1.2363 -0.2058 -0.9096
15856TIP3   OH269058   1.087   6.570  15.453  0.8953  0.3669 -0.0036
15856TIP3    H169059   1.162   6.585  15.511  1.4889 -1.5633 -0.2183
15856TIP3    H269060   1.020   6.531  15.509  1.0289 -0.3895 -0.3668
15857TIP3   OH269061   6.022   4.934  11.749 -0.0069 -0.1672  0.0808
15857TIP3    H169062   6.077   4.855  11.756  0.9264  0.4557 -0.1590
15857TIP3    H269063   6.081   5.006  11.771 -0.6504  0.5355 -0.5026
15858TIP3   OH269064   6.769   1.946   1.086 -0.9179 -0.0086  0.4274
15858TIP3    H169065   6.768   1.980   1.176  0.3421  1.8044 -0.2183
15858TIP3    H269066   6.748   2.022   1.032 -1.8747 -1.1393 -0.8158
15859TIP3   OH269067   5.141   0.146  15.437  0.5017  0.0655 -0.1018
15859TIP3    H169068   5.055   0.186  15.451 -1.0514 -2.6947 -1.2839
15859TIP3    H269069   5.170   0.182  15.353 -0.4159 -0.4774 -0.6608
15860TIP3   OH269070   2.870   4.305   4.906  0.1197 -0.3374 -0.1825
15860TIP3    H169071   2.811   4.232   4.887 -0.8460  0.9144 -2.0909
15860TIP3    H269072   2.818   4.366   4.957  0.5413 -0.3954  0.3175
15861TIP3   OH269073   6.758   1.592   6.074 -0.2079 -0.1327 -0.1153
15861TIP3    H169074   6.706   1.561   6.149 -0.6401 -0.1448 -0.4211
15861TIP3    H269075   6.815   1.518   6.053 -0.6253 -0.4075 -0.2838
15862TIP3   OH269076   1.963   2.412   3.091  0.0625 -0.0825 -0.3426
15862TIP3    H169077   1.930   2.328   3.059 -1.7881  1.0546 -1.5320
15862TIP3    H269078   2.030   2.438   3.027 -1.0075  0.4239 -1.2764
15863TIP3   OH269079   4.978   2.098   2.058 -0.4922  0.0470  0.3655
15863TIP3    H169080   4.999   2.134   1.972 -0.0277 -0.2055  0.3695
15863TIP3    H269081   5.064   2.081   2.098 -0.6519  3.6785  2.4057
15864TIP3   OH269082   1.806   5.180  16.968 -0.6990 -0.2202 -0.0073
15864TIP3    H169083   1.852   5.259  16.938  1.8974 -1.7775 -0.2673
15864TIP3    H269084   1.801   5.124  16.891 -0.0753 -1.4244  0.8018
15865TIP3   OH269085   0.535   4.737   0.763  0.0311 -0.5036  0.6358
15865TIP3    H169086   0.488   4.795   0.823  0.2142 -0.0698  0.3625
15865TIP3    H269087   0.530   4.782   0.678  1.2352 -0.2913  0.6774
15866TIP3   OH269088   0.413   1.434  12.014 -0.6545 -0.2299 -0.8062
15866TIP3    H169089   0.330   1.477  12.036 -0.1266  1.0055 -1.1681
15866TIP3    H269090   0.402   1.404  11.924 -0.9382 -0.6395 -0.6354
15867TIP3   OH269091   1.752   2.396   4.933 -0.1753  0.5711  0.4678
15867TIP3    H169092   1.797   2.469   4.974  1.2337 -0.6145  1.0737
15867TIP3    H269093   1.678   2.378   4.992 -0.6566  1.6482  0.1912
15868TIP3   OH269094   6.278   1.465  16.502 -0.0166  0.3578  0.0885
15868TIP3    H169095   6.295   1.533  16.567 -0.9509 -1.1204  1.9139
15868TIP3    H269096   6.306   1.384  16.543 -1.2605 -0.6950 -1.0849
15869TIP3   OH269097   2.315   3.811   3.547  0.1632  0.1092 -0.0407
15869TIP3    H169098   2.300   3.794   3.640 -0.6750  0.4262 -0.1181
15869TIP3    H269099   2.239   3.861   3.519  1.9859  3.0043 -0.0749
15870TIP3   OH269100   0.807   4.287  16.094  0.4887 -0.0061  0.3149
15870TIP3    H169101   0.775   4.211  16.046 -0.4208 -0.5361  1.7024
15870TIP3    H269102   0.902   4.273  16.100  0.4077 -0.7125  0.0163
15871TIP3   OH269103   4.990   5.642  16.750 -0.1128  0.5182  0.0671
15871TIP3    H169104   5.081   5.637  16.721 -0.0616 -0.3828  0.3425
15871TIP3    H269105   4.939   5.625  16.671 -0.0219  0.2766  0.0598
15872TIP3   OH269106   2.552   0.546   6.805 -0.6165  0.1098 -0.8779
15872TIP3    H169107   2.522   0.456   6.814  0.4957  0.0451  3.1234
15872TIP3    H269108   2.621   0.542   6.739  0.2930 -2.2045  0.1627
15873TIP3   OH269109   3.060   2.428   0.165  0.8052 -0.2068  0.0417
15873TIP3    H169110   3.028   2.342   0.192 -1.5938  0.3704 -0.8011
15873TIP3    H269111   3.122   2.453   0.234  1.8713 -2.7775  0.0469
15874TIP3   OH269112   0.450   4.086  14.318  0.0320  0.3456  0.1498
15874TIP3    H169113   0.500   4.124  14.391 -1.2016  0.3771  0.9880
15874TIP3    H269114   0.408   4.009  14.356  0.6663 -0.5469 -0.9513
15875TIP3   OH269115   3.806   5.511   3.302 -0.1758 -0.0758  0.3548
15875TIP3    H169116   3.732   5.468   3.343  0.3199 -0.4912  0.8140
15875TIP3    H269117   3.869   5.441   3.286 -1.0962 -0.2651 -2.8073
15876TIP3   OH269118   4.727   5.769  10.965 -0.1618 -0.0582  0.2305
15876TIP3    H169119   4.766   5.793  10.881  0.6867 -1.3587  0.2265
15876TIP3    H269120   4.779   5.816  11.030 -0.7088  0.8119  0.0473
15877TIP3   OH269121   2.637   5.837   4.293  0.0672 -0.5208 -0.2762
15877TIP3    H169122   2.550   5.863   4.261  0.6400 -0.8017 -2.1013
15877TIP3    H269123   2.683   5.806   4.215  1.0547 -2.4904  1.0611
15878TIP3   OH269124   4.410   5.050  15.424 -0.0023 -0.2279 -0.3575
15878TIP3    H169125   4.442   5.130  15.466  0.9996 -0.1930 -1.1742
15878TIP3    H269126   4.315   5.061  15.419  0.0560  0.5586  0.2492
15879TIP3   OH269127   2.918   5.338  11.979 -0.0950  0.0953  0.3225
15879TIP3    H169128   2.823   5.328  11.977 -0.2088  1.4348 -1.4577
15879TIP3    H269129   2.951   5.268  11.922  0.0041 -0.3599  0.9291
15880TIP3   OH269130   1.273   6.785  14.436  0.0361  0.3890 -0.2453
15880TIP3    H169131   1.290   6.701  14.478 -1.9326 -0.6684 -1.4909
15880TIP3    H269132   1.356   6.833  14.443  1.2113 -1.6944  0.3454
15881TIP3   OH269133   6.019   6.679   0.976 -0.5753  0.0075  0.1876
15881TIP3    H169134   6.070   6.687   0.896 -0.7988  1.2902  0.1638
15881TIP3    H269135   6.058   6.605   1.022  2.7990  2.3014  1.2085
15882TIP3   OH269136   5.211   6.135   4.006 -0.2396  0.8564  0.0633
15882TIP3    H169137   5.249   6.182   3.932  0.6234 -0.1295 -0.1322
15882TIP3    H269138   5.271   6.062   4.021 -1.9853 -0.6822 -0.2076
15883TIP3   OH269139   3.290   0.205  15.963 -0.0273 -0.4851 -0.7800
15883TIP3    H169140   3.230   0.159  16.021 -2.0871  0.8624 -1.7725
15883TIP3    H269141   3.352   0.138  15.934  0.5667 -1.3439  2.2846
15884TIP3   OH269142   1.393   4.187   0.247 -0.3848  0.4992  0.4644
15884TIP3    H169143   1.420   4.095   0.253 -0.6718  0.3857  0.0768
15884TIP3    H269144   1.300   4.186   0.272 -1.1142  0.2746 -2.1491
15885TIP3   OH269145   2.438   3.505   1.859 -0.0011  0.4775  0.3513
15885TIP3    H169146   2.408   3.568   1.794 -1.1601  1.4074  1.7496
15885TIP3    H269147   2.511   3.460   1.817 -1.0956  0.6454 -1.7976
15886TIP3   OH269148   0.414   2.698  15.041 -0.0682 -0.7343 -0.1511
15886TIP3    H169149   0.370   2.783  15.044  0.1926 -0.6531  3.0534
15886TIP3    H269150   0.445   2.690  14.951  0.6575  2.9558 -0.2868
15887TIP3   OH269151   1.502   4.962  10.996  0.0064  0.3740 -0.0602
15887TIP3    H169152   1.530   5.005  11.076  1.3963 -0.2052 -0.2270
15887TIP3    H269153   1.530   5.021  10.926  2.1816 -0.8959 -0.3032
15888TIP3   OH269154   1.574   2.618   5.395 -0.2458 -0.4435  0.3386
15888TIP3    H169155   1.494   2.653   5.432 -0.2683 -0.3991  0.2505
15888TIP3    H269156   1.546   2.573   5.315  0.0036  1.0136 -0.6003
15889TIP3   OH269157   5.262   5.904   6.231  0.3513 -0.2587 -0.1395
15889TIP3    H169158   5.300   5.842   6.168 -0.1668 -0.2830 -0.4309
15889TIP3    H269159   5.328   5.973   6.238 -0.2302  0.5005 -1.8670
15890TIP3   OH269160   4.016   6.113  17.207  0.3414 -0.4796 -0.5280
15890TIP3    H169161   3.957   6.051  17.165  0.6985 -0.6013 -0.8609
15890TIP3    H269162   4.042   6.173  17.137  1.8107 -1.3487 -0.7653
15891TIP3   OH269163   6.550   2.460   5.504  0.0398  0.2850  0.5289
15891TIP3    H169164   6.551   2.424   5.415 -0.6155  2.0001 -0.1931
15891TIP3    H269165   6.527   2.385   5.559 -0.3451 -0.6201 -0.8189
15892TIP3   OH269166   1.861   1.050   0.776 -0.0820  0.2232 -0.1306
15892TIP3    H169167   1.877   0.972   0.829  1.1071  0.6264  0.1101
15892TIP3    H269168   1.860   1.122   0.838  1.9656  0.7762 -0.6807
15893TIP3   OH269169   1.505   4.684  12.743  0.0369 -0.3923  0.0314
15893TIP3    H169170   1.547   4.769  12.729  1.4328 -0.8670  1.1848
15893TIP3    H269171   1.478   4.656  12.655 -0.5717  1.2957 -0.3437
15894TIP3   OH269172   5.917   0.938  12.559  0.1142  0.0545 -0.1269
15894TIP3    H169173   6.000   0.898  12.531  0.0249  0.2213 -0.6428
15894TIP3    H269174   5.885   0.881  12.628  0.0272 -0.7301 -0.8050
15895TIP3   OH269175   0.261   1.325  16.049  0.2541 -0.2790  0.3356
15895TIP3    H169176   0.253   1.411  16.010  1.5969 -1.2775 -2.2576
15895TIP3    H269177   0.353   1.319  16.075  0.5435 -1.4900 -0.9112
15896TIP3   OH269178   1.218   3.857   2.037  0.8988  0.3309  0.3447
15896TIP3    H169179   1.161   3.860   1.960  1.0698  0.8833  0.2355
15896TIP3    H269180   1.163   3.820   2.106 -0.7080  3.9205  1.1320
15897TIP3   OH269181   3.601   2.538  12.094  0.2360 -0.0424  0.1979
15897TIP3    H169182   3.523   2.575  12.135  0.0980 -0.3149  0.1764
15897TIP3    H269183   3.568   2.474  12.031  0.4266  0.7971 -0.7654
15898TIP3   OH269184   4.691   6.244   4.698 -0.0788  0.4389  0.5606
15898TIP3    H169185   4.658   6.161   4.664  2.6980  0.0378 -1.3599
15898TIP3    H269186   4.728   6.222   4.783 -0.2253 -0.1248  0.4847
15899TIP3   OH269187   2.240   5.194   3.974 -0.2497 -0.2958 -0.0819
15899TIP3    H169188   2.260   5.280   3.936 -1.0450  0.1991  0.6089
15899TIP3    H269189   2.292   5.191   4.054 -1.2746  0.1182  0.6109
15900TIP3   OH269190   4.982   1.673   6.255 -0.0596  0.2217 -0.2166
15900TIP3    H169191   5.065   1.707   6.219 -0.1065 -1.2852 -1.8171
15900TIP3    H269192   4.920   1.744   6.243  0.5026  0.5947 -0.9808
15901TIP3   OH269193   1.500   2.278   3.849  0.0490  0.1243 -0.5421
15901TIP3    H169194   1.425   2.334   3.867 -0.8041 -0.7812 -1.1904
15901TIP3    H269195   1.481   2.197   3.897  0.3508 -0.2985 -1.1314
15902TIP3   OH269196   1.602   2.480  12.226  0.4877 -0.6367 -0.7800
15902TIP3    H169197   1.555   2.479  12.309 -1.7595  0.8622 -1.9872
15902TIP3    H269198   1.582   2.395  12.186 -0.0845 -0.5450 -0.6866
15903TIP3   OH269199   1.998   4.876  12.566 -0.3256  0.0692 -0.5080
15903TIP3    H169200   2.042   4.945  12.516  0.8540  0.5084  1.0997
15903TIP3    H269201   1.908   4.877  12.534  0.0060  1.4717 -1.4405
15904TIP3   OH269202   6.193   3.366  16.459  0.2642  0.9881  0.1148
15904TIP3    H169203   6.192   3.433  16.390  0.9547  0.0019 -0.8639
15904TIP3    H269204   6.281   3.328  16.453  0.2070  0.6638  1.3251
15905TIP3   OH269205   2.768   2.845  13.497  0.0480  0.3576  0.2496
15905TIP3    H169206   2.686   2.891  13.478 -0.1886 -0.5587 -1.0189
15905TIP3    H269207   2.747   2.753  13.485  0.8279 -0.0092  1.6211
15906TIP3   OH269208   2.681   6.306  11.819 -0.0344 -0.1198 -0.1866
15906TIP3    H169209   2.661   6.363  11.894  0.6005 -1.5802  1.1383
15906TIP3    H269210   2.762   6.342  11.783 -0.8051  1.1094 -0.7092
15907TIP3   OH269211   6.595   3.610  14.312  0.0037  0.2643  0.1445
15907TIP3    H169212   6.640   3.695  14.309  2.6148 -1.0873 -1.7681
15907TIP3    H269213   6.626   3.570  14.393  2.7881 -0.8502 -1.3836
15908TIP3   OH269214   0.195   5.213  10.986 -0.1872  0.0234 -0.2633
15908TIP3    H169215   0.174   5.278  11.052  1.0066 -0.2254  0.3635
15908TIP3    H269216   0.286   5.229  10.964 -0.0373 -1.0886 -0.4917
15909TIP3   OH269217   1.829   4.865  13.471  0.5848  0.5351  0.1648
15909TIP3    H169218   1.872   4.926  13.412 -1.6724  1.7216 -0.3211
15909TIP3    H269219   1.745   4.907  13.492  0.0815 -1.2252  1.8508
15910TIP3   OH269220   3.139   4.365  12.559  0.0870  1.1521  0.4160
15910TIP3    H169221   3.192   4.387  12.635 -0.3416 -1.1111  1.4054
15910TIP3    H269222   3.051   4.396  12.581 -0.1697 -0.0446  1.1316
15911TIP3   OH269223   4.597   0.951  12.081  0.2642  0.1147  0.0486
15911TIP3    H169224   4.530   0.924  12.145 -1.4966 -0.0858 -1.8452
15911TIP3    H269225   4.607   1.045  12.096 -0.6798  0.2075  0.1291
15912TIP3   OH269226   3.437   0.841  14.090 -0.0228 -0.1103  0.1137
15912TIP3    H169227   3.348   0.816  14.116  0.1863 -0.9139  0.0750
15912TIP3    H269228   3.461   0.778  14.022  1.0901 -0.7373  1.0809
15913TIP3   OH269229   0.161   1.578   4.755  0.1658  0.3880  0.1261
15913TIP3    H169230   0.084   1.552   4.704  1.4007  0.2884 -1.7020
15913TIP3    H269231   0.158   1.674   4.756 -0.2779  0.3703  0.5165
15914TIP3   OH269232   5.604   4.223   2.966 -0.3918  0.0426 -0.2988
15914TIP3    H169233   5.582   4.142   3.012 -0.0202 -0.2392 -0.6140
15914TIP3    H269234   5.689   4.249   3.003 -0.8328  0.6620  0.2971
15915TIP3   OH269235   3.158   0.324  15.413  0.0932  0.0892  0.1845
15915TIP3    H169236   3.247   0.294  15.430 -0.3855 -0.9432  0.9002
15915TIP3    H269237   3.103   0.272  15.472 -1.0476  0.2349 -0.7306
15916TIP3   OH269238   6.299   6.299   5.551  0.3708  0.4279 -0.3186
15916TIP3    H169239   6.328   6.388   5.571  0.9891  0.2506 -0.4044
15916TIP3    H269240   6.227   6.310   5.489  0.5956  0.8597 -0.5051
15917TIP3   OH269241   5.735   0.091  15.544 -0.5405 -0.5041 -0.4907
15917TIP3    H169242   5.817   0.060  15.583 -0.9012  0.2951  0.9582
15917TIP3    H269243   5.695   0.013  15.505  0.3125 -1.1316 -0.1108
15918TIP3   OH269244   6.665   5.084   1.340 -0.6028 -0.3795 -0.0352
15918TIP3    H169245   6.697   5.173   1.326 -0.5449 -0.4396 -0.2847
15918TIP3    H269246   6.587   5.094   1.394 -0.0100 -0.2517  0.8053
15919TIP3   OH269247   1.030   3.897  14.931  0.3354  0.9797  0.2455
15919TIP3    H169248   0.964   3.916  14.998  1.6006 -1.5275  2.3413
15919TIP3    H269249   0.985   3.840  14.869  0.5171 -0.9140  1.7898
15920TIP3   OH269250   2.800   0.659   3.463  0.2462  0.2727 -0.7541
15920TIP3    H169251   2.814   0.585   3.404  0.9924  0.3933 -0.7251
15920TIP3    H269252   2.713   0.643   3.500  0.8342 -1.1524  0.0686
15921TIP3   OH269253   1.276   1.402  14.299  0.4379 -0.6733  0.2998
15921TIP3    H169254   1.230   1.422  14.380  0.5923 -1.2535  0.5313
15921TIP3    H269255   1.229   1.327  14.263  1.2878 -1.3655  0.6125
15922TIP3   OH269256   2.021   3.133  15.027 -0.2264  0.3672  0.5089
15922TIP3    H169257   1.985   3.049  15.058  0.4812 -0.0114  0.3234
15922TIP3    H269258   1.954   3.197  15.049 -0.8997 -0.2895  0.4017
15923TIP3   OH269259   6.592   5.991  15.106 -0.0824  0.1966 -0.2789
15923TIP3    H169260   6.636   6.067  15.068  1.0138 -1.0049 -1.4903
15923TIP3    H269261   6.621   5.917  15.052 -1.0816 -1.0941  0.8981
15924TIP3   OH269262   5.553   5.804  14.545  0.4718  0.3669 -0.7410
15924TIP3    H169263   5.458   5.802  14.539  0.4436  1.2446 -0.6386
15924TIP3    H269264   5.571   5.797  14.639  0.4863  0.9368 -0.7014
15925TIP3   OH269265   4.971   4.604   2.731 -0.5511  0.2345 -0.2642
15925TIP3    H169266   4.953   4.514   2.701 -2.2886 -0.5137  2.7598
15925TIP3    H269267   4.889   4.651   2.716  0.2007  1.2305 -1.3783
15926TIP3   OH269268   5.080   3.639   4.349 -0.0902 -0.0175  0.0852
15926TIP3    H169269   5.044   3.562   4.392 -0.9349  0.6189  0.5407
15926TIP3    H269270   5.175   3.626   4.349 -0.1721 -0.6051  1.0167
15927TIP3   OH269271   1.159   2.878   4.434 -0.4570 -0.4571 -0.2344
15927TIP3    H169272   1.224   2.835   4.378 -1.2654 -0.5677 -1.1023
15927TIP3    H269273   1.186   2.969   4.436 -0.0296 -0.5800 -0.2448
15928TIP3   OH269274   4.226   2.778   4.419 -0.2912 -0.0742  0.3483
15928TIP3    H169275   4.318   2.756   4.431 -0.5305 -1.4853 -0.3120
15928TIP3    H269276   4.208   2.844   4.486  0.6034 -1.4933  2.0287
15929TIP3   OH269277   3.267   4.635  12.898 -0.6330  0.1608 -0.3420
15929TIP3    H169278   3.259   4.681  12.982 -0.5424  0.0633 -0.2796
15929TIP3    H269279   3.283   4.705  12.835  0.9796  0.0893 -0.0412
15930TIP3   OH269280   5.190   1.886   6.451 -0.1814 -0.1089  0.3266
15930TIP3    H169281   5.237   1.820   6.401 -0.1725 -1.0002  1.4915
15930TIP3    H269282   5.132   1.928   6.387  1.0888 -0.0314 -0.7894
15931TIP3   OH269283   6.756   4.055  15.105 -0.1012 -0.1604  0.4334
15931TIP3    H169284   6.683   4.006  15.143 -1.3955  1.9017  0.6848
15931TIP3    H269285   6.792   4.103  15.179 -0.5065  1.2766 -0.2988
15932TIP3   OH269286   2.510   3.539  14.018 -0.1832 -0.1072  0.2581
15932TIP3    H169287   2.539   3.566  13.930 -0.4111 -0.7145 -0.0070
15932TIP3    H269288   2.435   3.596  14.036 -0.8606 -0.7654 -0.4326
15933TIP3   OH269289   0.911   3.122   5.322 -0.0213  0.4562 -0.1741
15933TIP3    H169290   0.978   3.073   5.275  0.9720 -1.0905  2.7276
15933TIP3    H269291   0.953   3.205   5.344  0.7048 -0.1894  0.9333
15934TIP3   OH269292   6.295   0.501  11.346 -0.0852 -0.2852 -0.5653
15934TIP3    H169293   6.296   0.478  11.254 -1.7474  1.3582 -1.0238
15934TIP3    H269294   6.234   0.439  11.386 -0.6892  0.0930 -0.8919
15935TIP3   OH269295   5.245   0.913   4.285  0.7192 -0.2480 -0.0166
15935TIP3    H169296   5.237   0.843   4.349  1.1609 -0.5903 -0.3336
15935TIP3    H269297   5.213   0.992   4.330 -1.1254 -0.9188 -0.1021
15936TIP3   OH269298   5.643   3.121  12.883  0.6264  0.6987 -0.4378
15936TIP3    H169299   5.697   3.194  12.851  0.1252  0.4894 -1.7794
15936TIP3    H269300   5.559   3.131  12.838 -0.1032  0.3794  0.8022
15937TIP3   OH269301   4.326   4.423  12.577  0.3533 -0.2035 -0.0149
15937TIP3    H169302   4.376   4.442  12.657  0.2289 -0.8840  0.2244
15937TIP3    H269303   4.317   4.508  12.534 -1.3237  0.5417  1.7238
15938TIP3   OH269304   3.677   0.724  15.094  0.0568  0.0877 -0.1005
15938TIP3    H169305   3.748   0.788  15.087 -0.3833  0.3042 -3.3459
15938TIP3    H269306   3.721   0.640  15.109  0.9119  0.4531 -0.5588
15939TIP3   OH269307   1.649   4.976  13.667  0.0794 -0.1519  0.1099
15939TIP3    H169308   1.707   4.933  13.730  0.6639 -0.7166 -0.7948
15939TIP3    H269309   1.565   4.930  13.677 -0.1503  0.4926  1.2337
15940TIP3   OH269310   1.680   1.891   5.767 -0.3500 -0.6264  0.7524
15940TIP3    H169311   1.674   1.827   5.838 -1.0578 -0.6725  0.6624
15940TIP3    H269312   1.592   1.891   5.728 -0.0001 -0.5145 -0.0439
15941TIP3   OH269313   3.649   5.457   2.149 -0.3874  0.2482 -0.1136
15941TIP3    H169314   3.621   5.456   2.241 -0.3250  2.0126 -0.0658
15941TIP3    H269315   3.604   5.382   2.110 -1.0324 -0.0514  1.1812
15942TIP3   OH269316   5.823   3.245   1.600 -0.3967  0.1127  0.2093
15942TIP3    H169317   5.905   3.277   1.637 -0.1635 -2.4844  2.0782
15942TIP3    H269318   5.844   3.225   1.509  1.3484 -1.5059  0.9411
15943TIP3   OH269319   5.113   1.083  13.665  0.2662  0.0357  0.2586
15943TIP3    H169320   5.160   1.063  13.747 -0.0433  2.0615  0.9525
15943TIP3    H269321   5.021   1.087  13.691 -0.4423 -4.2394 -1.1623
15944TIP3   OH269322   5.110   3.754   2.823 -0.0775 -0.1025 -0.1172
15944TIP3    H169323   5.154   3.674   2.794  1.0552  0.3763  0.2237
15944TIP3    H269324   5.076   3.733   2.910  1.9028  0.3659  0.8021
15945TIP3   OH269325   6.549   3.294  14.178  0.3435  0.2429 -0.0249
15945TIP3    H169326   6.479   3.229  14.186  0.2560  0.3037 -0.2920
15945TIP3    H269327   6.559   3.329  14.267  0.7360 -0.4932  0.2190
15946TIP3   OH269328   4.688   0.880   0.477 -0.1127 -0.2326 -0.2830
15946TIP3    H169329   4.648   0.967   0.469  0.2425  0.0284  0.7416
15946TIP3    H269330   4.658   0.847   0.561  0.5850 -0.6744 -0.2051
15947TIP3   OH269331   6.304   3.473   5.363  0.0492  0.0707 -0.1006
15947TIP3    H169332   6.386   3.427   5.384  0.8604  0.5593 -2.1133
15947TIP3    H269333   6.247   3.405   5.328  0.9807  0.4043 -2.3551
15948TIP3   OH269334   0.454   4.610  16.767 -0.0938 -0.1780 -0.6296
15948TIP3    H169335   0.414   4.618  16.854  0.5672 -0.6149 -0.2826
15948TIP3    H269336   0.548   4.608  16.785  0.0149 -0.9455 -1.3104
15949TIP3   OH269337   1.465   6.615  11.598 -0.5611 -0.0881  0.2802
15949TIP3    H169338   1.406   6.660  11.537  1.3890  0.8725 -0.9300
15949TIP3    H269339   1.433   6.639  11.685  0.3513  3.5721 -0.3254
15950TIP3   OH269340   5.602   1.552   2.959 -0.4103 -0.2718  0.1072
15950TIP3    H169341   5.522   1.502   2.941 -1.5040  2.3148 -2.6854
15950TIP3    H269342   5.655   1.540   2.880  0.1179  1.4290  0.1892
15951TIP3   OH269343   0.839   1.973   2.002  0.2569  0.0429  0.2087
15951TIP3    H169344   0.906   1.905   1.999 -0.2302 -0.3965 -1.5374
15951TIP3    H269345   0.885   2.053   1.973  0.2127 -0.1110 -0.3010
15952TIP3   OH269346   5.825   5.394   0.696 -0.0074 -0.2734 -0.4007
15952TIP3    H169347   5.824   5.376   0.602 -1.0010 -1.5121 -0.1683
15952TIP3    H269348   5.762   5.332   0.733  0.6965 -0.0947  1.1396
15953TIP3   OH269349   3.062   0.709   1.384  0.4612  0.0207 -0.4765
15953TIP3    H169350   3.089   0.618   1.380  0.2611  0.0346 -2.5434
15953TIP3    H269351   3.136   0.758   1.348  0.5278  0.6786  0.5135
15954TIP3   OH269352   0.802   1.715  12.288  0.2946  0.2367  0.5126
15954TIP3    H169353   0.774   1.659  12.361  0.3003  0.3492  0.6003
15954TIP3    H269354   0.791   1.660  12.210  0.0704  0.1939  0.5721
15955TIP3   OH269355   0.240   0.101   4.731 -0.0110 -0.4039  0.1740
15955TIP3    H169356   0.154   0.127   4.698  0.6881  1.2046 -0.4638
15955TIP3    H269357   0.299   0.115   4.656  0.6537 -2.4656  0.2824
15956TIP3   OH269358   4.667   5.295  13.367 -0.5234  0.2037 -0.0474
15956TIP3    H169359   4.652   5.299  13.273 -1.5992 -1.0228  0.0506
15956TIP3    H269360   4.583   5.320  13.406 -0.3315 -0.1100  0.5788
15957TIP3   OH269361   2.614   3.499   4.411 -0.3442  0.5087 -0.1236
15957TIP3    H169362   2.611   3.594   4.422 -0.4064  0.2184  2.8584
15957TIP3    H269363   2.701   3.474   4.442 -0.3284 -0.4144 -0.8809
15958TIP3   OH269364   3.982   6.688   5.169  0.2752 -0.0177  0.7500
15958TIP3    H169365   3.984   6.592   5.179 -1.6734 -0.0830  0.6104
15958TIP3    H269366   3.942   6.720   5.249 -0.0939  0.6075  0.3180
15959TIP3   OH269367   4.815   5.845   5.693  0.0009 -0.4381 -0.2353
15959TIP3    H169368   4.723   5.822   5.701  0.5430 -1.8212  2.8630
15959TIP3    H269369   4.852   5.774   5.640 -0.0768 -1.9736  1.6667
15960TIP3   OH269370   0.778   4.089   3.122  0.3440  0.4446 -0.2129
15960TIP3    H169371   0.719   4.121   3.191  0.5136  0.2413  0.0267
15960TIP3    H269372   0.780   3.994   3.135  0.4401  0.4159 -0.4463
15961TIP3   OH269373   2.476   5.830  16.406  0.6448  0.0612 -0.8750
15961TIP3    H169374   2.485   5.922  16.382 -0.1196  0.2383 -0.4726
15961TIP3    H269375   2.498   5.827  16.499  0.2558 -0.0978 -0.7903
15962TIP3   OH269376   3.537   5.254   5.713  0.1183 -0.1208  0.5417
15962TIP3    H169377   3.530   5.332   5.657 -1.1747 -0.2550  0.5229
15962TIP3    H269378   3.629   5.255   5.742  0.6020  0.3709 -0.9579
15963TIP3   OH269379   6.379   0.721  16.806  0.1108  0.0056  0.2928
15963TIP3    H169380   6.297   0.757  16.772  0.6978 -0.7406 -2.0074
15963TIP3    H269381   6.443   0.791  16.793  0.6825 -0.8538 -1.7213
15964TIP3   OH269382   5.839   0.551  10.915  0.3621  0.0949 -0.3452
15964TIP3    H169383   5.854   0.635  10.958  0.5184 -0.1608  0.0997
15964TIP3    H269384   5.926   0.510  10.909 -0.1013 -1.3132  2.0907
15965TIP3   OH269385   5.014   1.249   5.441  0.2052 -0.1246 -0.2293
15965TIP3    H169386   5.062   1.245   5.523 -1.4702 -1.6962  0.6960
15965TIP3    H269387   4.930   1.290   5.463  0.0402  0.1532 -1.3051
15966TIP3   OH269388   0.203   4.502  11.938  0.4042 -0.4366  0.2200
15966TIP3    H169389   0.228   4.433  11.999 -0.6061 -0.2848  0.8320
15966TIP3    H269390   0.109   4.488  11.923  0.5685 -0.2511 -1.0195
15967TIP3   OH269391   4.495   4.011  12.744 -0.1073  0.2081 -0.3105
15967TIP3    H169392   4.550   4.015  12.823 -0.4010  1.4084 -0.1484
15967TIP3    H269393   4.411   3.977  12.775  0.4888 -1.4817 -0.5317
15968TIP3   OH269394   4.084   0.728   1.505 -0.7190  0.4445 -0.3913
15968TIP3    H169395   4.140   0.702   1.433  0.3194 -0.9827  0.8928
15968TIP3    H269396   4.114   0.675   1.579 -0.7009  2.9878  1.4824
15969TIP3   OH269397   3.418   4.876  12.093  0.0784 -0.2065 -0.0350
15969TIP3    H169398   3.448   4.929  12.019  0.4612 -1.2628 -0.6512
15969TIP3    H269399   3.370   4.938  12.149  0.2914  0.7273 -0.8635
15970TIP3   OH269400   4.475   1.708  13.551  0.0729  0.3538 -0.6855
15970TIP3    H169401   4.477   1.699  13.647  0.2567 -1.5458 -0.8516
15970TIP3    H269402   4.384   1.696  13.527 -0.1249  1.7790 -0.6774
15971TIP3   OH269403   3.361   5.129  16.096 -0.5818 -0.1947 -0.1750
15971TIP3    H169404   3.294   5.090  16.152 -0.8003  0.7429  0.2194
15971TIP3    H269405   3.431   5.064  16.095 -0.9735 -0.6381  0.4160
15972TIP3   OH269406   3.790   3.990  11.794  0.2199  0.9792  0.1442
15972TIP3    H169407   3.814   3.898  11.781  1.4382  1.0108  1.9416
15972TIP3    H269408   3.866   4.038  11.762  0.5278  1.2696  1.3034
15973TIP3   OH269409   4.726   4.128  13.409  0.3128 -0.2391 -0.0746
15973TIP3    H169410   4.800   4.144  13.467  0.4063  1.8653 -0.7332
15973TIP3    H269411   4.760   4.147  13.321 -1.3998  2.3199 -0.2380
15974TIP3   OH269412   6.346   1.670   3.970 -0.1658  0.4292 -0.3201
15974TIP3    H169413   6.399   1.653   4.048  0.3311 -1.1449 -0.9734
15974TIP3    H269414   6.275   1.606   3.975 -0.0216  0.1822 -1.2512
15975TIP3   OH269415   5.094   4.874   4.878  0.0240  0.3354  0.3154
15975TIP3    H169416   5.141   4.838   4.953 -2.8380 -0.9631  1.5654
15975TIP3    H269417   5.035   4.804   4.851  0.6724  0.9412 -2.9015
15976TIP3   OH269418   3.588   5.712   5.258  0.8688 -0.4311 -0.2382
15976TIP3    H169419   3.509   5.725   5.311  0.6986  0.3701 -0.6821
15976TIP3    H269420   3.558   5.727   5.168  1.1210 -1.9294 -0.5728
15977TIP3   OH269421   5.631   5.234   5.224  0.6541 -0.2309  0.1533
15977TIP3    H169422   5.663   5.158   5.175  2.4242  0.0333  0.8372
15977TIP3    H269423   5.536   5.229   5.217  0.7835 -1.8809 -0.7618
15978TIP3   OH269424   4.615   2.809  10.695 -0.6848 -0.1931 -0.7138
15978TIP3    H169425   4.701   2.783  10.728  0.4782  0.7497 -2.8625
15978TIP3    H269426   4.559   2.814  10.772  1.5340  0.4054  0.8844
15979TIP3   OH269427   2.160   1.483   0.709 -0.3215 -0.3356  0.2717
15979TIP3    H169428   2.194   1.573   0.700 -0.2480 -0.1446  2.2069
15979TIP3    H269429   2.178   1.443   0.624  0.4503  1.2159 -0.3397
15980TIP3   OH269430   2.815   4.784   6.352 -0.0580 -0.0574 -0.1784
15980TIP3    H169431   2.768   4.808   6.272  1.4397  0.3606 -0.9511
15980TIP3    H269432   2.748   4.784   6.420 -1.3213 -0.2614 -1.4075
15981TIP3   OH269433   1.401   1.921   0.212  0.3418  0.2222 -0.3352
15981TIP3    H169434   1.484   1.933   0.259  0.3328 -0.4378 -0.1511
15981TIP3    H269435   1.406   1.832   0.177 -0.7164 -0.1656  0.5072
15982TIP3   OH269436   6.075   0.928  14.092 -0.5392  0.5915 -0.3423
15982TIP3    H169437   6.030   0.930  14.176  1.7723 -1.8061  1.0088
15982TIP3    H269438   6.020   0.872  14.037 -1.1751  0.7882  0.0823
15983TIP3   OH269439   6.540   6.163  14.697 -0.3074  0.2012  0.6460
15983TIP3    H169440   6.576   6.209  14.772  0.2001 -0.2317  0.6691
15983TIP3    H269441   6.528   6.231  14.631 -1.7552  0.7633  1.4775
15984TIP3   OH269442   0.643   4.143   4.072 -0.1069 -0.4264  0.7978
15984TIP3    H169443   0.572   4.083   4.093 -0.3334 -0.3407  0.2782
15984TIP3    H269444   0.617   4.226   4.111 -0.6731 -0.1875 -0.0791
15985TIP3   OH269445   1.624   2.760   2.461  0.5293 -0.4908 -0.1603
15985TIP3    H169446   1.709   2.775   2.503  1.5399  0.6981 -2.5480
15985TIP3    H269447   1.560   2.796   2.523  1.6190 -2.6060  2.2810
15986TIP3   OH269448   3.615   1.317  14.962 -0.0092 -0.6954 -0.2482
15986TIP3    H169449   3.681   1.269  14.913  0.4292 -1.5010  1.1001
15986TIP3    H269450   3.539   1.319  14.904  0.9925 -0.2537 -1.5792
15987TIP3   OH269451   0.324   1.354   1.274 -0.5937  0.2310 -0.4804
15987TIP3    H169452   0.295   1.382   1.187  1.3316  0.8934 -0.9464
15987TIP3    H269453   0.347   1.262   1.263 -1.5500 -0.0174 -0.3680
15988TIP3   OH269454   3.056   1.885  14.655 -0.2078 -0.2819  0.5710
15988TIP3    H169455   3.116   1.905  14.727  1.2253 -1.9195 -0.1246
15988TIP3    H269456   3.106   1.909  14.576 -0.8653 -0.6866  0.0296
15989TIP3   OH269457   6.654   3.701   0.072  0.8592 -0.2643  0.1906
15989TIP3    H169458   6.614   3.662  -0.006 -2.0463  0.1866  1.4087
15989TIP3    H269459   6.642   3.795   0.060 -0.7501 -0.2388  1.7197
15990TIP3   OH269460   4.651   2.162  10.937  0.0015  0.0368  0.3048
15990TIP3    H169461   4.649   2.257  10.950 -0.5780 -0.0165  0.6428
15990TIP3    H269462   4.559   2.136  10.940 -0.0215 -0.2249 -2.1523
15991TIP3   OH269463   2.127   5.522   0.034 -0.0335 -0.3861 -0.2581
15991TIP3    H169464   2.051   5.520  -0.025  2.5333 -0.3127 -3.7054
15991TIP3    H269465   2.160   5.611   0.027  0.4725 -0.4649  1.0840
15992TIP3   OH269466   4.103   1.240  10.766  1.0348 -0.1408  0.0976
15992TIP3    H169467   4.136   1.159  10.728  2.4714 -0.1930  1.4404
15992TIP3    H269468   4.174   1.303  10.755  0.8486  0.2770  1.2709
15993TIP3   OH269469   0.100   5.570  12.360  0.3619  0.0082  0.4552
15993TIP3    H169470   0.091   5.502  12.293  0.9740 -0.3227  0.7066
15993TIP3    H269471   0.193   5.571  12.381  0.3657  0.9569  0.4290
15994TIP3   OH269472   0.103   4.501   1.596  0.6206 -0.6980  1.0767
15994TIP3    H169473   0.110   4.559   1.520  2.4507 -0.5732  1.3253
15994TIP3    H269474   0.024   4.449   1.579 -1.1682  1.9615  0.9504
15995TIP3   OH269475   6.305   5.158  10.736 -0.0254  0.0024  0.6228
15995TIP3    H169476   6.352   5.190  10.813  0.8390  0.8861 -0.2525
15995TIP3    H269477   6.306   5.232  10.675  0.4281 -1.1153 -0.7395
15996TIP3   OH269478   6.731   1.763  17.158 -0.1068 -0.2843  0.0039
15996TIP3    H169479   6.778   1.736  17.236 -1.2727  0.2903  0.9300
15996TIP3    H269480   6.681   1.840  17.186 -0.4712 -0.0174 -1.3317
15997TIP3   OH269481   6.403   5.520   0.086 -0.1487  0.0152 -0.7991
15997TIP3    H169482   6.381   5.603   0.043  2.7594  0.4923 -1.5210
15997TIP3    H269483   6.429   5.462   0.014  1.1228 -0.3967 -0.0270
15998TIP3   OH269484   2.687   2.993   1.042  0.3528  0.0057 -0.3757
15998TIP3    H169485   2.629   3.056   1.085  0.8046  0.7329 -0.8307
15998TIP3    H269486   2.700   2.925   1.108 -0.5262  0.1418 -0.0547
15999TIP3   OH269487   3.609   2.652   4.631 -0.2618 -0.5422  0.3315
15999TIP3    H169488   3.620   2.568   4.587  0.5534 -0.6213  0.6858
15999TIP3    H269489   3.698   2.686   4.641 -0.6356  0.7180 -0.4987
16000TIP3   OH269490   6.487   0.617  13.123 -0.0564  0.3937  0.2871
16000TIP3    H169491   6.416   0.678  13.106 -0.0626 -0.2928 -2.3992
16000TIP3    H269492   6.567   0.664  13.098 -0.0880 -0.7319 -2.1229
16001TIP3   OH269493   6.137   6.420  16.612  0.0021 -0.4296 -0.0048
16001TIP3    H169494   6.115   6.328  16.597 -5.5094  0.4716  1.4545
16001TIP3    H269495   6.155   6.425  16.706  1.9600 -0.2711 -0.3708
16002TIP3   OH269496   6.786   6.308  16.871 -0.3318 -0.9296  0.2376
16002TIP3    H169497   6.794   6.249  16.795 -1.2278 -2.0777  1.0062
16002TIP3    H269498   6.775   6.249  16.946 -2.6466  0.2070  0.8534
16003TIP3   OH269499   6.457   3.990  13.464  0.2470  0.5972  0.3072
16003TIP3    H169500   6.423   3.908  13.428 -0.6820  1.5391 -1.0374
16003TIP3    H269501   6.382   4.032  13.505  0.8466  0.5143  1.5023
16004TIP3   OH269502   3.288   3.762  13.972  0.2378  1.4487 -0.0897
16004TIP3    H169503   3.208   3.713  13.991  1.5711 -1.1266 -0.7463
16004TIP3    H269504   3.342   3.752  14.051  0.2055  2.5683  0.0820
16005TIP3   OH269505   4.982   3.871  13.528 -0.4938 -0.3193  0.0236
16005TIP3    H169506   4.909   3.814  13.553 -0.1364 -0.0250  1.8080
16005TIP3    H269507   4.958   3.957  13.563  1.1831 -0.4532  1.5344
16006TIP3   OH269508   6.477   6.615   5.894 -0.1123 -0.2157  0.1438
16006TIP3    H169509   6.562   6.573   5.883 -0.7056 -1.1910 -0.8568
16006TIP3    H269510   6.445   6.582   5.978  0.4637  0.0875  0.4798
16007TIP3   OH269511   5.123   4.396   4.564 -0.4004  0.1888  0.2496
16007TIP3    H169512   5.145   4.305   4.543  1.9800  0.7723  0.0725
16007TIP3    H269513   5.133   4.402   4.659 -0.1199  0.3708  0.2094
16008TIP3   OH269514   2.577   0.134  11.432  0.5573  0.2188  0.1903
16008TIP3    H169515   2.570   0.060  11.372  1.3213  1.9672 -2.1263
16008TIP3    H269516   2.667   0.129  11.464  0.4947 -0.0630  0.3254
16009TIP3   OH269517   5.149   3.931  16.745 -0.4277 -0.2095  1.1107
16009TIP3    H169518   5.243   3.912  16.736 -0.4906  0.0456 -0.2861
16009TIP3    H269519   5.106   3.854  16.708 -0.7242  0.9625 -1.0514
16010TIP3   OH269520   0.982   0.070   6.257  0.0524  0.5359  0.0161
16010TIP3    H169521   0.908   0.021   6.292  0.0818 -0.6381 -1.4966
16010TIP3    H269522   1.059   0.017   6.279 -0.0071 -0.6994 -2.5223
16011TIP3   OH269523   5.835   6.249   2.627 -0.1508  0.1339 -0.8269
16011TIP3    H169524   5.871   6.330   2.664  0.4007 -0.7589  0.6080
16011TIP3    H269525   5.912   6.199   2.599 -0.3888 -0.6844 -0.0448
16012TIP3   OH269526   6.263   1.962  12.912  0.4163  0.3403  0.3660
16012TIP3    H169527   6.268   1.922  12.999 -1.8686  2.2926  1.4468
16012TIP3    H269528   6.178   1.933  12.878 -0.0973  2.1100  0.0960
16013TIP3   OH269529   0.873   3.709   2.150 -0.1522  0.0703 -0.0542
16013TIP3    H169530   0.947   3.761   2.182  0.5365  0.2295 -1.8839
16013TIP3    H269531   0.837   3.668   2.229  0.5522  1.7011  1.1375
16014TIP3   OH269532   3.516   4.563  14.688 -0.1458  0.4056 -0.4790
16014TIP3    H169533   3.601   4.536  14.724 -0.1067 -0.1225 -0.9646
16014TIP3    H269534   3.460   4.486  14.699 -0.8815  1.1182  0.8600
16015TIP3   OH269535   4.392   3.858  10.892 -0.4121  0.0028 -0.3607
16015TIP3    H169536   4.351   3.889  10.973 -0.7863  0.0869 -0.5772
16015TIP3    H269537   4.407   3.938  10.841  1.0773  0.0905  0.1922
16016TIP3   OH269538   0.515   5.174   2.282 -0.0984 -0.5795 -0.1982
16016TIP3    H169539   0.608   5.195   2.276 -0.2906  0.5627  0.5262
16016TIP3    H269540   0.488   5.152   2.193  0.8441 -0.8578 -0.4146
16017TIP3   OH269541   0.893   3.303   0.762  0.6095  0.3460 -0.4421
16017TIP3    H169542   0.941   3.358   0.700  0.7951 -0.4143 -0.9866
16017TIP3    H269543   0.949   3.226   0.774  0.0384 -0.0414 -0.2257
16018TIP3   OH269544   5.156   3.195  13.392  0.0168 -0.1284  0.2775
16018TIP3    H169545   5.064   3.219  13.389  0.4779  1.6040 -2.3907
16018TIP3    H269546   5.157   3.106  13.427 -2.8125 -0.8303 -1.2662
16019TIP3   OH269547   5.550   1.560  14.525 -0.0616 -0.8787 -0.3421
16019TIP3    H169548   5.591   1.495  14.581  0.6322 -0.8509 -0.8123
16019TIP3    H269549   5.609   1.635  14.527  1.1755 -1.7155 -2.9337
16020TIP3   OH269550   2.951   2.714   5.398 -0.2518 -0.3032 -0.4176
16020TIP3    H169551   3.000   2.740   5.476 -1.7944  1.6472 -0.0651
16020TIP3    H269552   3.001   2.641   5.362 -0.0714 -1.9802  2.9926
16021TIP3   OH269553   3.361   4.456   0.852  0.5300 -0.7821  0.0035
16021TIP3    H169554   3.387   4.396   0.923 -1.4170  0.1579  1.5613
16021TIP3    H269555   3.405   4.538   0.873  1.5919 -1.0764 -1.0306
16022TIP3   OH269556   5.884   0.944  15.847 -0.5922  0.1445 -0.4458
16022TIP3    H169557   5.979   0.948  15.840 -0.2174 -1.6110  2.8266
16022TIP3    H269558   5.858   1.032  15.876  0.2294  0.0595  0.5500
16023TIP3   OH269559   2.453   3.300   4.802 -0.3688  0.0232 -0.0252
16023TIP3    H169560   2.530   3.291   4.746  0.5893  0.1268  1.2529
16023TIP3    H269561   2.480   3.360   4.871 -1.2875 -0.6897  0.9800
16024TIP3   OH269562   5.462   2.498  13.741 -0.1382 -0.1888  0.3189
16024TIP3    H169563   5.369   2.517  13.737 -0.1098 -0.2750 -1.2330
16024TIP3    H269564   5.467   2.406  13.767 -0.4667 -0.0559  0.8561
16025TIP3   OH269565   1.274   2.523   1.086  0.1130  0.0199 -0.3613
16025TIP3    H169566   1.267   2.468   1.164 -1.4156  0.3113 -0.2733
16025TIP3    H269567   1.184   2.546   1.065  0.3568 -1.2502 -3.0668
16026TIP3   OH269568   2.049   1.599   1.101  0.2013 -0.0062  0.3916
16026TIP3    H169569   2.038   1.666   1.169  2.3914  1.3039 -0.4901
16026TIP3    H269570   2.052   1.648   1.019  1.9724 -1.1304 -0.2620
16027TIP3   OH269571   0.487   2.533   2.467 -0.7268 -0.6762  0.0626
16027TIP3    H169572   0.561   2.527   2.406 -0.1527  2.5208  0.3524
16027TIP3    H269573   0.521   2.582   2.541 -3.0244  0.4655  0.3991
16028TIP3   OH269574   4.260   4.053  11.549  0.0178  0.7894 -0.1470
16028TIP3    H169575   4.318   4.096  11.613  0.4228 -1.5353  1.1137
16028TIP3    H269576   4.315   4.040  11.472  0.4337  0.8055  0.1448
16029TIP3   OH269577   4.054   4.650   3.874  0.1063 -0.0862  0.4916
16029TIP3    H169578   4.144   4.658   3.843  0.3622  0.6491  1.4102
16029TIP3    H269579   4.031   4.558   3.857  0.0177  0.4289 -2.4065
16030TIP3   OH269580   0.924   0.198   2.096  0.5097  0.3307  0.0624
16030TIP3    H169581   1.005   0.247   2.103  0.1381  1.2413 -1.6048
16030TIP3    H269582   0.879   0.237   2.021 -0.5581 -1.4635 -0.2634
16031TIP3   OH269583   4.504   3.913   4.283 -0.1063  0.1347 -0.5580
16031TIP3    H169584   4.598   3.900   4.292 -0.0152 -0.2672 -2.1225
16031TIP3    H269585   4.465   3.833   4.319 -0.0059  1.6561  3.2514
16032TIP3   OH269586   6.685   1.692   0.984 -0.3997  0.1960 -0.0943
16032TIP3    H169587   6.716   1.782   0.970  1.5024 -0.0660  2.0043
16032TIP3    H269588   6.721   1.643   0.911 -0.4963  0.9429 -0.6514
16033TIP3   OH269589   0.595   4.372  15.894 -0.9176 -0.0813 -0.6413
16033TIP3    H169590   0.685   4.375  15.928 -1.1629 -0.8148  0.0774
16033TIP3    H269591   0.600   4.420  15.812 -0.0938  0.8027 -0.0876
16034TIP3   OH269592   0.550   6.753   2.030 -0.0812  0.5024  0.1665
16034TIP3    H169593   0.475   6.697   2.011  0.9668 -0.6568 -0.6522
16034TIP3    H269594   0.565   6.801   1.948 -0.4944  1.4183  0.6213
16035TIP3   OH269595   0.738   3.086  15.790 -0.2382 -0.3965 -0.1636
16035TIP3    H169596   0.753   3.083  15.885 -0.8567 -2.1681 -0.1079
16035TIP3    H269597   0.660   3.032  15.777 -0.2431 -0.0290 -1.6705
16036TIP3   OH269598   5.772   4.634  14.099  0.1128  0.5041 -0.4264
16036TIP3    H169599   5.712   4.703  14.068 -1.2871 -1.1180 -1.4141
16036TIP3    H269600   5.784   4.577  14.024  1.9896  0.1409  0.1232
16037TIP3   OH269601   3.234   4.977  12.789 -0.5931 -0.4656  0.1345
16037TIP3    H169602   3.243   5.043  12.858 -0.2965  0.0184 -0.3656
16037TIP3    H269603   3.140   4.963  12.781 -0.7580  1.2618 -1.0502
16038TIP3   OH269604   1.987   5.363  13.170  0.1324 -0.1146  0.0018
16038TIP3    H169605   1.927   5.404  13.233  0.3037 -1.6544  1.2020
16038TIP3    H269606   2.026   5.290  13.218  0.2796 -1.3323 -1.8874
16039TIP3   OH269607   3.558   2.980   6.952 -0.3480  0.1295 -0.0837
16039TIP3    H169608   3.620   2.929   6.900  2.0608  1.9126  0.9055
16039TIP3    H269609   3.567   2.946   7.041  0.3426  1.3556  0.3410
16040TIP3   OH269610   5.604   3.671   1.620 -0.0639  0.4480  0.1634
16040TIP3    H169611   5.643   3.672   1.708  0.8539  0.9021 -0.2510
16040TIP3    H269612   5.578   3.580   1.607  0.4985  0.2213  0.5974
16041TIP3   OH269613   3.776   2.486  12.895  0.1995  0.2628  0.3330
16041TIP3    H169614   3.851   2.443  12.855 -0.7918 -2.4403  1.2764
16041TIP3    H269615   3.702   2.460  12.841 -0.4429  0.6735  1.0127
16042TIP3   OH269616   2.620   2.375  13.137 -0.2985  0.0233 -0.8551
16042TIP3    H169617   2.549   2.336  13.188 -0.2150  0.4339 -0.4166
16042TIP3    H269618   2.693   2.314  13.147 -0.9464 -0.9962 -2.2797
16043TIP3   OH269619   6.545   3.896  15.243 -0.3926 -0.2055  0.4424
16043TIP3    H169620   6.464   3.851  15.268 -0.0957 -1.4469 -0.7448
16043TIP3    H269621   6.610   3.826  15.236 -0.1771  0.2002 -2.5502
16044TIP3   OH269622   0.343   3.355  14.387 -0.2011  0.6518  0.9062
16044TIP3    H169623   0.293   3.293  14.334  0.0989  0.3670  0.9591
16044TIP3    H269624   0.300   3.352  14.473 -0.1772  0.5084  0.9132
16045TIP3   OH269625   2.142   1.467   3.334 -0.1916 -0.2336  0.1075
16045TIP3    H169626   2.178   1.379   3.341 -1.2875 -0.8719 -1.9726
16045TIP3    H269627   2.219   1.524   3.338  0.7697 -1.4162 -0.8856
16046TIP3   OH269628   1.955   1.818  15.427  0.2339 -0.0240 -0.3957
16046TIP3    H169629   1.884   1.832  15.364 -0.4061  0.7993  0.4975
16046TIP3    H269630   1.921   1.851  15.510  2.1267  1.5911 -0.2053
16047TIP3   OH269631   1.213   0.057   3.134  0.6940 -0.1992  0.0837
16047TIP3    H169632   1.208   0.015   3.048 -2.5303  2.9223 -1.3763
16047TIP3    H269633   1.285   0.120   3.125 -0.0730  0.5956 -0.5843
16048TIP3   OH269634   3.544   5.445  15.297 -0.2173  0.3538 -0.6188
16048TIP3    H169635   3.494   5.521  15.327  0.8212  1.6418 -2.0654
16048TIP3    H269636   3.481   5.373  15.298 -0.8488  0.8851  2.2072
16049TIP3   OH269637   1.405   5.102  10.365  0.6622  0.3089 -0.1103
16049TIP3    H169638   1.332   5.159  10.339 -0.0663 -0.1963  0.8203
16049TIP3    H269639   1.456   5.156  10.426  1.4519  0.9025 -1.2743
16050TIP3   OH269640   0.403   5.023  12.237  0.2105 -0.1922 -0.0021
16050TIP3    H169641   0.433   4.938  12.268 -0.2388  0.0928  1.2520
16050TIP3    H269642   0.473   5.053  12.179 -0.7541 -2.4863 -2.4864
16051TIP3   OH269643   4.091   4.924   1.196  0.0970 -0.9454  0.2396
16051TIP3    H169644   4.149   4.855   1.162 -1.7278 -1.8617 -1.0769
16051TIP3    H269645   4.081   4.903   1.289 -1.2582 -3.0574 -0.3706
16052TIP3   OH269646   0.759   4.824   6.560  0.1700  0.5711  0.5828
16052TIP3    H169647   0.825   4.801   6.494 -0.1417  1.5927 -0.0898
16052TIP3    H269648   0.810   4.846   6.638  0.5051 -2.1753  1.2204
16053TIP3   OH269649   3.509   2.155  12.498  0.5114 -0.2793 -0.1954
16053TIP3    H169650   3.590   2.134  12.545  1.7526  3.9662 -0.2452
16053TIP3    H269651   3.482   2.072  12.458  3.0652 -2.4891  2.4543
16054TIP3   OH269652   4.792   3.095  14.208  0.5053  0.2223 -0.1944
16054TIP3    H169653   4.831   3.074  14.123 -0.9497  0.9965 -1.0846
16054TIP3    H269654   4.708   3.050  14.207  0.9825 -0.7257  1.3437
16055TIP3   OH269655   6.294   4.980  14.245 -0.2578 -0.3668 -0.2294
16055TIP3    H169656   6.279   4.938  14.329 -0.7818  0.5795  0.1518
16055TIP3    H269657   6.353   4.920  14.198  0.6317 -0.5305  1.0776
16056TIP3   OH269658   6.774   6.694  15.889 -0.3398 -0.1189 -0.0266
16056TIP3    H169659   6.778   6.670  15.796  0.3569  0.1283 -0.0643
16056TIP3    H269660   6.798   6.787  15.890  2.3912 -0.8058  0.6939
16057TIP3   OH269661   2.846   4.106  12.263  0.1088 -0.0998 -0.7073
16057TIP3    H169662   2.828   4.020  12.303 -2.2927 -0.0687 -1.6350
16057TIP3    H269663   2.883   4.085  12.177  2.0368 -0.1800  0.1308
16058TIP3   OH269664   4.889   0.422   1.878  0.4420 -0.5341  0.4259
16058TIP3    H169665   4.881   0.359   1.950  0.4863  0.0328  0.9288
16058TIP3    H269666   4.961   0.389   1.824  0.6341 -0.7715  0.8288
16059TIP3   OH269667   5.882   1.845  13.457 -0.4478  0.1600 -0.3781
16059TIP3    H169668   5.835   1.873  13.379  2.4020 -2.0027 -2.9987
16059TIP3    H269669   5.948   1.914  13.472 -1.5024  0.9707  0.6497
16060TIP3   OH269670   0.851   0.551  15.307 -0.2077  0.2869  0.6988
16060TIP3    H169671   0.847   0.561  15.402 -1.0199 -1.9461  0.9379
16060TIP3    H269672   0.844   0.456  15.293  2.4807  0.3403 -1.4459
16061TIP3   OH269673   2.414   4.714  14.266 -0.3558  0.0607  0.2201
16061TIP3    H169674   2.351   4.786  14.261 -1.0710 -0.6666 -1.4554
16061TIP3    H269675   2.412   4.674  14.179  1.2949 -0.9287  0.6168
16062TIP3   OH269676   4.951   6.526   0.477  0.0678 -0.0887  0.1890
16062TIP3    H169677   4.879   6.572   0.432  0.0327  0.8061  1.1410
16062TIP3    H269678   5.023   6.589   0.476  0.9136 -1.0641 -0.9480
16063TIP3   OH269679   2.619   3.648  13.776  0.3933 -0.0813 -0.3888
16063TIP3    H169680   2.707   3.630  13.741  0.6677 -1.7595  1.0532
16063TIP3    H269681   2.572   3.688  13.703  1.4840 -1.8480 -2.1285
16064TIP3   OH269682   5.513   5.792  13.019 -0.1072  0.2048  0.8673
16064TIP3    H169683   5.438   5.835  13.061  0.1702 -0.2415  1.8361
16064TIP3    H269684   5.589   5.840  13.051  0.1778 -0.7714  1.6899
16065TIP3   OH269685   5.331   6.716   2.750 -0.1274 -0.2635  0.3372
16065TIP3    H169686   5.273   6.648   2.783 -0.1726  0.6904  2.2658
16065TIP3    H269687   5.359   6.764   2.827  1.0126  1.0471 -0.8559
16066TIP3   OH269688   0.419   4.321  10.993  0.1076  0.3691  0.3100
16066TIP3    H169689   0.401   4.329  11.086  0.0352  1.5390  0.2002
16066TIP3    H269690   0.334   4.335  10.951 -0.0922 -1.3498  0.1174
16067TIP3   OH269691   5.581   6.667  16.352 -0.6379  0.2249 -0.4455
16067TIP3    H169692   5.495   6.700  16.324 -1.1807 -1.7945 -1.2629
16067TIP3    H269693   5.570   6.649  16.445 -0.7910  0.9469 -0.3225
16068TIP3   OH269694   4.736   0.210  17.120  0.0502 -0.1469 -0.0032
16068TIP3    H169695   4.782   0.132  17.153 -0.3677 -0.2399  0.3655
16068TIP3    H269696   4.647   0.202  17.156 -0.2278  0.0750 -0.6416
16069TIP3   OH269697   2.658   2.337   1.591 -0.2713  0.3597  0.2789
16069TIP3    H169698   2.612   2.256   1.568 -2.9330  2.2221 -1.2047
16069TIP3    H269699   2.668   2.332   1.686  1.0157 -2.3949  0.0500
16070TIP3   OH269700   1.354   1.372  13.866  0.0696 -0.2214 -0.2662
16070TIP3    H169701   1.323   1.459  13.842 -0.3960 -0.3478 -0.1164
16070TIP3    H269702   1.313   1.313  13.802  1.3592 -0.1949 -1.1455
16071TIP3   OH269703   1.913   0.164  11.477 -0.2171  0.1056  0.3476
16071TIP3    H169704   1.868   0.118  11.548 -0.7180  1.6891  1.0864
16071TIP3    H269705   1.980   0.217  11.522 -0.5702  1.1614 -0.3385
16072TIP3   OH269706   3.352   6.293  11.485 -0.2015 -0.1820  0.1182
16072TIP3    H169707   3.346   6.246  11.568 -1.2286  0.6005  0.5074
16072TIP3    H269708   3.270   6.273  11.441  0.0422 -0.0350 -0.3978
16073TIP3   OH269709   5.280   6.356  14.238 -0.0215  0.0548 -0.3514
16073TIP3    H169710   5.310   6.441  14.270 -0.7464 -0.4350  1.7149
16073TIP3    H269711   5.226   6.376  14.161  1.0831  1.3350 -0.7972
16074TIP3   OH269712   6.794   0.244   4.746 -0.0072  0.6791 -0.6551
16074TIP3    H169713   6.753   0.257   4.831 -0.0016 -1.9828 -0.2046
16074TIP3    H269714   6.802   0.332   4.709  0.2015  1.8980  2.1738
16075TIP3   OH269715   5.287   4.918   2.457 -0.4029  0.2967  0.0963
16075TIP3    H169716   5.323   4.835   2.425 -0.4753  0.4293 -0.3229
16075TIP3    H269717   5.202   4.894   2.495  0.4644 -0.1499  1.8188
16076TIP3   OH269718   1.945   3.352   2.607 -0.0398  0.4191 -0.3765
16076TIP3    H169719   1.849   3.351   2.602 -0.0546  0.7849 -0.1731
16076TIP3    H269720   1.967   3.269   2.649 -0.1956 -0.2321 -1.5599
16077TIP3   OH269721   3.568   0.344  11.467  0.3232 -0.2863  0.6298
16077TIP3    H169722   3.546   0.433  11.441 -0.7916 -0.8293 -0.3325
16077TIP3    H269723   3.660   0.334  11.442  0.4472  0.5826  0.7263
16078TIP3   OH269724   5.844   4.442  13.903 -0.2664  0.2442 -0.2222
16078TIP3    H169725   5.825   4.380  13.972  1.6376 -1.9014 -1.5490
16078TIP3    H269726   5.916   4.403  13.854 -0.6931  2.2976 -2.6402
16079TIP3   OH269727   0.872   2.833   2.159 -0.3195  0.4612  0.2953
16079TIP3    H169728   0.892   2.766   2.093  0.3064 -0.0529  0.9938
16079TIP3    H269729   0.904   2.914   2.121  0.8373  0.0350  0.3194
16080TIP3   OH269730   2.767   6.605   1.943 -0.4850 -0.1116 -0.4932
16080TIP3    H169731   2.690   6.597   1.887 -1.7581 -0.6848  1.3150
16080TIP3    H269732   2.824   6.533   1.915 -1.6807 -1.1855 -0.1980
16081TIP3   OH269733   4.334   5.854   4.719  0.7235 -0.4912  0.0687
16081TIP3    H169734   4.310   5.826   4.630 -0.9260 -0.1998  0.4166
16081TIP3    H269735   4.333   5.773   4.770  1.4721 -0.6288 -0.1328
16082TIP3   OH269736   2.480   4.155   1.355 -0.0010  0.2388  0.3046
16082TIP3    H169737   2.458   4.062   1.362 -1.0442  0.4073 -0.5683
16082TIP3    H269738   2.396   4.199   1.343  0.5314  1.2427  0.1696
16083TIP3   OH269739   0.925   1.584  16.106 -0.0345  0.2215 -0.2930
16083TIP3    H169740   0.989   1.574  16.176 -1.3219 -0.6453  0.7761
16083TIP3    H269741   0.959   1.531  16.034  0.8738  0.4549 -0.0359
16084TIP3   OH269742   6.312   6.336  12.166  0.2368 -0.4304 -0.6055
16084TIP3    H169743   6.265   6.404  12.214 -1.2150 -1.9714  0.2213
16084TIP3    H269744   6.243   6.275  12.138  1.6070 -2.1707 -0.2986
16085TIP3   OH269745   5.144   3.963  14.243 -0.3522  0.5724 -0.1969
16085TIP3    H169746   5.236   3.983  14.260 -0.1801 -0.3548  0.0004
16085TIP3    H269747   5.112   3.928  14.327 -0.4303 -0.7111 -0.7483
16086TIP3   OH269748   3.372   1.255   1.612  0.4743  0.8837 -0.5570
16086TIP3    H169749   3.361   1.244   1.707  1.1976 -0.2301 -0.5906
16086TIP3    H269750   3.465   1.240   1.597  0.4395  1.4926 -1.3949
16087TIP3   OH269751   2.679   5.049   2.347  0.3359 -0.2732 -0.4199
16087TIP3    H169752   2.589   5.016   2.338  0.1839 -0.3038  1.0666
16087TIP3    H269753   2.733   4.970   2.356  0.0519 -0.1940  2.4444
16088TIP3   OH269754   3.509   0.548  14.219  0.2513  0.1617 -0.0827
16088TIP3    H169755   3.490   0.503  14.301 -1.4907 -3.5070 -2.3410
16088TIP3    H269756   3.427   0.590  14.195  0.0854 -0.6511 -0.9885
16089TIP3   OH269757   0.171   1.684  16.337 -0.2875  1.1360  0.4086
16089TIP3    H169758   0.163   1.634  16.419  0.4222 -0.7598 -0.6609
16089TIP3    H269759   0.096   1.656  16.285  0.2415  1.0474 -0.2960
16090TIP3   OH269760   4.064   5.198   0.861 -0.3108  0.2196  0.5409
16090TIP3    H169761   4.141   5.161   0.818 -0.7674 -0.8595  0.6573
16090TIP3    H269762   4.075   5.176   0.954 -0.6699  0.2295  0.5869
16091TIP3   OH269763   0.647   4.606  11.972 -0.0708  0.1436  0.2300
16091TIP3    H169764   0.667   4.521  11.933  1.8736  1.3229 -1.4609
16091TIP3    H269765   0.714   4.618  12.039 -0.4482  0.2602  0.5840
16092TIP3   OH269766   1.712   2.227  11.150 -0.2918  0.3260  0.0791
16092TIP3    H169767   1.707   2.322  11.142 -1.4117  0.2594 -0.1237
16092TIP3    H269768   1.645   2.194  11.089  1.9012 -0.6813 -1.8534
16093TIP3   OH269769   5.982   5.367   5.528 -0.0196 -0.1552  0.2297
16093TIP3    H169770   6.072   5.341   5.548 -0.1478 -0.8607 -0.0866
16093TIP3    H269771   5.979   5.370   5.432 -0.2296  0.2471  0.2485
16094TIP3   OH269772   6.600   3.493  15.409  0.6205 -0.0422 -0.3890
16094TIP3    H169773   6.615   3.587  15.413  1.7370 -0.1862 -0.9353
16094TIP3    H269774   6.671   3.460  15.353  0.2488 -1.2038 -0.1864
16095TIP3   OH269775   3.429   2.887   6.710  0.3742 -0.0353  0.1660
16095TIP3    H169776   3.501   2.893   6.648 -0.4766  0.3429 -0.8030
16095TIP3    H269777   3.467   2.914   6.794  1.4887 -0.3807 -0.2154
16096TIP3   OH269778   3.333   1.917  11.839 -0.2078  0.2200  0.2516
16096TIP3    H169779   3.285   1.948  11.762  0.1787 -1.3497 -0.6371
16096TIP3    H269780   3.301   1.972  11.910 -0.9734  1.3312 -0.9211
16097TIP3   OH269781   3.520   1.369   3.260 -0.6185 -0.0507  0.6707
16097TIP3    H169782   3.501   1.370   3.354  2.9965 -2.1120  1.5592
16097TIP3    H269783   3.488   1.284   3.230 -2.3057  0.8483 -0.1352
16098TIP3   OH269784   6.731   4.073   2.976  0.4062  0.1474  0.0101
16098TIP3    H169785   6.743   3.989   2.930 -0.3257  1.0192 -1.8414
16098TIP3    H269786   6.801   4.075   3.041  0.9584 -1.5196 -0.5092
16099TIP3   OH269787   2.580   1.521   5.123 -1.2286  0.4504 -0.5421
16099TIP3    H169788   2.488   1.505   5.101 -1.0096 -2.3602  0.3956
16099TIP3    H269789   2.626   1.515   5.039 -1.4539 -1.8509 -0.5318
16100TIP3   OH269790   2.959   5.293   1.242  0.4064  0.2305 -0.0961
16100TIP3    H169791   3.022   5.340   1.188  1.3581  0.9956  1.6286
16100TIP3    H269792   2.912   5.362   1.289 -1.0577 -0.3753 -0.6324
16101TIP3   OH269793   3.841   5.850  15.849  0.2618  0.3524 -0.1188
16101TIP3    H169794   3.751   5.872  15.873  0.1748 -1.5171  1.3303
16101TIP3    H269795   3.891   5.929  15.871 -0.8931  1.1244 -0.2140
16102TIP3   OH269796   0.072   3.005  12.167 -0.2903 -0.1371  0.6319
16102TIP3    H169797   0.044   2.953  12.091  1.3135  0.6589 -0.5240
16102TIP3    H269798   0.130   2.946  12.215  1.8220  0.6570 -0.8751
16103TIP3   OH269799   1.494   6.365   2.353 -0.9867  0.1666  0.3812
16103TIP3    H169800   1.485   6.397   2.263 -1.5502 -1.6645 -0.2432
16103TIP3    H269801   1.404   6.361   2.386 -1.0511 -1.9601 -0.0025
16104TIP3   OH269802   4.047   2.202   3.481  0.1584 -0.1207 -0.7784
16104TIP3    H169803   3.954   2.219   3.499 -0.0394 -2.2384  0.4257
16104TIP3    H269804   4.072   2.138   3.548  3.1899  2.3617  0.5522
16105TIP3   OH269805   4.347   1.853  17.013 -0.6075  0.2518  0.1449
16105TIP3    H169806   4.439   1.843  17.038  0.1830  0.0497 -2.7522
16105TIP3    H269807   4.325   1.942  17.040  0.2290  0.1000  1.4131
16106TIP3   OH269808   6.775   4.345   2.093 -0.5073  0.0081  0.6266
16106TIP3    H169809   6.751   4.281   2.160  1.1082  0.5749  1.7890
16106TIP3    H269810   6.832   4.296   2.033  0.4295  0.2547  1.3104
16107TIP3   OH269811   6.560   6.475  13.536 -0.3465  0.0212 -0.0466
16107TIP3    H169812   6.561   6.379  13.530 -0.2942  0.0026  0.2916
16107TIP3    H269813   6.633   6.496  13.594 -0.3564  0.2671 -0.1240
16108TIP3   OH269814   4.849   4.967   5.082 -0.0116 -0.1453  0.1403
16108TIP3    H169815   4.783   4.912   5.040  1.2859 -2.0542  0.5219
16108TIP3    H269816   4.898   5.006   5.010 -1.4515  1.2176 -0.1447
16109TIP3   OH269817   4.552   1.991   0.163 -0.0825  0.4068 -0.2110
16109TIP3    H169818   4.495   1.914   0.170 -2.0528  1.6087 -2.0847
16109TIP3    H269819   4.495   2.065   0.184  1.6339  1.4148  0.9848
16110TIP3   OH269820   1.896   5.006  14.269  0.7334  0.0017  0.7207
16110TIP3    H169821   1.846   5.020  14.349  0.7915 -0.2311  0.7978
16110TIP3    H269822   1.925   5.094  14.244 -0.5088  0.2530  0.1549
16111TIP3   OH269823   0.952   5.776   2.717  0.0249 -0.5926  0.7078
16111TIP3    H169824   1.041   5.770   2.683 -0.5675 -0.5333 -0.9069
16111TIP3    H269825   0.896   5.768   2.639 -1.3549  0.3709  1.5731
16112TIP3   OH269826   2.572   3.584  15.183  0.0113  0.0769  0.4023
16112TIP3    H169827   2.627   3.522  15.134  0.1703  1.5191 -1.2632
16112TIP3    H269828   2.511   3.618  15.118  0.5894  2.4434  1.0700
16113TIP3   OH269829   3.876   0.605  13.040  0.6033  0.1014 -0.4255
16113TIP3    H169830   3.837   0.599  13.128  0.4318  2.2689 -0.3432
16113TIP3    H269831   3.924   0.523  13.031 -1.3031 -1.2041  0.7623
16114TIP3   OH269832   5.379   3.237  12.331  0.4647  0.4179  0.3713
16114TIP3    H169833   5.398   3.323  12.293  2.5904  0.3689  1.2280
16114TIP3    H269834   5.365   3.254  12.424  2.3156 -0.2978  0.8145
16115TIP3   OH269835   0.483   1.514  13.682  0.2801  0.0495 -0.6627
16115TIP3    H169836   0.508   1.605  13.667  0.6810  0.1045  0.2855
16115TIP3    H269837   0.555   1.477  13.733 -0.0018 -0.7255 -0.8168
16116TIP3   OH269838   6.521   0.305   2.834 -0.2274  0.1620  0.1136
16116TIP3    H169839   6.607   0.330   2.799 -1.2797  2.6420 -0.7871
16116TIP3    H269840   6.471   0.278   2.757 -0.7636  0.2369  0.4317
16117TIP3   OH269841   1.207   1.823  14.501  0.1393  0.3377 -0.4214
16117TIP3    H169842   1.260   1.849  14.576  0.3484  0.1423 -0.5019
16117TIP3    H269843   1.263   1.837  14.425 -0.7163  2.3090 -0.7042
16118TIP3   OH269844   6.252   0.241  17.245  0.1734  0.4039  0.0753
16118TIP3    H169845   6.198   0.285  17.311  0.3373  0.6267  0.0633
16118TIP3    H269846   6.239   0.292  17.165 -1.1628 -0.7112 -0.4416
16119TIP3   OH269847   3.171   1.292  17.215  0.0143 -0.4912 -0.1233
16119TIP3    H169848   3.214   1.274  17.299 -0.4003 -0.3770  0.1115
16119TIP3    H269849   3.217   1.368  17.181  1.9013 -2.0751 -1.2059
16120TIP3   OH269850   3.891   4.411   1.562 -0.0764  0.4409  0.4078
16120TIP3    H169851   3.866   4.358   1.638 -1.8238 -0.7836 -0.9751
16120TIP3    H269852   3.854   4.364   1.487  1.8765  1.4530 -1.2457
16121TIP3   OH269853   1.084   2.913  15.684  0.4281 -0.4366 -0.0812
16121TIP3    H169854   1.020   2.942  15.618 -0.2464 -0.0509  0.7365
16121TIP3    H269855   1.117   2.995  15.721  0.0324 -0.6691  0.7902
16122TIP3   OH269856   3.511   1.969   3.449  1.1610 -0.5406  0.4220
16122TIP3    H169857   3.535   1.914   3.524 -0.4608 -1.2830  0.4241
16122TIP3    H269858   3.506   2.057   3.486  0.7796 -0.8393  1.0977
16123TIP3   OH269859   4.805   1.423  12.374  0.2131  0.1052 -0.0229
16123TIP3    H169860   4.759   1.480  12.313  2.7808  1.7290 -0.5075
16123TIP3    H269861   4.796   1.466  12.459 -0.2911 -0.2751  0.1178
16124TIP3   OH269862   0.222   0.631   1.764 -0.0557 -0.4434 -0.3459
16124TIP3    H169863   0.316   0.647   1.757 -0.4621  1.6763 -1.3970
16124TIP3    H269864   0.202   0.569   1.694  0.4736 -0.4779 -0.4620
16125TIP3   OH269865   0.970   3.897   2.571 -0.3642  0.4755 -0.3308
16125TIP3    H169866   0.879   3.896   2.540 -0.1444  0.7036 -0.9810
16125TIP3    H269867   1.001   3.807   2.558 -0.8641  0.0973  0.9938
16126TIP3   OH269868   4.737   0.997   4.871  0.0155 -0.5213 -0.1114
16126TIP3    H169869   4.675   0.935   4.833  0.0030 -0.6505  0.1159
16126TIP3    H269870   4.822   0.955   4.862  0.0808 -0.3078 -0.4964
16127TIP3   OH269871   1.576   5.974   0.807  0.1585 -0.7074 -0.3653
16127TIP3    H169872   1.557   6.065   0.832 -1.1999 -1.2074  0.4476
16127TIP3    H269873   1.671   5.968   0.810  0.2286  0.5307  0.1523
16128TIP3   OH269874   6.030   0.453   4.233  0.1462 -0.1986  0.4701
16128TIP3    H169875   6.108   0.493   4.273  0.6834  0.2392 -0.9967
16128TIP3    H269876   6.050   0.359   4.232  1.1366  0.0041 -0.8761
16129TIP3   OH269877   1.890   0.178  15.019  0.4074  0.0882 -0.7037
16129TIP3    H169878   1.974   0.214  15.046  0.9556 -0.7109 -1.3625
16129TIP3    H269879   1.825   0.235  15.063  1.2742 -0.4858  1.3885
16130TIP3   OH269880   0.814   5.314   4.294  0.4157  0.1592 -0.0271
16130TIP3    H169881   0.883   5.324   4.228 -0.1886 -0.9567 -0.8537
16130TIP3    H269882   0.741   5.365   4.261 -0.2281 -1.1876 -0.7346
16131TIP3   OH269883   1.062   1.249  14.346 -0.1942 -0.4507  0.4963
16131TIP3    H169884   1.053   1.165  14.300 -1.4718 -0.7215  1.2127
16131TIP3    H269885   1.075   1.224  14.437  0.9452  0.1126  0.4921
16132TIP3   OH269886   2.735   6.245   1.404  0.5251 -0.0266  0.1674
16132TIP3    H169887   2.808   6.185   1.414  0.0394 -0.7352 -0.3942
16132TIP3    H269888   2.672   6.196   1.350  0.1556  1.0115 -0.3641
16133TIP3   OH269889   2.631   3.539  17.256 -0.3410 -0.0816 -0.1810
16133TIP3    H169890   2.614   3.446  17.271 -1.7112  0.5618  2.4897
16133TIP3    H269891   2.641   3.546  17.161  0.4261 -3.0393 -0.3698
16134TIP3   OH269892   0.149   1.271   4.858 -0.0003 -0.3787 -0.2008
16134TIP3    H169893   0.189   1.356   4.839  1.7988 -1.3121 -0.6609
16134TIP3    H269894   0.057   1.292   4.875  0.3138  1.6088 -0.7521
16135TIP3   OH269895   4.902   1.250   6.523 -0.5454 -0.1581  0.1284
16135TIP3    H169896   4.831   1.304   6.559 -1.3477 -0.2368 -1.3038
16135TIP3    H269897   4.956   1.227   6.599 -1.6473  0.5122  1.1239
16136TIP3   OH269898   4.987   0.629  10.632 -0.4807 -0.3168 -0.4189
16136TIP3    H169899   4.937   0.693  10.580 -1.5335 -0.6390  0.1834
16136TIP3    H269900   4.920   0.583  10.683  0.3391 -1.4698 -0.3793
16137TIP3   OH269901   2.289   4.057   5.931  0.4744 -0.0384 -0.3883
16137TIP3    H169902   2.197   4.076   5.912  0.1856 -0.8172  0.1960
16137TIP3    H269903   2.315   4.124   5.994  0.2409  0.0429 -0.3784
16138TIP3   OH269904   2.525   4.684   4.710  0.2459 -0.1469  0.1533
16138TIP3    H169905   2.436   4.659   4.734  0.4652  0.8829  2.0852
16138TIP3    H269906   2.565   4.602   4.680 -1.8572 -0.3028 -2.4617
16139TIP3   OH269907   1.313   2.570  15.151  0.5585  0.2306  0.3293
16139TIP3    H169908   1.370   2.627  15.203  0.7805 -0.5031  0.9062
16139TIP3    H269909   1.261   2.523  15.216  0.2608 -0.0995 -0.1440
16140TIP3   OH269910   1.521   2.235  12.133  0.4520 -0.3699  0.7153
16140TIP3    H169911   1.580   2.161  12.126  2.8157  1.5190 -0.1834
16140TIP3    H269912   1.485   2.246  12.045  3.1441  1.8854 -0.1832
16141TIP3   OH269913   1.762   4.143   5.148 -0.4657 -0.5448  0.2991
16141TIP3    H169914   1.744   4.069   5.090  0.4848  0.4125 -1.2449
16141TIP3    H269915   1.856   4.137   5.167 -0.0939  1.0109 -0.9301
16142TIP3   OH269916   6.587   0.971  12.130 -0.1605  0.0603 -0.0343
16142TIP3    H169917   6.622   1.002  12.046 -0.5891 -1.0997 -0.6626
16142TIP3    H269918   6.548   1.049  12.170  0.1524  0.6533 -0.8676
16143TIP3   OH269919   4.783   5.676   2.240 -0.6184 -0.2614  0.4082
16143TIP3    H169920   4.774   5.680   2.145  0.3598  0.7154  0.3382
16143TIP3    H269921   4.867   5.632   2.254 -1.3466 -1.5328  0.8496
16144TIP3   OH269922   1.648   2.362  11.549 -0.0693  0.9712  0.4595
16144TIP3    H169923   1.559   2.355  11.512  0.1654  1.4763 -0.2036
16144TIP3    H269924   1.675   2.271  11.560 -0.0700  0.8037 -0.8138
16145TIP3   OH269925   4.414   2.905   1.136  0.4847  0.0244 -0.2691
16145TIP3    H169926   4.376   2.820   1.112  0.7411  0.5693 -2.7422
16145TIP3    H269927   4.488   2.916   1.077  0.0308  2.2762 -0.4769
16146TIP3   OH269928   0.337   1.776   2.152 -0.6096  0.1454  0.9058
16146TIP3    H169929   0.411   1.766   2.212 -1.0985  0.7938  1.6243
16146TIP3    H269930   0.369   1.835   2.084  0.8261 -2.6295 -0.9477
16147TIP3   OH269931   5.905   0.614  12.380 -0.1105  0.1652 -0.1214
16147TIP3    H169932   5.886   0.573  12.296 -1.2890 -0.9881  0.6904
16147TIP3    H269933   6.001   0.615  12.386 -0.0203 -2.9247  0.0254
16148TIP3   OH269934   4.648   1.268   4.909  0.1138 -0.1705  0.0478
16148TIP3    H169935   4.567   1.251   4.957  0.5905 -0.4665  0.7488
16148TIP3    H269936   4.684   1.182   4.891  0.6948 -0.0177  0.4628
16149TIP3   OH269937   4.704   2.106   4.171 -0.2143  0.4823  0.6337
16149TIP3    H169938   4.742   2.069   4.250 -0.0351  0.4778  0.5437
16149TIP3    H269939   4.655   2.182   4.202  0.1698  0.7031  0.6991
16150TIP3   OH269940   2.991   4.503   6.674 -0.1077  0.1668  0.0588
16150TIP3    H169941   2.949   4.582   6.706  1.5397  0.9392  0.3644
16150TIP3    H269942   3.000   4.447   6.751 -0.3411  0.1061  0.0420
16151TIP3   OH269943   2.126   5.104   4.399 -0.0685 -0.4899  0.5714
16151TIP3    H169944   2.075   5.184   4.385 -0.6330 -0.7677  1.0148
16151TIP3    H269945   2.213   5.125   4.364  0.0488  0.6424  1.4940
16152TIP3   OH269946   2.767   0.023   2.073 -0.1397  0.2392  0.1163
16152TIP3    H169947   2.713  -0.047   2.039 -0.4926 -0.0907  1.3136
16152TIP3    H269948   2.857  -0.011   2.069 -0.1718  0.2196 -0.4873
16153TIP3   OH269949   1.891   5.912   5.884 -0.2337 -0.3175  0.4953
16153TIP3    H169950   1.930   5.895   5.970 -1.7141  0.3644  1.3199
16153TIP3    H269951   1.830   5.840   5.870 -2.2013  1.1267  1.3821
16154TIP3   OH269952   2.202   4.499  16.515  0.4397 -0.1765  0.0906
16154TIP3    H169953   2.126   4.505  16.573  1.5158  0.1474  1.4997
16154TIP3    H269954   2.216   4.405  16.503 -2.3014 -0.2733 -3.0665
16155TIP3   OH269955   4.929   1.977   4.844  0.3353 -0.0648  0.1645
16155TIP3    H169956   4.858   1.915   4.857 -2.2005  2.6618 -0.2940
16155TIP3    H269957   4.950   1.970   4.751 -1.4241  1.2701 -0.3515
16156TIP3   OH269958   2.963   5.579  14.167  1.0294  0.1237  0.1198
16156TIP3    H169959   2.981   5.485  14.172 -0.5130 -0.1722  0.3975
16156TIP3    H269960   2.902   5.588  14.094  1.1442  0.8999  0.1169
16157TIP3   OH269961   0.000   4.785  17.273 -0.4268 -0.2327  0.4601
16157TIP3    H169962   0.070   4.795  17.338 -0.2201  1.8413 -0.0617
16157TIP3    H269963  -0.042   4.871  17.270 -1.3218 -0.7161 -1.1410
16158TIP3   OH269964   4.619   5.227   3.321  0.2287  0.5510  0.3732
16158TIP3    H169965   4.575   5.143   3.305 -2.0513  1.3365  2.1558
16158TIP3    H269966   4.702   5.203   3.362  1.1330 -0.9455 -2.2512
16159TIP3   OH269967   2.409   4.393   2.143 -0.2743 -0.5367  0.2174
16159TIP3    H169968   2.464   4.325   2.103  1.2707  1.1576 -0.5826
16159TIP3    H269969   2.449   4.409   2.228 -0.8202 -0.8383  0.5325
16160TIP3   OH269970   5.996   5.846  13.277  0.2397  0.3003  0.0140
16160TIP3    H169971   5.907   5.848  13.312  0.4859 -1.9552  0.8570
16160TIP3    H269972   6.040   5.777  13.326  1.3020 -1.3386 -3.0797
16161TIP3   OH269973   3.683   4.486   5.779  0.1351  0.3154 -0.0502
16161TIP3    H169974   3.682   4.469   5.873 -0.0367 -1.3044 -0.3242
16161TIP3    H269975   3.591   4.490   5.754  0.1732  0.0997 -0.2390
16162TIP3   OH269976   4.212   5.604  13.395 -0.4419  0.7103  0.4315
16162TIP3    H169977   4.259   5.593  13.312 -0.5347  0.9401  0.3478
16162TIP3    H269978   4.120   5.611  13.369 -0.7752 -1.9608  0.7446
16163TIP3   OH269979   1.698   0.409  14.044  1.0296  0.5695  0.3724
16163TIP3    H169980   1.741   0.324  14.033  0.1839  0.1915 -0.0111
16163TIP3    H269981   1.610   0.397  14.009 -0.1754  0.7026  3.1849
16164TIP3   OH269982   6.335   6.727  16.935  0.2779  0.1015  0.1756
16164TIP3    H169983   6.262   6.777  16.899  2.0139  1.4348 -1.6508
16164TIP3    H269984   6.407   6.790  16.940  1.6064 -1.4334  0.8946
16165TIP3   OH269985   1.385   2.762   3.181 -0.1606 -0.1492  0.4375
16165TIP3    H169986   1.446   2.785   3.251 -0.6199 -1.9177  1.4423
16165TIP3    H269987   1.428   2.689   3.136  0.3809  1.3058 -1.4918
16166TIP3   OH269988   2.480   2.254   3.358  0.4285 -0.6171 -0.2608
16166TIP3    H169989   2.386   2.245   3.372  0.7394 -2.0860  1.0152
16166TIP3    H269990   2.488   2.296   3.273 -1.3952  0.2738 -0.0040
16167TIP3   OH269991   1.913   1.796  14.456  0.2290 -0.5708  0.3101
16167TIP3    H169992   1.868   1.718  14.425  3.1609 -2.1165 -0.1720
16167TIP3    H269993   1.901   1.795  14.551 -1.0795 -0.7078  0.1571
16168TIP3   OH269994   5.599   6.337   1.508  0.1173  0.0994 -0.5251
16168TIP3    H169995   5.514   6.296   1.521 -0.9714  2.3926 -0.1454
16168TIP3    H269996   5.607   6.349   1.413 -0.2718  0.4524 -0.5137
16169TIP3   OH269997   3.804   4.027   2.168  0.6473  0.1821 -0.3245
16169TIP3    H169998   3.836   4.054   2.254  0.6853  1.1178 -0.6237
16169TIP3    H269999   3.764   3.941   2.182  1.8880 -0.2929  0.3634
16170TIP3   OH270000   1.983   4.459   2.341 -0.0674 -0.7064  0.4290
16170TIP3    H170001   2.031   4.393   2.292  0.4342  0.3062 -0.4700
16170TIP3    H270002   1.892   4.428   2.341  0.3885 -2.0154  1.0934
16171TIP3   OH270003   5.276   0.230   4.219 -0.3245  0.2489  0.3536
16171TIP3    H170004   5.318   0.298   4.272 -0.5665 -0.0760  0.9746
16171TIP3    H270005   5.315   0.148   4.251  0.7353  0.1576 -1.0952
16172TIP3   OH270006   5.638   6.734  14.694 -0.1187 -0.2816 -0.1474
16172TIP3    H170007   5.603   6.648  14.717  1.3965 -1.0557 -0.6780
16172TIP3    H270008   5.681   6.721  14.610  0.6710  0.8605  0.0684
16173TIP3   OH270009   2.415   5.650   3.759 -1.3647  0.7320  0.2738
16173TIP3    H170010   2.353   5.723   3.752 -0.6891  1.3541  0.7411
16173TIP3    H270011   2.398   5.597   3.681 -1.2441  1.8684 -0.5448
16174TIP3   OH270012   0.771   4.090   0.717  0.0163 -0.6493  0.4252
16174TIP3    H170013   0.771   4.044   0.633  0.7067  0.7556 -0.3775
16174TIP3    H270014   0.715   4.166   0.702 -0.9563 -1.1022  1.6695
16175TIP3   OH270015   5.438   0.127   5.819 -0.2104 -0.1369  0.3114
16175TIP3    H170016   5.359   0.179   5.808 -0.6876 -1.2298 -1.6012
16175TIP3    H270017   5.430   0.089   5.906 -1.8815 -0.3711  0.0743
16176TIP3   OH270018   1.605   1.640  13.543 -0.0734 -0.2110  0.9890
16176TIP3    H170019   1.542   1.705  13.576 -1.1661 -1.9745  2.5064
16176TIP3    H270020   1.553   1.560  13.533  1.7401 -1.4558  1.3768
16177TIP3   OH270021   5.945   0.253   4.529 -0.2629 -0.0955 -0.0113
16177TIP3    H170022   6.033   0.282   4.505  0.3695 -1.0857  1.0489
16177TIP3    H270023   5.944   0.160   4.507 -0.6522 -0.3482  1.0471
16178TIP3   OH270024   0.299   5.195   2.793  0.3924 -0.1527 -0.0894
16178TIP3    H170025   0.356   5.125   2.825 -0.8823 -0.7220  0.9630
16178TIP3    H270026   0.257   5.158   2.715  1.4447  0.2761 -0.8814
16179TIP3   OH270027   0.881   6.785   3.566 -0.7018  0.2310  0.3413
16179TIP3    H170028   0.922   6.700   3.554 -0.4959 -0.2958  4.2778
16179TIP3    H270029   0.950   6.841   3.602 -0.6598  2.3097 -2.7486
16180TIP3   OH270030   5.425   5.850   0.369  0.4683  0.3484  0.0935
16180TIP3    H170031   5.503   5.876   0.418  1.5137  2.1513 -2.4243
16180TIP3    H270032   5.453   5.853   0.277 -2.4205  0.5261 -0.8157
16181TIP3   OH270033   6.327   0.863  13.071 -0.1448 -0.3011 -0.6487
16181TIP3    H170034   6.240   0.898  13.053  0.0757  0.4565 -0.2589
16181TIP3    H270035   6.354   0.906  13.152  0.9831  0.1989 -1.2814
16182TIP3   OH270036   2.405   0.453   4.785  0.0890  0.9708 -0.8211
16182TIP3    H170037   2.420   0.425   4.695 -0.4963 -1.9913 -0.0479
16182TIP3    H270038   2.492   0.472   4.819  0.6693 -1.2818 -0.9747
16183TIP3   OH270039   3.162   5.677   3.623  0.2092 -0.8136 -0.1311
16183TIP3    H170040   3.202   5.735   3.559  0.5784 -1.4079 -0.4511
16183TIP3    H270041   3.152   5.593   3.576 -1.2583 -0.7236 -0.0106
16184TIP3   OH270042   3.215   4.142  17.042  0.2881  0.2859  0.0680
16184TIP3    H170043   3.227   4.150  17.137  0.3617 -0.2140  0.1007
16184TIP3    H270044   3.120   4.141  17.029  0.2640  2.0842 -0.0129
16185TIP3   OH270045   4.488   5.334   0.427 -0.7945 -0.1006 -0.6039
16185TIP3    H170046   4.421   5.273   0.396  0.6874 -1.9626 -0.1971
16185TIP3    H270047   4.569   5.304   0.387  0.0172  1.4619 -0.1967
16186TIP3   OH270048   4.876   4.485  16.492  0.1911  0.0947 -0.4861
16186TIP3    H170049   4.951   4.427  16.495  0.6113  0.6872  0.9096
16186TIP3    H270050   4.855   4.493  16.399  1.1004 -1.0224 -0.7950
16187TIP3   OH270051   2.015   0.842  11.965 -0.6057  0.1798 -0.0975
16187TIP3    H170052   2.010   0.936  11.984  2.2200  0.2876  0.2624
16187TIP3    H270053   1.928   0.820  11.932 -1.6074  2.7205  0.7324
16188TIP3   OH270054   1.823   4.607  11.863 -0.4157  0.2317 -0.1749
16188TIP3    H170055   1.860   4.542  11.923  0.0778  0.6021 -0.0805
16188TIP3    H270056   1.741   4.634  11.905  0.4049  1.2163  0.8292
16189TIP3   OH270057   5.310   4.410  13.765 -0.1958  0.3105 -0.4129
16189TIP3    H170058   5.328   4.316  13.753 -3.6308 -0.6737  1.4875
16189TIP3    H270059   5.380   4.441  13.823  0.8318 -1.1295 -0.8559
16190TIP3   OH270060   5.451   1.647  15.586 -0.2252 -0.7168  0.0398
16190TIP3    H170061   5.496   1.580  15.533 -2.8173 -2.0739 -0.5237
16190TIP3    H270062   5.366   1.659  15.543 -0.9521  0.8234  1.8257
16191TIP3   OH270063   5.999   2.855  15.042  0.3511 -0.5802  0.2067
16191TIP3    H170064   5.959   2.787  15.096  1.3577 -1.2012  0.1864
16191TIP3    H270065   6.062   2.808  14.988 -1.7328 -0.2140 -2.6370
16192TIP3   OH270066   3.931   0.028  12.609 -0.2660  0.3525  0.0760
16192TIP3    H170067   4.013   0.016  12.657 -0.3064 -1.3515 -0.2568
16192TIP3    H270068   3.890   0.103  12.651  0.8195  0.3784  1.1340
16193TIP3   OH270069   1.363   2.070  17.283 -0.4682 -0.2257  0.5868
16193TIP3    H170070   1.273   2.101  17.297 -0.0480  0.8409  0.9338
16193TIP3    H270071   1.387   2.029  17.367 -1.1005 -1.7279  0.0558
16194TIP3   OH270072   0.559   0.122  14.145  0.4950 -0.9573  0.4078
16194TIP3    H170073   0.593   0.171  14.070 -0.2226 -1.1043 -0.0143
16194TIP3    H270074   0.561   0.031  14.117  1.2011 -1.1103  0.9524
16195TIP3   OH270075   2.212   1.655  11.216 -0.5469  0.0171  0.0060
16195TIP3    H170076   2.123   1.651  11.180 -0.7011  1.7007  0.1497
16195TIP3    H270077   2.268   1.640  11.140 -0.9072  2.0252 -0.6811
16196TIP3   OH270078   1.610   3.107  10.740 -0.6731 -0.2943 -0.5795
16196TIP3    H170079   1.636   3.196  10.715  2.3520 -0.6157  1.1562
16196TIP3    H270080   1.531   3.119  10.792  0.7248  1.5959  1.1946
16197TIP3   OH270081   2.071   0.216  15.457 -0.5500  0.4985 -0.5647
16197TIP3    H170082   2.089   0.125  15.436  0.1636  0.2945  0.8248
16197TIP3    H270083   2.106   0.266  15.383  2.4911 -0.1344  0.3744
16198TIP3   OH270084   3.833   4.828  13.387 -0.2063 -0.4738  0.2102
16198TIP3    H170085   3.833   4.922  13.368 -1.0924 -0.7784 -1.4097
16198TIP3    H270086   3.925   4.802  13.378 -0.0687  0.0950 -0.0620
16199TIP3   OH270087   3.335   6.771   1.907 -0.0748 -1.0712  0.4249
16199TIP3    H170088   3.336   6.811   1.820  0.6240  0.4445  1.1104
16199TIP3    H270089   3.262   6.813   1.952 -0.3138 -1.7143  0.6440
16200TIP3   OH270090   5.795   6.160  10.391  0.3145  0.4516  0.2965
16200TIP3    H170091   5.867   6.120  10.342 -1.5054 -0.6080 -1.5880
16200TIP3    H270092   5.832   6.240  10.428  2.7102 -0.5775  0.1815
16201TIP3   OH270093   3.518   1.545  13.741 -0.3913 -0.3851 -0.0494
16201TIP3    H170094   3.604   1.587  13.747  0.4390 -2.2627  2.0065
16201TIP3    H270095   3.521   1.494  13.660  0.0783  0.2764 -0.4557
16202TIP3   OH270096   4.143   1.480   3.929 -0.5593  0.0451 -0.1395
16202TIP3    H170097   4.146   1.559   3.982  1.4388 -0.2509  0.2172
16202TIP3    H270098   4.233   1.450   3.925 -0.8787 -0.7213 -2.5574
16203TIP3   OH270099   3.040   4.809   6.154 -0.2659 -0.2075 -0.3599
16203TIP3    H170100   3.109   4.848   6.208 -0.6839  0.2075 -0.1197
16203TIP3    H270101   2.982   4.883   6.132  0.1115 -0.2946 -1.6953
16204TIP3   OH270102   5.564   6.612   4.185 -0.3114  0.3193  0.7839
16204TIP3    H170103   5.576   6.520   4.161 -0.1787  0.6826 -0.6367
16204TIP3    H270104   5.647   6.637   4.226 -0.0531 -0.0006  0.4624
16205TIP3   OH270105   0.933   4.130  14.226 -0.4126 -0.6299 -0.2100
16205TIP3    H170106   0.947   4.192  14.154 -1.1920  0.4313  0.5383
16205TIP3    H270107   0.973   4.048  14.195 -0.7192 -0.1869 -1.8380
16206TIP3   OH270108   3.227   6.279  12.671 -0.2829 -0.2591 -0.0459
16206TIP3    H170109   3.302   6.247  12.721  0.2018 -2.9019 -2.3694
16206TIP3    H270110   3.155   6.220  12.694 -0.6208 -0.1788 -0.8916
16207TIP3   OH270111   2.337   1.789  15.917  0.4271  0.0057 -0.4277
16207TIP3    H170112   2.304   1.805  16.005  0.7495 -0.8125 -0.1518
16207TIP3    H270113   2.329   1.874  15.872 -0.1355  0.3145  0.2521
16208TIP3   OH270114   6.434   0.309  13.085 -0.1292 -0.3351  0.0170
16208TIP3    H170115   6.474   0.395  13.071 -2.7287  0.7745 -1.0060
16208TIP3    H270116   6.370   0.301  13.014 -2.7041 -1.4073  2.4097
16209TIP3   OH270117   3.383   3.293  12.196 -0.5112 -0.3266  0.0707
16209TIP3    H170118   3.317   3.225  12.207 -1.0050  0.1467  0.1017
16209TIP3    H270119   3.431   3.293  12.279 -0.9874 -0.1487  0.3555
16210TIP3   OH270120   3.813   2.410  11.107  0.2437 -0.0651  0.2664
16210TIP3    H170121   3.903   2.390  11.133  0.5149 -0.5236 -0.9844
16210TIP3    H270122   3.798   2.499  11.140  0.6882 -0.4858  1.6374
16211TIP3   OH270123   2.464   4.897   4.539  0.1672 -0.1912 -0.1824
16211TIP3    H170124   2.377   4.926   4.567 -0.2132  0.5741 -2.1185
16211TIP3    H270125   2.500   4.854   4.617 -0.2422  3.2245  2.0020
16212TIP3   OH270126   2.920   0.702  13.908  0.6229  0.0860 -0.0114
16212TIP3    H170127   2.897   0.793  13.892  0.9822  0.3235  0.8083
16212TIP3    H270128   3.002   0.689  13.861 -0.3073 -0.3182 -1.5968
16213TIP3   OH270129   4.601   2.850  16.339  0.5638  0.0360  0.4243
16213TIP3    H170130   4.645   2.766  16.352  0.9047  0.3274  1.1334
16213TIP3    H270131   4.588   2.856  16.244  3.7788  0.8263 -0.0184
16214TIP3   OH270132   0.115   2.952  15.284  0.3858  0.2795 -0.3341
16214TIP3    H170133   0.075   2.868  15.261 -1.6599  0.0355  3.6702
16214TIP3    H270134   0.040   3.010  15.303  1.7823  1.3074  2.3641
16215TIP3   OH270135   2.545   0.670   3.827  0.4822  0.0952  0.7412
16215TIP3    H170136   2.636   0.699   3.823  0.2256  0.7781 -0.1801
16215TIP3    H270137   2.535   0.613   3.751  0.0050  0.3970  0.5798
16216TIP3   OH270138   5.124   4.952  11.797  0.0417  0.2583 -0.4708
16216TIP3    H170139   5.096   5.036  11.761 -0.8822  0.2845  0.2708
16216TIP3    H270140   5.166   4.974  11.880 -1.7947 -0.1205  0.5952
16217TIP3   OH270141   3.268   3.993  11.729 -0.2802 -0.3074  0.5830
16217TIP3    H170142   3.220   3.911  11.720 -0.0270 -0.4129  0.1794
16217TIP3    H270143   3.345   3.969  11.781 -0.4121 -0.2425  0.8080
16218TIP3   OH270144   1.675   3.023  16.291 -0.1782 -0.8173  0.0526
16218TIP3    H170145   1.599   3.066  16.331  1.3937  1.3662  0.7295
16218TIP3    H270146   1.658   3.027  16.197 -1.2555 -1.0419  0.2301
16219TIP3   OH270147   2.998   3.168   1.001 -0.3802 -0.4014  0.1420
16219TIP3    H170148   3.078   3.219   1.014  0.0565 -1.2288  0.8221
16219TIP3    H270149   2.997   3.146   0.908  2.5260 -4.0798  0.8432
16220TIP3   OH270150   2.648   2.699  12.182 -0.0387 -0.2656  0.4447
16220TIP3    H170151   2.599   2.758  12.125 -0.1467  0.0469  0.8600
16220TIP3    H270152   2.714   2.660  12.125  0.4276  0.7171  0.3050
16221TIP3   OH270153   1.388   5.747   1.233  0.0589 -0.2110  0.3605
16221TIP3    H170154   1.378   5.687   1.159  0.4192  0.9720 -0.6501
16221TIP3    H270155   1.458   5.708   1.286 -0.1892 -1.0456  0.0766
16222TIP3   OH270156   3.142   0.926   2.677  0.1186 -0.4198  0.4499
16222TIP3    H170157   3.104   1.013   2.692  0.3641 -0.2690  0.2106
16222TIP3    H270158   3.235   0.937   2.699  0.3811 -0.3270 -0.6996
16223TIP3   OH270159   2.212   5.913  16.753 -0.4120 -0.1024 -0.0666
16223TIP3    H170160   2.243   5.823  16.739  0.4932 -0.1205  1.9131
16223TIP3    H270161   2.142   5.904  16.818 -0.0704  0.6723  0.4065
16224TIP3   OH270162   6.454   1.609   5.367  0.0044  0.1722  0.2353
16224TIP3    H170163   6.360   1.592   5.365 -0.0782  0.1644  2.4661
16224TIP3    H270164   6.495   1.525   5.348 -0.4454 -0.0837  0.4075
16225TIP3   OH270165   2.233   3.114  13.651 -0.2333 -0.2184 -0.0671
16225TIP3    H170166   2.258   3.026  13.625 -0.2269 -0.9248  2.2559
16225TIP3    H270167   2.314   3.154  13.683 -0.6295 -0.0259  0.6950
16226TIP3   OH270168   3.196   6.342   3.298  0.3313  0.0811  0.3640
16226TIP3    H170169   3.121   6.305   3.252 -0.4063 -1.6531  2.8605
16226TIP3    H270170   3.158   6.409   3.355  0.9245  0.5487  0.2160
16227TIP3   OH270171   5.953   0.396  14.878  0.0190  0.1632  0.5460
16227TIP3    H170172   5.885   0.353  14.826  0.3853 -1.9772  1.7882
16227TIP3    H270173   5.984   0.467  14.822 -1.7417 -0.1603 -0.8988
16228TIP3   OH270174   1.320   3.911   5.505  0.5980  0.0872  0.3561
16228TIP3    H170175   1.280   3.943   5.585 -0.8391  0.0503 -0.3275
16228TIP3    H270176   1.279   3.963   5.435  0.0202 -1.5395 -0.5477
16229TIP3   OH270177   6.807   1.630   3.152 -0.2016  0.6289  0.0794
16229TIP3    H170178   6.713   1.616   3.149 -0.4137  2.1258 -1.6958
16229TIP3    H270179   6.821   1.711   3.102  2.0382  0.2751  0.0476
16230TIP3   OH270180   1.118   3.873  11.304 -0.0941 -0.7440  0.4500
16230TIP3    H170181   1.042   3.928  11.323  0.0172 -0.1447 -0.8107
16230TIP3    H270182   1.082   3.793  11.267 -0.0867 -0.1606 -0.8456
16231TIP3   OH270183   5.219   3.951   2.477 -0.7218 -0.9409  0.2823
16231TIP3    H170184   5.197   3.971   2.568  0.1897  0.1661  0.2678
16231TIP3    H270185   5.310   3.920   2.481 -0.8221 -1.2993 -0.1998
16232TIP3   OH270186   5.432   4.209  11.105 -0.2774  0.7145 -0.3870
16232TIP3    H170187   5.489   4.263  11.160 -1.9600  2.7229 -0.5134
16232TIP3    H270188   5.439   4.249  11.018 -1.3811  0.5918 -0.5377
16233TIP3   OH270189   6.099   4.873   1.745 -0.6237  0.2874 -0.5856
16233TIP3    H170190   6.157   4.800   1.724 -1.7268 -0.8427  0.2191
16233TIP3    H270191   6.011   4.838   1.734 -1.2389  0.4832  2.9853
16234TIP3   OH270192   1.686   3.826  15.922  0.4145 -0.2046  0.3148
16234TIP3    H170193   1.690   3.919  15.942  0.3343 -0.4099  1.3228
16234TIP3    H270194   1.711   3.783  16.003 -2.3453 -1.1159  0.7415
16235TIP3   OH270195   1.580   3.079   2.157  0.3063  0.3062 -0.2684
16235TIP3    H170196   1.544   2.991   2.168 -1.4326  1.0139 -0.0285
16235TIP3    H270197   1.626   3.076   2.073  0.1472 -0.7911 -0.3212
16236TIP3   OH270198   3.567   1.843   5.282  0.8983 -0.0301  0.5269
16236TIP3    H170199   3.546   1.890   5.201 -1.8985 -0.3097  1.0242
16236TIP3    H270200   3.576   1.752   5.256  0.9161  0.0098  0.3942
16237TIP3   OH270201   4.080   4.110  17.121  0.3832  0.3422 -0.2060
16237TIP3    H170202   4.175   4.120  17.116  0.4559 -0.5971 -1.1209
16237TIP3    H270203   4.045   4.178  17.064  0.4221  1.8532  1.5517
16238TIP3   OH270204   2.056   5.693  16.999 -0.1825  0.4160  0.1926
16238TIP3    H170205   1.988   5.710  16.933 -0.3604  1.2130  0.5858
16238TIP3    H270206   2.045   5.761  17.064 -1.5320 -1.7473  2.2932
16239TIP3   OH270207   1.810   2.486  10.958  0.3661 -0.3106 -0.5916
16239TIP3    H170208   1.826   2.419  10.891 -0.2512  1.0337 -2.0960
16239TIP3    H270209   1.896   2.499  10.999  0.5110 -1.9523 -0.3353
16240TIP3   OH270210   2.113   4.214   2.227  0.3404 -0.0342 -0.1908
16240TIP3    H170211   2.085   4.132   2.187  1.2251 -1.2187  1.5723
16240TIP3    H270212   2.180   4.248   2.167  2.6153 -2.4615  0.8906
16241TIP3   OH270213   0.932   2.129   5.895 -0.0077  0.8155 -0.2162
16241TIP3    H170214   1.010   2.145   5.842  0.2877 -0.8841 -0.2989
16241TIP3    H270215   0.883   2.062   5.848 -1.4217  1.6956 -0.0393
16242TIP3   OH270216   6.277   4.138   3.548  0.0577 -0.0458  0.0165
16242TIP3    H170217   6.317   4.193   3.481 -1.5456 -0.3219 -1.2015
16242TIP3    H270218   6.315   4.051   3.533  3.6071  0.8881  2.7842
16243TIP3   OH270219   6.680   1.078   4.986 -0.4897 -0.1285  0.0937
16243TIP3    H170220   6.607   1.122   4.942 -1.1349 -0.3357  0.9645
16243TIP3    H270221   6.743   1.062   4.915 -1.1641  0.2889 -0.6148
16244TIP3   OH270222   0.683   2.004  13.510 -0.0175  0.4626  0.5589
16244TIP3    H170223   0.671   2.094  13.541  1.1249 -0.0447  2.5489
16244TIP3    H270224   0.607   1.988  13.455 -1.0152  2.1432  1.3883
16245TIP3   OH270225   2.873   4.739  12.532 -0.4702 -0.2571  0.2571
16245TIP3    H170226   2.870   4.644  12.545 -0.2305  0.1457  3.5006
16245TIP3    H270227   2.792   4.758  12.484 -0.7780 -2.0254  0.0284
16246TIP3   OH270228   2.739   5.809  16.995 -0.2264  0.3021 -0.5359
16246TIP3    H170229   2.751   5.876  17.062 -1.0399 -1.7714  1.7406
16246TIP3    H270230   2.811   5.824  16.933  0.8685  1.8876  1.0792
16247TIP3   OH270231   4.133   0.228  14.833  0.5266 -0.2274  0.0319
16247TIP3    H170232   4.043   0.198  14.819  0.4643  1.1051 -2.5592
16247TIP3    H270233   4.187   0.164  14.787  0.9847 -1.2199  1.8704
16248TIP3   OH270234   0.856   2.969   1.610  0.7420 -0.1605  0.0397
16248TIP3    H170235   0.825   3.058   1.623 -2.0118 -1.0367 -0.1369
16248TIP3    H270236   0.785   2.926   1.561  1.6908 -2.6214  0.7480
16249TIP3   OH270237   0.850   2.904   4.104 -0.0331  0.0608 -0.3088
16249TIP3    H170238   0.831   2.836   4.038  0.3529 -1.7418  1.3821
16249TIP3    H270239   0.892   2.974   4.054 -0.3404 -0.9732 -2.0886
16250TIP3   OH270240   5.745   6.749   1.067  0.2087  0.2340 -0.4057
16250TIP3    H170241   5.825   6.717   1.109 -0.9765  0.5064  2.1421
16250TIP3    H270242   5.774   6.778   0.980  2.8416  0.1964  0.4027
16251TIP3   OH270243   4.518   1.609   3.713  0.9670 -0.0502 -0.1857
16251TIP3    H170244   4.485   1.691   3.676  0.0888 -1.1154 -1.7904
16251TIP3    H270245   4.500   1.616   3.807  0.9393  1.5965 -0.2965
16252TIP3   OH270246   5.435   1.985  12.805 -0.1645 -0.0065  0.3679
16252TIP3    H170247   5.425   1.992  12.710 -2.0439 -0.7297  0.5029
16252TIP3    H270248   5.377   2.052  12.840 -1.8542 -1.8033  1.0764
16253TIP3   OH270249   0.060   2.154   3.513 -0.4228 -0.0732  0.1070
16253TIP3    H170250   0.091   2.089   3.576 -0.8955 -0.7232 -0.3122
16253TIP3    H270251   0.134   2.213   3.500 -0.6388  0.6249  1.9746
16254TIP3   OH270252   6.797   4.129   0.850  0.2764  0.5992 -0.0881
16254TIP3    H170253   6.889   4.154   0.843  0.7093 -0.6585  0.8420
16254TIP3    H270254   6.784   4.109   0.943 -0.4484 -0.9819 -0.5025
16255TIP3   OH270255   3.202   0.422   5.993  0.3622  0.4909 -0.2905
16255TIP3    H170256   3.229   0.331   6.007  0.5593  0.0429 -3.2664
16255TIP3    H270257   3.153   0.445   6.072  2.9518 -1.1462  1.8967
16256TIP3   OH270258   2.508   6.408  15.552 -0.7285 -0.4008 -0.0151
16256TIP3    H170259   2.528   6.334  15.609 -1.3215 -1.0246 -0.6181
16256TIP3    H270260   2.591   6.454  15.542 -0.3577 -0.9883  0.3510
16257TIP3   OH270261   0.599   5.219  14.994 -0.8635  0.5344  0.3735
16257TIP3    H170262   0.573   5.182  15.078 -2.0302  1.0334  0.2361
16257TIP3    H270263   0.517   5.244  14.951 -0.4459 -1.7212 -1.8698
16258TIP3   OH270264   2.963   6.362   4.290  0.1644 -0.7349  0.1123
16258TIP3    H170265   2.908   6.402   4.357  0.0743 -2.5186  1.1185
16258TIP3    H270266   2.969   6.429   4.222 -1.9537  0.0872  0.6836
16259TIP3   OH270267   2.537   0.402   0.592  0.6919  0.2727 -0.4264
16259TIP3    H170268   2.622   0.358   0.585  1.5190  1.7903 -0.2648
16259TIP3    H270269   2.524   0.415   0.686  0.4283  0.3225 -0.4689
16260TIP3   OH270270   5.898   6.587  11.069  0.3786 -0.4764 -0.3755
16260TIP3    H170271   5.828   6.536  11.027  0.8899 -0.8309 -0.8117
16260TIP3    H270272   5.860   6.617  11.151  0.3095 -2.2501  0.2728
16261TIP3   OH270273   2.867   3.710   4.735 -0.1113 -0.4627 -0.2124
16261TIP3    H170274   2.882   3.616   4.724 -0.5732 -0.7240  1.2769
16261TIP3    H270275   2.916   3.734   4.813 -2.4129 -0.0900  1.1759
16262TIP3   OH270276   4.124   5.241  11.341 -0.6362  0.2095  0.5482
16262TIP3    H170277   4.197   5.180  11.343  1.4054  2.5747  1.8554
16262TIP3    H270278   4.076   5.221  11.260  2.2561 -0.4689 -1.0330
16263TIP3   OH270279   2.870   6.239  16.256  0.6981  0.0604 -0.1925
16263TIP3    H170280   2.847   6.305  16.191 -0.1111 -0.2630 -0.2331
16263TIP3    H270281   2.925   6.286  16.319  0.2420  0.7385 -0.2956
16264TIP3   OH270282   1.352   4.003  15.472  0.3211  0.1220  0.1510
16264TIP3    H170283   1.268   4.014  15.517 -0.1312 -0.5826 -0.5184
16264TIP3    H270284   1.410   3.966  15.538 -0.1348 -0.2153  0.3622
16265TIP3   OH270285   0.973   1.884   1.452 -0.2763 -0.5407 -0.3210
16265TIP3    H170286   0.981   1.930   1.535 -0.7542 -0.1253 -0.4987
16265TIP3    H270287   0.896   1.827   1.463  0.9570 -2.1369  0.2820
16266TIP3   OH270288   3.026   0.413  15.150 -0.2372 -0.0907  0.4592
16266TIP3    H170289   3.084   0.399  15.225  0.8609  1.1092 -0.1551
16266TIP3    H270290   2.998   0.325  15.125  0.7711 -0.6301  1.1814
16267TIP3   OH270291   1.982   3.240  14.335 -0.1960 -0.3855 -0.6150
16267TIP3    H170292   2.044   3.269  14.403  0.1175  1.7704 -1.7832
16267TIP3    H270293   1.930   3.172  14.378  0.9046 -0.0286  1.3633
16268TIP3   OH270294   1.155   6.689  15.730 -0.1311 -0.5456  0.0128
16268TIP3    H170295   1.153   6.770  15.781 -0.4670 -0.5713  0.0473
16268TIP3    H270296   1.219   6.706  15.661 -1.2725  0.3107 -0.8743
16269TIP3   OH270297   3.130   3.540   3.508  0.3234 -0.4085  0.1687
16269TIP3    H170298   3.112   3.501   3.422  1.5386 -0.6037 -0.0095
16269TIP3    H270299   3.190   3.612   3.489 -1.4387  1.2122  0.5652
16270TIP3   OH270300   5.693   5.817   0.815 -0.3069 -0.0209 -0.8337
16270TIP3    H170301   5.700   5.738   0.868  0.6908 -0.7258 -1.9939
16270TIP3    H270302   5.614   5.861   0.847 -0.5923 -1.2306  0.1428
16271TIP3   OH270303   5.907   5.230  12.251 -0.1651  0.4667 -0.4786
16271TIP3    H170304   5.889   5.155  12.308  2.5814  0.3466  0.2865
16271TIP3    H270305   5.912   5.192  12.163  2.7684 -0.5861  0.0679
16272TIP3   OH270306   5.292   4.073  16.006  0.0150  0.1342 -0.4908
16272TIP3    H170307   5.208   4.071  15.959  0.1808  0.5469 -0.8055
16272TIP3    H270308   5.278   4.017  16.082 -0.8391  0.9257 -0.0552
16273TIP3   OH270309   5.767   5.311   4.981  0.1998 -0.2910  0.0354
16273TIP3    H170310   5.680   5.351   4.988  0.4552  0.2004  0.4453
16273TIP3    H270311   5.770   5.275   4.892 -1.1823 -2.0956  0.6947
16274TIP3   OH270312   3.126   1.133   3.403 -0.2661 -0.0550 -0.2177
16274TIP3    H170313   3.081   1.104   3.482 -0.1896 -0.6061 -0.3761
16274TIP3    H270314   3.093   1.222   3.388 -0.6822 -0.1479  0.1323
16275TIP3   OH270315   6.356   2.106  16.634  0.2464  0.3709  0.3493
16275TIP3    H170316   6.411   2.182  16.650  2.0715 -0.9842  0.6115
16275TIP3    H270317   6.295   2.104  16.708 -0.4281  2.1001 -0.1491
16276TIP3   OH270318   2.827   2.867  14.602 -0.2651  0.1180  0.1182
16276TIP3    H170319   2.822   2.829  14.514 -2.5707 -2.3079  1.2202
16276TIP3    H270320   2.901   2.823  14.643  0.2043  0.5356 -0.2773
16277TIP3   OH270321   0.719   5.543   2.238 -0.0263 -0.3139 -0.5486
16277TIP3    H170322   0.661   5.503   2.304 -0.0639 -1.2672 -1.1522
16277TIP3    H270323   0.807   5.518   2.266  0.2687  2.6288  1.3845
16278TIP3   OH270324   5.216   2.940  13.676  0.0933 -0.5537 -0.3548
16278TIP3    H170325   5.304   2.946  13.639  0.0212  0.3754 -0.3933
16278TIP3    H270326   5.218   3.000  13.751 -0.8601  0.3946 -1.0778
16279TIP3   OH270327   3.314   3.143  14.070 -0.4089  0.4583  0.2430
16279TIP3    H170328   3.393   3.166  14.022 -0.4920  1.0319  0.3828
16279TIP3    H270329   3.252   3.212  14.049 -0.4154  0.7698  1.2514
16280TIP3   OH270330   2.946   0.916  10.586 -0.5258 -0.4414 -0.9919
16280TIP3    H170331   2.930   0.845  10.649 -0.2405 -0.4140 -0.8886
16280TIP3    H270332   2.924   0.996  10.634  0.8205 -0.3270 -0.5283
16281TIP3   OH270333   4.313   1.726   5.965  0.3573  0.4654  0.2641
16281TIP3    H170334   4.378   1.785   5.929  1.0772  1.1685  2.6258
16281TIP3    H270335   4.281   1.770   6.044 -0.6858 -1.2869  0.8578
16282TIP3   OH270336   0.151   5.146  13.984 -0.1412 -0.1967  0.2867
16282TIP3    H170337   0.122   5.093  13.910  0.4365  1.1627 -0.9314
16282TIP3    H270338   0.143   5.088  14.060 -2.5068 -1.0356 -0.5433
16283TIP3   OH270339   0.157   2.477   6.327 -0.1722 -0.0737 -0.2590
16283TIP3    H170340   0.122   2.566   6.324 -2.6625 -0.9969 -0.4475
16283TIP3    H270341   0.224   2.475   6.259 -0.1430  1.6233 -0.3033
16284TIP3   OH270342   0.732   0.101  11.146  0.2785  0.6315 -0.2400
16284TIP3    H170343   0.775   0.033  11.095 -0.7029 -0.0797 -0.1388
16284TIP3    H270344   0.684   0.153  11.082  0.9424  1.1665 -0.3066
16285TIP3   OH270345   3.664   0.576   0.198 -0.1862  0.2895  0.4670
16285TIP3    H170346   3.624   0.617   0.121 -0.8253  0.2236  0.7697
16285TIP3    H270347   3.735   0.522   0.161 -1.0132 -0.3929 -0.1506
16286TIP3   OH270348   3.810   3.900   1.494  0.2213  0.4272  0.6021
16286TIP3    H170349   3.792   3.809   1.518 -1.5470  0.7392  0.4859
16286TIP3    H270350   3.871   3.930   1.561 -0.5795 -0.3080  1.6841
16287TIP3   OH270351   6.696   3.457   6.259  0.2550  0.0517 -0.3596
16287TIP3    H170352   6.725   3.523   6.322 -3.2189 -0.3500  1.7663
16287TIP3    H270353   6.718   3.374   6.300 -1.1969 -0.1861 -0.0169
16288TIP3   OH270354   3.488   1.282   4.893  0.3035  0.2104 -0.1968
16288TIP3    H170355   3.569   1.307   4.848  0.9895  0.2406  1.0050
16288TIP3    H270356   3.506   1.302   4.985 -1.5724  1.4796 -0.0855
16289TIP3   OH270357   6.360   3.875   2.411 -0.4158 -0.1577  0.0548
16289TIP3    H170358   6.264   3.881   2.407 -0.3607  0.0968 -1.0047
16289TIP3    H270359   6.379   3.784   2.389 -0.3330  0.2084 -1.4380
16290TIP3   OH270360   1.754   5.776   2.370 -0.7503 -1.1157 -0.1280
16290TIP3    H170361   1.762   5.747   2.279  0.6717  0.3264 -0.5012
16290TIP3    H270362   1.837   5.751   2.410 -0.0844  1.0654 -0.0831
16291TIP3   OH270363   0.375   6.491   2.329 -0.0731  0.4728 -0.8619
16291TIP3    H170364   0.458   6.452   2.360 -0.3545  1.0229  0.6318
16291TIP3    H270365   0.380   6.485   2.234  1.7828  0.6639 -0.8026
16292TIP3   OH270366   4.165   2.223  15.855 -0.6252 -0.4217  0.2670
16292TIP3    H170367   4.074   2.193  15.856 -0.9652  0.6129  0.9184
16292TIP3    H270368   4.217   2.144  15.870 -1.3951 -1.0735 -0.4584
16293TIP3   OH270369   0.966   6.745  11.455  0.0083 -0.6207 -0.2771
16293TIP3    H170370   0.897   6.806  11.482  1.5242  1.6818 -1.4005
16293TIP3    H270371   0.920   6.674  11.412 -1.8074 -0.2010  0.9091
16294TIP3   OH270372   6.803   3.832   1.952 -0.2814 -0.2145  0.7631
16294TIP3    H170373   6.890   3.873   1.956 -0.3336 -0.0173 -0.1006
16294TIP3    H270374   6.777   3.823   2.044 -0.6504  2.5056  0.9641
16295TIP3   OH270375   4.656   2.083   6.946 -0.0151 -0.8503  0.0534
16295TIP3    H170376   4.611   2.162   6.915 -0.6399 -0.8671  0.8744
16295TIP3    H270377   4.719   2.062   6.878  1.1984  1.2295  0.5067
16296TIP3   OH270378   4.817   3.417  13.717  0.1945  0.3156 -0.6293
16296TIP3    H170379   4.903   3.438  13.681  0.7254  1.3964  1.2058
16296TIP3    H270380   4.799   3.487  13.781 -1.6650 -0.3499 -0.3778
16297TIP3   OH270381   0.628   6.768  16.856  0.1902 -0.4129  0.5463
16297TIP3    H170382   0.559   6.746  16.794  1.7849 -2.3435 -0.5846
16297TIP3    H270383   0.611   6.860  16.879 -1.5274 -0.2377 -1.2621
16298TIP3   OH270384   2.640   2.425   3.491  0.4096 -0.5370 -0.3069
16298TIP3    H170385   2.583   2.501   3.482  0.6787 -0.6368 -3.9163
16298TIP3    H270386   2.596   2.356   3.441  2.1557 -1.4987 -0.5806
16299TIP3   OH270387   5.195   6.089  10.251  0.2949  0.1298 -0.3339
16299TIP3    H170388   5.182   6.175  10.290 -0.0177 -0.3365  0.6026
16299TIP3    H270389   5.164   6.027  10.317  1.4784 -0.7475 -0.5768
16300TIP3   OH270390   0.263   3.923  10.897  0.5727 -0.2845 -0.6008
16300TIP3    H170391   0.234   4.012  10.916  0.6884 -0.5465  0.8712
16300TIP3    H270392   0.282   3.924  10.804  0.6506  1.2510 -0.5892
16301TIP3   OH270393   0.346   6.487  17.217 -0.1884  0.1440 -0.1467
16301TIP3    H170394   0.308   6.562  17.262 -3.6486 -1.8944  0.4472
16301TIP3    H270395   0.297   6.480  17.135  1.3022 -0.4614 -1.0264
16302TIP3   OH270396   2.648   0.852  15.297 -0.0766 -0.9511 -0.6250
16302TIP3    H170397   2.603   0.936  15.294 -0.1572 -0.9515  0.4465
16302TIP3    H270398   2.656   0.826  15.205 -1.0919 -0.3369 -0.8908
16303TIP3   OH270399   2.116   3.537   5.701  0.2085  0.3042  0.0484
16303TIP3    H170400   2.211   3.533   5.688  0.2485  1.0855  0.0748
16303TIP3    H270401   2.103   3.512   5.793  0.4073  0.3794  0.0970
16304TIP3   OH270402   3.109   5.890  14.710 -0.1978  0.2907 -0.1068
16304TIP3    H170403   3.093   5.979  14.680 -1.7097  1.0546  2.7285
16304TIP3    H270404   3.026   5.844  14.697 -0.4437  0.2489  1.4866
16305TIP3   OH270405   1.223   3.005   4.151 -1.0424  0.1653 -0.1453
16305TIP3    H170406   1.160   2.997   4.080 -0.9741 -0.6301 -0.1133
16305TIP3    H270407   1.308   2.995   4.109 -1.0553 -1.9009  0.2694
16306TIP3   OH270408   0.486   2.110   2.869  0.0855 -0.0215 -0.3553
16306TIP3    H170409   0.520   2.175   2.808  0.5560 -1.0046 -1.1401
16306TIP3    H270410   0.560   2.090   2.927 -0.4616  1.1821  0.7957
16307TIP3   OH270411   3.348   2.162   5.154 -0.3665  0.7016 -0.2783
16307TIP3    H170412   3.442   2.151   5.145  0.2882  3.5891  2.0643
16307TIP3    H270413   3.312   2.075   5.142  2.9223 -1.1051  2.1051
16308TIP3   OH270414   0.785   3.901  12.266 -0.2091  0.1393 -0.3111
16308TIP3    H170415   0.815   3.813  12.243 -0.1790  0.1384 -0.2685
16308TIP3    H270416   0.701   3.909  12.222 -0.3066  0.0138 -0.1475
16309TIP3   OH270417   5.748   4.633   4.643 -0.2568  0.0358 -0.6222
16309TIP3    H170418   5.733   4.648   4.550 -1.1438  0.8061 -0.3624
16309TIP3    H270419   5.740   4.720   4.683  0.3214 -0.2603  0.1390
16310TIP3   OH270420   2.073   4.828  15.907 -0.3011  0.8699 -0.4060
16310TIP3    H170421   2.092   4.773  15.831  0.2606 -0.6334  0.7958
16310TIP3    H270422   2.010   4.892  15.875  0.6478  0.8523 -2.3790
16311TIP3   OH270423   5.202   1.399  12.809  0.1118 -0.3771 -0.3143
16311TIP3    H170424   5.190   1.455  12.732 -0.8385 -0.7609 -0.4570
16311TIP3    H270425   5.164   1.315  12.784  0.7610 -0.8257  0.2004
16312TIP3   OH270426   5.988   2.527   0.933  0.2084 -0.1230  1.0310
16312TIP3    H170427   5.988   2.455   0.996  0.4061 -0.0120  1.1574
16312TIP3    H270428   6.060   2.507   0.873 -0.2305 -0.4374  0.5995
16313TIP3   OH270429   3.305   5.854   3.831  0.3492 -0.3822  0.9868
16313TIP3    H170430   3.212   5.849   3.807  0.6921 -0.1942 -0.4346
16313TIP3    H270431   3.347   5.788   3.776  1.4354  1.3665 -0.3151
16314TIP3   OH270432   2.964   1.637   1.372  0.3221 -0.5524  1.0456
16314TIP3    H170433   2.892   1.668   1.316  0.0326 -2.4218  0.3509
16314TIP3    H270434   3.042   1.679   1.335  0.0696 -1.3822 -0.4897
16315TIP3   OH270435   6.513   4.153  10.870  1.1038  0.4796  0.5060
16315TIP3    H170436   6.533   4.241  10.837 -1.6981  0.4837 -1.3710
16315TIP3    H270437   6.540   4.094  10.799 -0.5984  0.1396  0.1194
16316TIP3   OH270438   2.957   3.617  12.779 -0.0200 -0.1569  0.2224
16316TIP3    H170439   2.890   3.549  12.781  0.7748 -0.9184  1.3714
16316TIP3    H270440   3.028   3.579  12.728 -0.5634  0.7746 -1.2847
16317TIP3   OH270441   1.524   1.101  16.015  0.0333  0.1296  0.4665
16317TIP3    H170442   1.586   1.171  16.037 -0.3388  0.2017  1.2851
16317TIP3    H270443   1.511   1.110  15.921  0.1269  1.0482  0.5319
16318TIP3   OH270444   3.830   0.898  15.606  0.4188  0.2883 -0.3065
16318TIP3    H170445   3.819   0.873  15.514  2.7999 -1.3071 -0.2099
16318TIP3    H270446   3.803   0.820  15.655  0.6494  0.5870  0.2959
16319TIP3   OH270447   6.233   4.065   5.216 -0.3526  0.2673 -0.2746
16319TIP3    H170448   6.268   4.053   5.128  0.2582 -0.2969  0.0376
16319TIP3    H270449   6.175   3.990   5.229 -1.5488  1.1004 -0.7207
16320TIP3   OH270450   4.836   6.523   4.755  0.0373  0.1024 -0.4132
16320TIP3    H170451   4.773   6.453   4.771  2.3435 -1.9246  0.0328
16320TIP3    H270452   4.885   6.494   4.678 -0.2965  2.2028 -1.4651
16321TIP3   OH270453   1.803   4.794   0.668 -0.4077 -0.2887 -0.1307
16321TIP3    H170454   1.824   4.704   0.692  0.3673  0.1544  0.9100
16321TIP3    H270455   1.887   4.840   0.674 -0.8483  0.5570 -0.3817
16322TIP3   OH270456   0.139   1.714  13.904 -0.2773  0.3869  0.1683
16322TIP3    H170457   0.222   1.668  13.893  0.6701  1.4263  2.7605
16322TIP3    H270458   0.153   1.800  13.863  0.2420  0.8815  1.3530
16323TIP3   OH270459   1.750   4.300   4.376 -0.2796 -0.5904  0.2707
16323TIP3    H170460   1.699   4.329   4.301  1.3406 -0.9948 -1.0235
16323TIP3    H270461   1.718   4.212   4.395 -2.2961  0.3788  1.5502
16324TIP3   OH270462   5.003   2.170   0.569  0.1675 -0.3267  0.3189
16324TIP3    H170463   4.974   2.080   0.588  0.3227 -0.4310  0.0653
16324TIP3    H270464   4.985   2.218   0.649 -1.0744 -0.2990  0.0322
16325TIP3   OH270465   4.648   0.363   0.122 -0.0068 -0.3168  0.1731
16325TIP3    H170466   4.707   0.289   0.107  0.0153 -0.4305  0.8125
16325TIP3    H270467   4.662   0.420   0.045  0.5003 -0.6262  0.0295
16326TIP3   OH270468   5.484   2.196   0.706  0.0004  0.1348 -0.1863
16326TIP3    H170469   5.532   2.279   0.710 -1.0623  0.6997  1.0258
16326TIP3    H270470   5.488   2.161   0.795  0.7988 -1.3450 -0.7740
16327TIP3   OH270471   6.647   2.005   3.144  0.8723 -0.0792 -0.6332
16327TIP3    H170472   6.664   1.964   3.229  3.4133  1.4283 -0.3730
16327TIP3    H270473   6.605   2.088   3.165 -0.4087 -0.6399 -0.9594
16328TIP3   OH270474   1.849   6.431   6.415  0.0472  0.4348  0.2373
16328TIP3    H170475   1.781   6.395   6.358 -0.1461 -1.1336  1.4184
16328TIP3    H270476   1.815   6.515   6.444  0.5998  1.7605 -2.7633
16329TIP3   OH270477   4.356   5.646  15.206 -0.2142  0.0870  0.2603
16329TIP3    H170478   4.265   5.667  15.188 -0.2222 -0.5690 -0.4843
16329TIP3    H270479   4.385   5.713  15.267 -0.7866  1.1175 -0.5958
16330TIP3   OH270480   2.206   3.250   4.537  0.2764  0.2891 -0.3320
16330TIP3    H170481   2.270   3.309   4.497  1.0571 -1.3033 -1.4772
16330TIP3    H270482   2.222   3.165   4.495 -0.7198 -0.7808  1.4013
16331TIP3   OH270483   1.194   0.005   1.467 -0.0431 -0.5649  1.1010
16331TIP3    H170484   1.257   0.071   1.438 -0.2617 -1.2520 -1.0231
16331TIP3    H270485   1.213  -0.006   1.560 -0.0406  2.5014  1.5196
16332TIP3   OH270486   1.497   3.837   3.170 -0.0880 -0.2931 -0.4838
16332TIP3    H170487   1.541   3.821   3.087  0.3748 -1.3814 -0.0429
16332TIP3    H270488   1.404   3.843   3.149  0.0846  0.0646 -1.1535
16333TIP3   OH270489   4.314   1.589  12.164 -0.4358  0.9196  0.0815
16333TIP3    H170490   4.357   1.635  12.236  2.2279  0.6516 -1.2512
16333TIP3    H270491   4.292   1.503  12.201  0.4162  0.9736  0.7427
16334TIP3   OH270492   0.018   6.446   1.290  0.3682  0.4156  0.8168
16334TIP3    H170493   0.031   6.378   1.356  0.6342  0.6120  0.9713
16334TIP3    H270494  -0.074   6.471   1.298  0.2982  0.1541  0.8345
16335TIP3   OH270495   1.261   0.294  11.744  0.0917 -0.0612 -0.2725
16335TIP3    H170496   1.225   0.205  11.743  0.2469 -0.1206 -1.8425
16335TIP3    H270497   1.321   0.296  11.669 -0.6859  1.6725 -0.8704
16336TIP3   OH270498   3.658   6.649   0.129  0.3411 -0.2645  0.3074
16336TIP3    H170499   3.651   6.710   0.056  2.2258 -0.3035  0.0825
16336TIP3    H270500   3.667   6.704   0.207  0.5019 -0.2478  0.2761
16337TIP3   OH270501   0.373   0.907   2.944  0.0376 -0.4008  0.2271
16337TIP3    H170502   0.316   0.835   2.915  0.5291 -1.1309  1.0250
16337TIP3    H270503   0.382   0.892   3.039 -1.6275  1.9813  0.8051
16338TIP3   OH270504   3.686   4.972   1.076 -0.2829  0.1445 -0.2717
16338TIP3    H170505   3.706   5.066   1.075 -0.9685  0.3087  1.0588
16338TIP3    H270506   3.652   4.955   0.988 -0.4224  1.1994 -0.4368
16339TIP3   OH270507   3.924   1.449  12.883  0.6650 -0.7690  0.4426
16339TIP3    H170508   3.905   1.465  12.790  1.5366 -3.2043 -0.1869
16339TIP3    H270509   4.008   1.493  12.898  0.3627 -0.0891  0.1715
16340TIP3   OH270510   2.780   5.627  11.400  0.2898 -0.0378  0.1361
16340TIP3    H170511   2.723   5.684  11.348  0.4002 -0.9015 -0.9503
16340TIP3    H270512   2.805   5.681  11.475 -0.0148  1.1724 -0.6089
16341TIP3   OH270513   6.332   1.242   1.741 -0.0407  0.0352 -0.1355
16341TIP3    H170514   6.263   1.184   1.709 -0.2589  1.0668 -1.5856
16341TIP3    H270515   6.323   1.239   1.836 -0.6125 -1.6033 -0.2286
16342TIP3   OH270516   0.233   0.051  11.818  0.0670  0.2931 -0.6188
16342TIP3    H170517   0.301  -0.012  11.843  2.1970  1.9647 -2.1017
16342TIP3    H270518   0.175   0.002  11.759  1.2338 -0.5065 -1.1061
16343TIP3   OH270519   4.796   1.049  16.087 -0.1509  0.0434 -0.1157
16343TIP3    H170520   4.778   1.140  16.061  0.2622 -0.1439 -1.0681
16343TIP3    H270521   4.850   1.014  16.016 -1.9902 -1.5700 -0.7501
16344TIP3   OH270522   2.319   5.523  15.146  0.0213  0.2604 -0.0101
16344TIP3    H170523   2.385   5.592  15.155 -0.0520  0.2683  0.4419
16344TIP3    H270524   2.239   5.569  15.125 -0.1365  0.3532  0.7786
16345TIP3   OH270525   2.696   2.114  14.467 -0.1214  0.6391  0.0236
16345TIP3    H170526   2.769   2.173  14.485  0.0902  0.0753  1.0511
16345TIP3    H270527   2.731   2.026  14.485 -1.3856  0.4474  1.6680
16346TIP3   OH270528   1.339   2.790  17.273  0.7149 -0.4777 -0.1927
16346TIP3    H170529   1.265   2.816  17.328 -0.2930 -2.2920 -0.6447
16346TIP3    H270530   1.348   2.862  17.209 -0.3541 -0.0241  0.1564
16347TIP3   OH270531   0.391   5.803   0.293 -0.6569  0.2742 -0.3289
16347TIP3    H170532   0.305   5.762   0.287 -1.1326  1.5430 -2.3039
16347TIP3    H270533   0.374   5.896   0.304  0.4290  0.8395 -3.0063
16348TIP3   OH270534   3.657   4.241  13.778 -0.2424  0.6431  0.3334
16348TIP3    H170535   3.694   4.157  13.804  1.5577  1.5546  0.8412
16348TIP3    H270536   3.588   4.258  13.841  0.7925  0.5106  1.5189
16349TIP3   OH270537   5.879   0.952  14.286 -0.0726  0.2465 -0.3059
16349TIP3    H170538   5.815   1.017  14.314  0.9244  1.2935 -0.4082
16349TIP3    H270539   5.867   0.878  14.347  0.5726  1.5910  1.4919
16350TIP3   OH270540   6.579   3.727   2.642 -0.1928  0.1348 -0.0837
16350TIP3    H170541   6.491   3.743   2.676 -0.3261  3.4082 -1.8001
16350TIP3    H270542   6.637   3.772   2.703  0.1418 -0.2435 -0.1189
16351TIP3   OH270543   0.558   5.046  12.716 -0.2319 -0.4538 -0.2454
16351TIP3    H170544   0.609   5.081  12.643  3.0930 -3.7082  0.3922
16351TIP3    H270545   0.496   4.986  12.675 -0.9909  0.6290 -0.7013
16352TIP3   OH270546   0.856   5.958  11.628 -0.2070  0.4059 -0.2278
16352TIP3    H170547   0.929   5.979  11.570 -0.2278  1.2746  0.0546
16352TIP3    H270548   0.870   5.866  11.651  1.5537  0.9112  0.8708
16353TIP3   OH270549   2.573   5.677   6.324  0.7461  0.0090  0.6151
16353TIP3    H170550   2.621   5.750   6.364  0.1124  1.2687 -0.9007
16353TIP3    H270551   2.490   5.715   6.296 -0.1015 -1.5920  0.9208
16354TIP3   OH270552   0.634   3.384  11.680 -0.8121  0.4388  0.0157
16354TIP3    H170553   0.649   3.416  11.591 -1.9063  1.1120  0.0580
16354TIP3    H270554   0.698   3.433  11.733 -1.4870  1.4931 -0.1272
16355TIP3   OH270555   4.986   2.400   5.831  0.2872  0.4407 -0.8175
16355TIP3    H170556   5.060   2.357   5.789  0.7248  1.1180 -0.7439
16355TIP3    H270557   5.025   2.472   5.881 -0.1880 -0.4860  0.9558
16356TIP3   OH270558   6.483   2.372   4.683 -0.0957  0.0082  0.2684
16356TIP3    H170559   6.524   2.458   4.671 -2.8213  1.1906 -1.1081
16356TIP3    H270560   6.453   2.372   4.773  1.4206 -0.2329  0.7990
16357TIP3   OH270561   3.873   4.796   4.794 -0.5231  0.1767 -0.2586
16357TIP3    H170562   3.918   4.880   4.783  0.2715 -0.2400 -0.2074
16357TIP3    H270563   3.904   4.742   4.721 -0.4604 -0.3185  0.1291
16358TIP3   OH270564   4.303   1.415   6.057  0.0632 -0.2592  0.3304
16358TIP3    H170565   4.311   1.497   6.009 -1.5259  0.6609  1.5877
16358TIP3    H270566   4.341   1.349   5.999  1.6536  1.3931 -0.5611
16359TIP3   OH270567   4.660   4.922  15.871 -1.0858 -0.6875  0.1694
16359TIP3    H170568   4.678   4.994  15.809  0.2430 -1.5882 -0.5254
16359TIP3    H270569   4.589   4.955  15.926 -1.0717  0.8371 -0.6846
16360TIP3   OH270570   0.729   6.141   0.587 -0.3595  0.0509 -0.0291
16360TIP3    H170571   0.668   6.068   0.593 -0.6828  0.1903 -1.4638
16360TIP3    H270572   0.733   6.176   0.676 -1.0683 -1.0023  0.4298
16361TIP3   OH270573   1.169   3.708  15.140  0.2428  0.0128 -0.2684
16361TIP3    H170574   1.177   3.704  15.044  0.8258 -0.9932 -0.1804
16361TIP3    H270575   1.141   3.620  15.166 -0.6335  0.4827  0.4308
16362TIP3   OH270576   2.913   3.122   5.313  0.3170 -0.0248  0.3049
16362TIP3    H170577   2.896   3.030   5.292 -0.2454  0.0349  0.4848
16362TIP3    H270578   2.965   3.154   5.239 -0.4731 -0.1896 -0.3348
16363TIP3   OH270579   5.315   3.805   3.172  0.1216 -0.1533 -0.5823
16363TIP3    H170580   5.252   3.800   3.244  0.7295  0.4909  0.0020
16363TIP3    H270581   5.261   3.812   3.093 -0.5429 -0.0410 -0.1191
16364TIP3   OH270582   1.416   5.762   6.036  0.4259  0.0912 -0.1012
16364TIP3    H170583   1.391   5.792   5.949 -1.2868 -1.0373 -0.0437
16364TIP3    H270584   1.414   5.666   6.029 -1.2601 -0.0225  1.5586
16365TIP3   OH270585   0.378   5.380   4.946 -0.0399 -0.2127  0.2150
16365TIP3    H170586   0.356   5.290   4.970 -1.2636  0.3170  1.1254
16365TIP3    H270587   0.307   5.432   4.981  0.8299  1.1588 -0.0215
16366TIP3   OH270588   4.410   2.059  11.884  0.2661  0.0428 -0.2466
16366TIP3    H170589   4.440   2.113  11.810 -0.3298  1.3399  0.4469
16366TIP3    H270590   4.373   2.122  11.946 -0.9944 -1.2265  0.3049
16367TIP3   OH270591   0.759   5.045   0.141 -0.3800  0.1865 -0.3885
16367TIP3    H170592   0.731   5.134   0.121 -0.0787 -0.1526 -2.3914
16367TIP3    H270593   0.788   5.010   0.057  0.3908 -1.4841  0.5610
16368TIP3   OH270594   5.423   5.064  14.321 -0.4916 -0.0537  0.7509
16368TIP3    H170595   5.386   5.112  14.248  0.6029  1.0967  0.9326
16368TIP3    H270596   5.502   5.112  14.344  0.8758 -2.1741  0.6723
16369TIP3   OH270597   6.707   2.304  15.986 -0.2437 -0.6395 -0.6598
16369TIP3    H170598   6.769   2.353  15.933 -0.3874  1.4473  1.0167
16369TIP3    H270599   6.754   2.284  16.067 -1.5383  0.4370  0.3781
16370TIP3   OH270600   4.690   2.702   2.280 -0.5121  0.2827 -0.1102
16370TIP3    H170601   4.640   2.782   2.266 -1.1843 -0.1402 -0.1111
16370TIP3    H270602   4.772   2.717   2.232  0.4656  2.0163  2.0144
16371TIP3   OH270603   3.830   3.700   2.250  0.3681  0.1176  0.8568
16371TIP3    H170604   3.851   3.703   2.343  0.8619 -2.2697  0.8362
16371TIP3    H270605   3.890   3.636   2.213 -0.9966 -0.2567 -0.7840
16372TIP3   OH270606   4.621   1.226  12.524 -0.3701  0.4572 -0.8455
16372TIP3    H170607   4.532   1.198  12.544 -0.0644 -0.2295 -0.4325
16372TIP3    H270608   4.610   1.308  12.475 -1.1762  1.2570  0.6342
16373TIP3   OH270609   5.119   4.145   5.087 -0.3463  0.8204  0.2995
16373TIP3    H170610   5.195   4.192   5.054  0.7000 -0.6668  0.5496
16373TIP3    H270611   5.133   4.139   5.182  0.4572 -1.5487  0.0734
16374TIP3   OH270612   2.659   5.474  13.383 -0.0534 -0.4110  0.2619
16374TIP3    H170613   2.645   5.439  13.295  0.6947  1.1590 -0.4958
16374TIP3    H270614   2.576   5.458  13.429 -1.3910  1.1334 -1.5485
16375TIP3   OH270615   5.835   4.412  12.603 -0.4792 -0.1756 -0.0070
16375TIP3    H170616   5.785   4.491  12.624 -1.2915 -0.2959 -1.4616
16375TIP3    H270617   5.860   4.423  12.511 -1.5398 -2.1266 -0.5362
16376TIP3   OH270618   5.879   0.111  15.273  0.3328  0.2050  0.0446
16376TIP3    H170619   5.951   0.071  15.225 -0.3440  0.5890 -1.3102
16376TIP3    H270620   5.869   0.057  15.351  2.1229  0.1893  0.2898
16377TIP3   OH270621   0.332   2.109   1.950 -0.3235 -0.4725 -0.2670
16377TIP3    H170622   0.380   2.105   2.032  0.4103 -0.0187 -0.6661
16377TIP3    H270623   0.246   2.074   1.970 -0.6129  0.9388  1.0340
16378TIP3   OH270624   1.602   3.024  14.548 -0.1134  0.2699  0.2390
16378TIP3    H170625   1.614   2.931  14.569  0.6670  0.2442 -0.3288
16378TIP3    H270626   1.570   3.025  14.458 -0.0127  0.5563  0.2060
16379TIP3   OH270627   3.620   4.362   4.093  0.1904  0.0530 -0.5532
16379TIP3    H170628   3.586   4.283   4.134 -1.8208  0.4781 -1.3220
16379TIP3    H270629   3.632   4.423   4.165  1.4238 -0.8341 -0.0001
16380TIP3   OH270630   5.852   4.927  11.370  0.0259  0.0177  0.0849
16380TIP3    H170631   5.829   4.884  11.287 -1.2568 -0.5844  0.7332
16380TIP3    H270632   5.938   4.891  11.393  0.1103 -0.2690 -0.6713
16381TIP3   OH270633   5.531   1.678   4.432  0.2429  0.0135 -0.0975
16381TIP3    H170634   5.518   1.616   4.504 -0.4971  0.0234 -0.2212
16381TIP3    H270635   5.447   1.680   4.387  0.0806  1.5446  0.2566
16382TIP3   OH270636   6.285   3.980  15.958  0.3443  0.1085  0.3366
16382TIP3    H170637   6.198   4.007  15.927 -1.2473 -2.4875  2.2944
16382TIP3    H270638   6.325   3.938  15.882 -0.9239 -0.4023 -0.0789
16383TIP3   OH270639   0.178   4.970   1.264  0.4887  0.3381 -0.2873
16383TIP3    H170640   0.206   5.053   1.226 -1.0179  0.3944 -1.3040
16383TIP3    H270641   0.243   4.907   1.232  1.9207  1.1766  0.8927
16384TIP3   OH270642   1.921   5.830  15.470  0.6053 -0.2519 -0.8513
16384TIP3    H170643   1.832   5.838  15.435  0.5139  0.5268 -0.4501
16384TIP3    H270644   1.920   5.881  15.550  1.5155  0.0568 -1.0242
16385TIP3   OH270645   0.142   3.641  13.023  0.4832 -0.3177 -0.3831
16385TIP3    H170646   0.065   3.589  13.045  1.1637 -0.7936  0.9663
16385TIP3    H270647   0.184   3.595  12.951 -0.4831 -0.0577 -1.1196
16386TIP3   OH270648   6.554   4.217  14.292  0.6583 -0.2475 -0.0842
16386TIP3    H170649   6.538   4.183  14.204 -2.1405 -2.0006  1.0164
16386TIP3    H270650   6.649   4.217  14.301  0.9662 -0.6677 -2.8558
16387TIP3   OH270651   3.750   0.147   2.169  0.5526 -0.0028 -0.6601
16387TIP3    H170652   3.811   0.201   2.219  0.0156  0.0727 -0.0761
16387TIP3    H270653   3.780   0.057   2.181 -0.6923 -0.1706  1.3955
16388TIP3   OH270654   2.080   5.390  13.927 -0.7677  0.1821  0.0573
16388TIP3    H170655   2.111   5.359  13.842  0.0887 -1.2624  0.8635
16388TIP3    H270656   1.985   5.385  13.921 -0.7785  1.9370 -1.4708
16389TIP3   OH270657   4.638   1.796  17.052  0.2432 -0.1053  0.3771
16389TIP3    H170658   4.696   1.858  17.008 -0.6666  0.1307 -0.4941
16389TIP3    H270659   4.668   1.710  17.023  1.1147 -0.0621  1.1096
16390TIP3   OH270660   1.314   2.226   2.942  0.1691 -0.0354  0.4644
16390TIP3    H170661   1.310   2.220   2.847  2.4853 -1.0385  0.3959
16390TIP3    H270662   1.312   2.136   2.973  1.1658  0.2092  1.2707
16391TIP3   OH270663   6.539   3.031  13.966  0.4862 -0.4678  0.0653
16391TIP3    H170664   6.580   3.026  14.053  0.7791  0.8872  0.0274
16391TIP3    H270665   6.446   3.023  13.984  0.5116  0.2738  0.5651
16392TIP3   OH270666   6.735   4.712  16.704 -0.2909 -0.0112 -0.0908
16392TIP3    H170667   6.711   4.763  16.782 -0.9159 -0.5380  0.0693
16392TIP3    H270668   6.776   4.776  16.645 -1.1018  0.6892  0.0894
16393TIP3   OH270669   4.490   2.322   0.318 -0.3230 -0.1022 -0.0684
16393TIP3    H170670   4.455   2.318   0.406  1.7443  0.0811  0.7994
16393TIP3    H270671   4.581   2.348   0.330 -0.6739  2.3649 -2.4348
16394TIP3   OH270672   3.068   4.571   4.155 -0.6321  0.7575 -0.2021
16394TIP3    H170673   3.154   4.608   4.134 -0.9889  0.8479 -1.5110
16394TIP3    H270674   3.063   4.575   4.251  0.7566  0.8954 -0.1237
16395TIP3   OH270675   4.136   2.196  10.993 -0.1636  0.1676 -0.3992
16395TIP3    H170676   4.099   2.118  11.034 -2.2761  0.7314 -1.1512
16395TIP3    H270677   4.126   2.265  11.059  1.9612 -0.2168  0.3755
16396TIP3   OH270678   2.523   4.688   6.210  0.1221  0.8207  0.0480
16396TIP3    H170679   2.484   4.746   6.276  0.6205  1.9007 -0.5987
16396TIP3    H270680   2.584   4.744   6.162  2.8167 -0.9503  1.3122
16397TIP3   OH270681   2.021   6.095  15.973 -0.8716  0.5226 -0.3210
16397TIP3    H170682   1.999   6.120  15.883  0.5483  0.1888 -0.7717
16397TIP3    H270683   2.076   6.166  16.005 -1.3651  0.6345  0.2825
16398TIP3   OH270684   3.275   6.055   5.573 -0.2251  0.1612  0.5054
16398TIP3    H170685   3.357   6.006   5.569 -0.4984 -0.2019 -1.3587
16398TIP3    H270686   3.207   5.988   5.570 -0.6263  0.6232 -3.7123
16399TIP3   OH270687   0.051   5.900  14.699 -0.5542 -0.0451 -0.2581
16399TIP3    H170688   0.104   5.944  14.766 -1.9385 -1.7549  2.0424
16399TIP3    H270689   0.000   5.970  14.659  1.9198  1.3272 -1.0964
16400TIP3   OH270690   1.161   2.761  16.648 -0.1104 -0.6260  0.1540
16400TIP3    H170691   1.139   2.667  16.647  0.9167 -0.8788  0.7191
16400TIP3    H270692   1.229   2.769  16.714  0.3808  0.3960 -0.4591
16401TIP3   OH270693   2.899   6.585   0.302  0.2195 -1.2307  0.6002
16401TIP3    H170694   2.905   6.630   0.218 -0.2148  0.3568  1.3980
16401TIP3    H270695   2.947   6.641   0.363 -0.6373 -1.6673  1.6923
16402TIP3   OH270696   0.294   1.182  14.865 -0.3384  0.3440 -0.1460
16402TIP3    H170697   0.263   1.273  14.864  0.6268  0.6854 -0.0696
16402TIP3    H270698   0.389   1.190  14.865 -0.2384 -0.6614  1.6062
16403TIP3   OH270699   0.078   4.849   5.077 -0.0606 -1.1096  0.4868
16403TIP3    H170700  -0.014   4.820   5.081  0.8804 -3.9317  3.1077
16403TIP3    H270701   0.083   4.921   5.139 -1.1700  1.1896 -2.0060
16404TIP3   OH270702   1.410   2.106   3.518 -0.4805 -0.3329 -0.0226
16404TIP3    H170703   1.345   2.090   3.450 -0.6279 -0.0048  0.0395
16404TIP3    H270704   1.458   2.024   3.525 -1.5359 -0.9231  0.6174
16405TIP3   OH270705   4.177   4.034   1.140 -0.1477 -0.1911  0.2766
16405TIP3    H170706   4.202   4.028   1.047  0.8391 -0.0322  0.5276
16405TIP3    H270707   4.236   3.973   1.184 -1.7133 -1.4972  0.5968
16406TIP3   OH270708   2.317   1.597   5.275  0.1275  0.3814 -0.3131
16406TIP3    H170709   2.348   1.661   5.212 -2.2313  0.7693 -1.1450
16406TIP3    H270710   2.390   1.536   5.286  1.7803  2.2374 -0.7985
16407TIP3   OH270711   6.807   2.430   3.206  0.8206 -0.6259  0.0625
16407TIP3    H170712   6.796   2.491   3.133 -1.3089  0.3254  1.1051
16407TIP3    H270713   6.860   2.479   3.270 -0.1240 -0.1648  0.5160
16408TIP3   OH270714   6.323   4.113   0.528 -0.3258 -0.1192 -0.5289
16408TIP3    H170715   6.333   4.102   0.434 -0.3396  0.7686 -0.6383
16408TIP3    H270716   6.264   4.042   0.554 -1.4870  0.5018 -1.4206
16409TIP3   OH270717   2.368   0.055   1.957 -0.5489 -0.2625 -0.0069
16409TIP3    H170718   2.343   0.063   1.865  0.3331  1.0574 -0.1451
16409TIP3    H270719   2.378   0.146   1.988  0.2908 -0.7032  1.0724
16410TIP3   OH270720   1.885   3.114  13.620 -0.1152 -0.6824  0.2049
16410TIP3    H170721   1.935   3.157  13.689  1.0789 -1.3706 -0.2059
16410TIP3    H270722   1.844   3.185  13.572  1.6388  0.0203 -0.3211
16411TIP3   OH270723   1.099   2.670  14.221 -0.3768  0.8091 -0.2121
16411TIP3    H170724   1.022   2.631  14.262 -0.6387  0.6100 -0.8721
16411TIP3    H270725   1.088   2.650  14.128  0.9659 -0.0676 -0.1954
16412TIP3   OH270726   5.958   1.765   4.646  0.0357  0.4501 -0.0369
16412TIP3    H170727   6.002   1.759   4.731 -0.4197  1.0201  0.2436
16412TIP3    H270728   5.865   1.753   4.667 -0.4959  4.1059  0.0334
16413TIP3   OH270729   6.782   4.773  10.251  0.1840  0.3160 -0.0941
16413TIP3    H170730   6.723   4.818  10.191  0.1216 -1.1206 -1.1304
16413TIP3    H270731   6.742   4.688  10.266  1.2623 -0.1273  0.3479
16414TIP3   OH270732   2.428   5.829   5.417 -0.0767 -0.1524  0.1214
16414TIP3    H170733   2.455   5.909   5.464  1.1375 -0.2147 -0.4449
16414TIP3    H270734   2.485   5.761   5.453 -2.6735 -1.2783  2.2946
16415TIP3   OH270735   4.295   1.363   0.908  0.4409 -0.7753  0.0639
16415TIP3    H170736   4.325   1.321   0.989  2.8302 -1.3643 -1.0813
16415TIP3    H270737   4.264   1.290   0.854  1.8205 -0.7765 -0.7599
16416TIP3   OH270738   4.805   5.495   3.666  0.1484 -0.2691  0.2077
16416TIP3    H170739   4.882   5.439   3.681  0.1316 -0.2026  0.5352
16416TIP3    H270740   4.842   5.583   3.660  0.2322 -0.3682 -0.7955
16417TIP3   OH270741   4.310   1.403  13.138  0.9618  0.5817  0.5094
16417TIP3    H170742   4.261   1.446  13.068  1.5269 -0.1964 -0.3877
16417TIP3    H270743   4.308   1.465  13.211  0.8023  1.6349 -0.3753
16418TIP3   OH270744   4.441   5.659   3.381 -0.3752 -0.4002 -0.1111
16418TIP3    H170745   4.437   5.564   3.392 -2.6059 -0.3565 -0.3034
16418TIP3    H270746   4.442   5.694   3.470  2.2157 -0.6191 -0.0113
16419TIP3   OH270747   5.324   1.393  16.076 -0.1629  0.2117 -0.6330
16419TIP3    H170748   5.255   1.450  16.110 -1.3957 -0.5404 -1.8134
16419TIP3    H270749   5.311   1.309  16.119  0.1696  0.1392 -0.6702
16420TIP3   OH270750   3.089   1.365  15.395 -0.0875  0.1325 -0.2928
16420TIP3    H170751   3.089   1.286  15.342  1.6274 -0.5440  0.6891
16420TIP3    H270752   3.045   1.340  15.476  1.4773 -0.1556  0.4858
16421TIP3   OH270753   2.172   0.115   3.628  0.3301  0.4586 -0.1922
16421TIP3    H170754   2.265   0.100   3.648  0.4021  2.6060  1.1440
16421TIP3    H270755   2.157   0.207   3.647 -2.6986 -0.4065  2.0982
16422TIP3   OH270756   1.916   6.759  14.322  0.0967  0.1826 -0.2638
16422TIP3    H170757   1.919   6.742  14.417  0.1311  0.3088 -0.2431
16422TIP3    H270758   1.828   6.792  14.306  0.5894  1.6350 -0.0322
16423TIP3   OH270759   5.736   0.330  11.833 -0.6925  0.3468 -0.3137
16423TIP3    H170760   5.819   0.285  11.853 -0.7812  0.7591  1.0553
16423TIP3    H270761   5.684   0.319  11.912 -1.1314  1.9238 -0.3639
16424TIP3   OH270762   1.892   6.662   3.704  0.2688 -0.7452  1.0066
16424TIP3    H170763   1.913   6.676   3.612  1.0096  0.0518  1.2896
16424TIP3    H270764   1.802   6.694   3.714  0.2793 -0.6002  0.6173
16425TIP3   OH270765   1.380   3.207   2.541 -0.1630 -0.2644  0.2795
16425TIP3    H170766   1.464   3.196   2.587  0.8137 -1.7805 -1.7987
16425TIP3    H270767   1.404   3.224   2.450 -2.1111  0.8145 -0.0677
16426TIP3   OH270768   0.878   1.995  12.042 -0.4206  0.4853 -0.3481
16426TIP3    H170769   0.943   2.040  11.987  2.1468 -2.6887 -0.1213
16426TIP3    H270770   0.801   1.987  11.987  0.6339  1.1743 -1.9647
16427TIP3   OH270771   6.500   2.066  16.911  0.2323 -1.0472  0.4722
16427TIP3    H170772   6.471   2.157  16.916 -0.6848 -1.2255 -1.2188
16427TIP3    H270773   6.589   2.067  16.945  0.4293  0.5849 -0.0682
16428TIP3   OH270774   6.507   1.880   5.051 -0.5515  0.0881  0.2884
16428TIP3    H170775   6.567   1.826   5.000 -3.4490 -4.0536  0.9898
16428TIP3    H270776   6.547   1.886   5.137 -0.2508 -1.1173  0.2372
16429TIP3   OH270777   4.543   2.975   3.211 -0.6943 -0.4097 -0.0133
16429TIP3    H170778   4.638   2.979   3.218 -0.7152 -1.0314  0.7662
16429TIP3    H270779   4.522   2.882   3.226 -1.4782 -0.1393  0.5736
16430TIP3   OH270780   0.794   0.542  17.045 -0.0830 -0.1300 -0.4145
16430TIP3    H170781   0.720   0.592  17.079 -0.6067 -2.0096  1.3347
16430TIP3    H270782   0.773   0.529  16.953 -1.6358 -0.0874 -0.0899
16431TIP3   OH270783   2.347   1.003   1.880  0.1098  0.0540 -0.0962
16431TIP3    H170784   2.285   0.931   1.897  0.7817 -0.8194 -1.2416
16431TIP3    H270785   2.423   0.959   1.841  0.6935  1.3533 -0.4209
16432TIP3   OH270786   5.152   1.192   6.191 -0.2020  0.0321  0.1448
16432TIP3    H170787   5.150   1.269   6.248  0.5537 -0.6338  1.0955
16432TIP3    H270788   5.071   1.146   6.210  0.8898 -1.1608  2.0927
16433TIP3   OH270789   6.310   3.312  16.806 -0.2225 -0.0128 -0.0454
16433TIP3    H170790   6.335   3.228  16.846 -1.9743 -1.0741 -1.0958
16433TIP3    H270791   6.254   3.354  16.871 -0.1052 -0.0790  0.0976
16434TIP3   OH270792   2.074   2.646   2.748 -0.4427  0.4189 -0.2516
16434TIP3    H170793   2.033   2.597   2.819 -0.9749  0.3963 -0.5712
16434TIP3    H270794   2.139   2.586   2.711 -0.3046  0.3611  0.0851
16435TIP3   OH270795   0.987   2.348   1.360  0.0771 -0.5491  0.4622
16435TIP3    H170796   1.050   2.391   1.419 -1.2965  1.4267  0.5292
16435TIP3    H270797   0.960   2.417   1.299 -1.0809 -1.7026 -0.3520
16436TIP3   OH270798   0.505   1.650   1.257  0.0616 -0.3491  0.0234
16436TIP3    H170799   0.410   1.657   1.250  0.0217  0.3806  1.2334
16436TIP3    H270800   0.533   1.732   1.298  1.2349 -0.4938 -0.4357
16437TIP3   OH270801   3.666   3.813   3.571  0.4672 -0.0160 -0.5998
16437TIP3    H170802   3.754   3.803   3.607  0.5086 -0.3201 -0.7899
16437TIP3    H270803   3.637   3.900   3.602  0.4331 -0.3433  0.3145
16438TIP3   OH270804   2.926   4.831   3.981 -0.6271 -0.2073 -1.0604
16438TIP3    H170805   2.876   4.900   3.938 -1.7167 -0.4467 -0.1882
16438TIP3    H270806   2.878   4.812   4.062  0.1851 -1.3115 -0.8136
16439TIP3   OH270807   6.508   5.654  14.479  0.0828  0.6981 -0.1661
16439TIP3    H170808   6.575   5.720  14.459  0.9193 -0.5970 -1.8101
16439TIP3    H270809   6.552   5.571  14.462 -1.5918 -0.2096 -0.0896
16440TIP3   OH270810   4.690   5.443  15.048 -0.4371 -0.2731  0.0549
16440TIP3    H170811   4.718   5.514  14.989  0.4532  0.3017  1.1359
16440TIP3    H270812   4.772   5.399  15.071 -0.8192 -0.7009  0.5855
16441TIP3   OH270813   4.635   3.263   1.151  0.0886 -0.4848  0.6595
16441TIP3    H170814   4.649   3.267   1.246 -0.9402 -0.0559  0.7997
16441TIP3    H270815   4.699   3.199   1.120  0.4525 -0.6071  1.6380
16442TIP3   OH270816   3.780   5.224   1.006  0.3869  0.3481 -0.8731
16442TIP3    H170817   3.697   5.268   0.991  0.3911  0.2290 -1.2646
16442TIP3    H270818   3.798   5.178   0.924  0.2158 -0.6639 -0.3493
16443TIP3   OH270819   0.981   5.119   1.066  0.3418 -0.6647  0.0250
16443TIP3    H170820   1.006   5.174   0.992  1.5065  0.0582  0.9249
16443TIP3    H270821   0.955   5.181   1.134  1.1223 -1.2420  0.8653
16444TIP3   OH270822   5.240   3.827  12.305 -0.0955  0.5630  0.4683
16444TIP3    H170823   5.318   3.802  12.255  0.3152  0.8198  0.9719
16444TIP3    H270824   5.220   3.916  12.277 -2.9608 -1.0482 -3.0897
16445TIP3   OH270825   5.028   2.650   5.699 -0.3215 -0.1462 -0.4420
16445TIP3    H170826   5.043   2.556   5.685 -1.6108 -0.1442 -1.9636
16445TIP3    H270827   4.932   2.658   5.701 -0.2283  1.2650 -1.2449
16446TIP3   OH270828   6.767   5.816  14.407 -0.4083  0.5664 -0.3871
16446TIP3    H170829   6.739   5.896  14.452  0.8566  0.3180  0.9092
16446TIP3    H270830   6.818   5.769  14.473  0.2489 -0.5258 -1.6511
16447TIP3   OH270831   3.519   3.145  12.791 -0.8591 -0.2898  0.1783
16447TIP3    H170832   3.551   3.212  12.852 -0.5186 -0.5575  0.2979
16447TIP3    H270833   3.596   3.090  12.774 -1.5904 -1.7822  1.5568
16448TIP3   OH270834   2.790   5.440  11.214 -0.5222 -0.1955  1.2176
16448TIP3    H170835   2.833   5.503  11.272 -2.4698 -0.4577  3.0251
16448TIP3    H270836   2.697   5.462  11.219 -0.7983 -0.6408 -1.3438
16449TIP3   OH270837   0.619   4.445  12.590 -0.5766 -0.4906 -0.1865
16449TIP3    H170838   0.623   4.368  12.647 -0.9511 -1.0933 -0.9571
16449TIP3    H270839   0.642   4.412  12.503 -4.5110 -0.6005 -1.3190
16450TIP3   OH270840   2.361   5.280   1.372 -0.7096  0.2997  0.2111
16450TIP3    H170841   2.381   5.234   1.453  1.0729  1.1192  0.2636
16450TIP3    H270842   2.321   5.363   1.401  0.2246  0.7344  0.2808
16451TIP3   OH270843   0.743   6.380   2.152 -0.0662  0.2581 -0.3678
16451TIP3    H170844   0.717   6.390   2.060  0.8937 -1.0468 -0.7899
16451TIP3    H270845   0.728   6.287   2.171 -2.1925  0.8967  1.4119
16452TIP3   OH270846   0.776   5.786  12.986 -0.3157  0.3979 -0.7149
16452TIP3    H170847   0.762   5.870  13.030 -1.2136  0.8794 -1.9195
16452TIP3    H270848   0.871   5.778  12.979 -0.1849  0.7108  0.5361
16453TIP3   OH270849   5.990   1.504   6.140 -0.0883  0.1675 -0.4975
16453TIP3    H170850   6.018   1.449   6.213  0.1589  1.1042  0.1322
16453TIP3    H270851   5.944   1.445   6.081  0.0579 -0.6807  0.2254
16454TIP3   OH270852   6.213   5.757  16.196 -0.0150 -0.5424 -0.0135
16454TIP3    H170853   6.151   5.722  16.259 -2.3917  2.6732 -0.4530
16454TIP3    H270854   6.259   5.826  16.243 -0.2959  0.4398 -1.1463
16455TIP3   OH270855   2.574   2.952  14.663 -0.0157  0.0246 -0.2951
16455TIP3    H170856   2.568   3.025  14.602  0.3838 -0.9206 -1.4727
16455TIP3    H270857   2.661   2.915  14.648 -0.1056 -0.5198  0.5018
16456TIP3   OH270858   4.952   4.236  16.797  0.1236 -0.0564 -0.8321
16456TIP3    H170859   4.978   4.227  16.889  0.6932  1.4099 -0.8378
16456TIP3    H270860   5.021   4.288  16.758 -0.4750 -0.0835 -1.9376
16457TIP3   OH270861   5.253   3.477   0.796  0.0371  0.4603  0.2897
16457TIP3    H170862   5.182   3.456   0.858 -0.9171  2.1450 -0.2020
16457TIP3    H270863   5.209   3.526   0.726  1.6201  1.0673 -0.2829
16458TIP3   OH270864   3.193   6.431  13.259  0.6521 -0.3705 -0.1945
16458TIP3    H170865   3.265   6.491  13.275  2.0586 -1.8828 -0.7461
16458TIP3    H270866   3.163   6.453  13.171  2.0950 -1.3997 -0.9583
16459TIP3   OH270867   2.256   4.537   1.968  0.1395  0.0678 -0.4724
16459TIP3    H170868   2.319   4.507   2.034 -2.0271 -1.1237  1.1135
16459TIP3    H270869   2.216   4.456   1.936  1.5081  0.5825 -3.6798
16460TIP3   OH270870   6.080   0.715   5.854 -0.1646  0.0375  0.5873
16460TIP3    H170871   6.154   0.686   5.799  1.1371 -2.3578  3.4435
16460TIP3    H270872   6.118   0.780   5.913 -0.3549 -0.9740  1.8583
16461TIP3   OH270873   0.305   4.489  15.423 -0.0739 -0.5091  0.4698
16461TIP3    H170874   0.304   4.418  15.359 -0.4256 -1.0724  1.0954
16461TIP3    H270875   0.394   4.524  15.418 -1.1825  2.0525 -3.1543
16462TIP3   OH270876   0.603   1.202   1.083 -1.1625  0.0616 -0.2720
16462TIP3    H170877   0.619   1.293   1.059  0.5818  0.2796  1.5790
16462TIP3    H270878   0.638   1.152   1.010 -1.6706  0.8565 -1.0672
16463TIP3   OH270879   3.310   2.297  14.994  0.1266  0.5106  0.0046
16463TIP3    H170880   3.398   2.332  15.012  0.1341  0.9998 -0.9867
16463TIP3    H270881   3.311   2.209  15.031  0.9630  0.5948  0.1834
16464TIP3   OH270882   5.392   4.515  17.041  0.2061  0.0745  0.2317
16464TIP3    H170883   5.437   4.595  17.014 -2.8138  1.4803 -0.8323
16464TIP3    H270884   5.346   4.540  17.121  0.7427 -1.1497  0.9331
16465TIP3   OH270885   4.893   1.457  16.515  0.0908 -0.9363  0.2431
16465TIP3    H170886   4.899   1.362  16.519  1.1994 -0.8278  1.7918
16465TIP3    H270887   4.947   1.488  16.588 -1.3718  0.8557  0.6012
16466TIP3   OH270888   3.045   3.051  11.702  0.4092 -0.5552  0.1509
16466TIP3    H170889   3.109   3.101  11.651 -0.3793  0.8655  0.5131
16466TIP3    H270890   2.994   3.118  11.748 -2.4458 -1.5274 -1.4471
16467TIP3   OH270891   2.129   1.787   1.308 -0.4143  0.1494  0.6982
16467TIP3    H170892   2.187   1.774   1.383 -2.0528  0.5442  2.0613
16467TIP3    H270893   2.167   1.862   1.262  0.7260 -0.2257  0.9988
16468TIP3   OH270894   2.392   2.174   5.211 -0.0472  0.1253  0.2554
16468TIP3    H170895   2.460   2.234   5.243 -0.3389  0.1577  0.8269
16468TIP3    H270896   2.317   2.190   5.269 -0.3869 -0.2363 -0.0824
16469TIP3   OH270897   2.876   5.766   1.416 -0.3178  0.3641  0.3849
16469TIP3    H170898   2.866   5.859   1.397 -0.7906 -0.0147 -1.2492
16469TIP3    H270899   2.970   5.750   1.411 -0.3805  0.3903 -1.1322
16470TIP3   OH270900   5.367   3.124  14.366  0.3264  0.5402  0.2645
16470TIP3    H170901   5.282   3.167  14.379 -0.7591 -1.1349 -1.1003
16470TIP3    H270902   5.360   3.041  14.414  1.4672  0.7156  0.7565
16471TIP3   OH270903   0.261   4.022  16.084  0.4333 -0.2979 -0.4654
16471TIP3    H170904   0.298   4.043  15.998 -3.1868 -0.7187 -2.2244
16471TIP3    H270905   0.311   3.945  16.113  1.1005 -0.7202 -2.6238
16472TIP3   OH270906   6.076   4.672  14.103  0.1232  0.6655 -0.3438
16472TIP3    H170907   5.986   4.647  14.080  0.2496 -0.1506  0.0302
16472TIP3    H270908   6.112   4.709  14.023 -0.4100  0.5970 -0.6185
16473TIP3   OH270909   4.150   3.786   5.041 -0.3152 -0.0331  0.0411
16473TIP3    H170910   4.158   3.863   5.096 -0.5923  1.0760 -1.4317
16473TIP3    H270911   4.223   3.730   5.066 -1.2219 -0.1754  2.4721
16474TIP3   OH270912   3.654   3.609   5.469 -0.1329 -0.5800 -0.4537
16474TIP3    H170913   3.728   3.622   5.410  0.1267  0.7563  0.1574
16474TIP3    H270914   3.692   3.608   5.556 -0.8590  0.3852 -0.1161
16475TIP3   OH270915   0.958   6.520   3.583  0.3142 -0.2823 -0.3507
16475TIP3    H170916   1.033   6.487   3.534  0.1584 -1.6353  0.2909
16475TIP3    H270917   0.897   6.447   3.586 -0.1320  0.1129  0.9472
16476TIP3   OH270918   6.344   3.387  12.457  0.6553 -0.1385  0.2273
16476TIP3    H170919   6.266   3.388  12.402  0.1239  1.3568  0.9594
16476TIP3    H270920   6.405   3.329  12.412 -0.8698 -1.3150 -0.3616
16477TIP3   OH270921   3.231   5.682  15.410  0.1457 -0.2877 -0.1844
16477TIP3    H170922   3.289   5.712  15.340  1.1768 -0.6046  0.5244
16477TIP3    H270923   3.290   5.651  15.479 -0.7934  1.9770  1.7355
16478TIP3   OH270924   2.518   4.413   4.632 -0.1457  0.0268  0.4094
16478TIP3    H170925   2.476   4.431   4.548 -0.2046 -2.2909 -0.0746
16478TIP3    H270926   2.455   4.358   4.679  1.6031 -2.0550  0.3519
16479TIP3   OH270927   0.791   1.192   5.890 -0.3547 -0.4576 -0.4210
16479TIP3    H170928   0.730   1.181   5.817  0.4966  0.1544 -1.2397
16479TIP3    H270929   0.868   1.141   5.864  0.4049  0.7057 -0.4926
16480TIP3   OH270930   4.699   0.642  11.223 -0.1826  0.1176 -0.1269
16480TIP3    H170931   4.630   0.696  11.259 -0.9147 -0.6915 -0.2987
16480TIP3    H270932   4.709   0.671  11.132  0.8437  1.3471  0.3643
16481TIP3   OH270933   0.651   2.593   2.247  0.1150  0.0139  0.5390
16481TIP3    H170934   0.694   2.645   2.314  3.0401 -0.9411 -0.4952
16481TIP3    H270935   0.609   2.657   2.189  2.3876  1.1736  0.1268
16482TIP3   OH270936   5.915   3.978  16.121  0.1526 -0.4700 -0.3645
16482TIP3    H170937   5.953   3.921  16.053  0.6022 -1.0951  0.3995
16482TIP3    H270938   5.966   3.958  16.200  0.1018  0.7695 -0.0088
16483TIP3   OH270939   4.713   5.396  16.444 -0.0253 -0.3295  0.0796
16483TIP3    H170940   4.688   5.352  16.362  0.7977 -0.0854 -0.3054
16483TIP3    H270941   4.657   5.356  16.510 -2.0043  0.7530 -0.8937
16484TIP3   OH270942   1.483   6.488   1.211  0.0819  0.4125 -0.1630
16484TIP3    H170943   1.420   6.459   1.277  1.0775  0.7861  0.9622
16484TIP3    H270944   1.548   6.537   1.260  0.2208  1.6737 -1.5936
16485TIP3   OH270945   1.284   1.022   2.403 -0.7003 -0.2596 -0.0653
16485TIP3    H170946   1.211   0.971   2.438 -2.1912 -0.2625 -3.0242
16485TIP3    H270947   1.243   1.094   2.355  1.3073  1.2099  0.3402
16486TIP3   OH270948   4.532   0.867  10.938  0.2550 -0.8311 -0.6596
16486TIP3    H170949   4.582   0.786  10.933 -1.9777 -2.1845 -2.4371
16486TIP3    H270950   4.458   0.852  10.879 -0.0611  2.6067 -1.2096
16487TIP3   OH270951   0.897   2.047  12.793 -0.3534 -0.1346 -0.7938
16487TIP3    H170952   0.965   2.105  12.825 -0.7734 -0.8066  1.4517
16487TIP3    H270953   0.933   2.009  12.713  0.8217  1.4915 -1.0605
16488TIP3   OH270954   2.343   3.111   1.755 -0.3065  0.2575 -0.2150
16488TIP3    H170955   2.279   3.047   1.785  0.6710 -0.2702  0.7948
16488TIP3    H270956   2.305   3.148   1.675 -1.0501 -1.3096 -0.6089
16489TIP3   OH270957   1.804   3.187  11.299  0.0509 -0.1750  0.0283
16489TIP3    H170958   1.746   3.180  11.375  1.6405  1.0526  1.4126
16489TIP3    H270959   1.888   3.215  11.336  0.2723  2.6463 -2.4215
16490TIP3   OH270960   6.792   3.513  11.966  0.3135  0.1265 -0.5393
16490TIP3    H170961   6.797   3.426  12.005 -0.3419  0.4386  0.2566
16490TIP3    H270962   6.731   3.561  12.023  0.3992  0.9923 -1.1744
16491TIP3   OH270963   2.633   1.436   1.656 -0.6511  0.4604  0.0080
16491TIP3    H170964   2.613   1.379   1.730 -0.9961 -1.8485 -1.8318
16491TIP3    H270965   2.720   1.472   1.676 -1.1644  0.6241  1.9784
16492TIP3   OH270966   5.895   4.728  16.368 -0.5754  0.4286 -0.4056
16492TIP3    H170967   5.924   4.637  16.373 -1.4918  0.0826 -1.2796
16492TIP3    H270968   5.972   4.777  16.341 -0.4912 -0.3132 -1.5151
16493TIP3   OH270969   6.567   6.660   2.501  1.2640  0.2568  0.0961
16493TIP3    H170970   6.489   6.687   2.548  1.3788  0.9883 -0.1141
16493TIP3    H270971   6.545   6.673   2.408  1.3889 -0.2080 -0.0023
16494TIP3   OH270972   1.747   1.078   3.035  0.6139  0.6778 -0.4041
16494TIP3    H170973   1.826   1.078   2.981  0.5450 -0.1989 -0.5086
16494TIP3    H270974   1.675   1.067   2.974  0.2275  3.4222 -0.5282
16495TIP3   OH270975   3.007   5.586   0.737  0.2985  0.8319 -0.2450
16495TIP3    H170976   3.030   5.503   0.695 -0.5635  0.8420 -0.7455
16495TIP3    H270977   2.941   5.625   0.679  0.8163  1.9425 -0.0895
16496TIP3   OH270978   4.469   6.699  14.027 -0.3996 -0.0102  0.5570
16496TIP3    H170979   4.530   6.763  14.063  0.3236  0.4974 -1.5357
16496TIP3    H270980   4.411   6.749  13.970  2.7587 -1.6232 -4.4498
16497TIP3   OH270981   3.929   1.030   5.976 -0.3808  0.0642 -0.2173
16497TIP3    H170982   4.019   1.000   5.964 -0.4123  0.4041 -1.3458
16497TIP3    H270983   3.883   1.001   5.897 -1.4923 -0.9364  0.7695
16498TIP3   OH270984   6.526   5.338   1.168  0.3875 -0.0612  0.3501
16498TIP3    H170985   6.578   5.338   1.088  1.1004  1.5333  0.7940
16498TIP3    H270986   6.584   5.376   1.234 -0.3703 -0.8826  1.5099
16499TIP3   OH270987   1.109   0.253  15.605  1.1557  0.2208 -0.3723
16499TIP3    H170988   1.044   0.217  15.546 -0.5348  2.5437  0.0361
16499TIP3    H270989   1.193   0.237  15.561  0.1009 -0.0757 -2.2996
16500TIP3   OH270990   2.303   2.231   0.154  0.2464  0.4707  0.2770
16500TIP3    H170991   2.306   2.204   0.245 -2.2878  0.5223  0.4099
16500TIP3    H270992   2.378   2.187   0.113 -0.4140 -2.0542  1.6943
16501TIP3   OH270993   6.086   6.795  12.949  0.2917 -0.4804 -0.1837
16501TIP3    H170994   6.145   6.725  12.977  0.4757 -0.9039 -1.6219
16501TIP3    H270995   6.141   6.853  12.897 -0.3774 -0.4744 -0.8932
16502TIP3   OH270996   5.727   4.423   4.370 -0.0653 -0.7628  0.7063
16502TIP3    H170997   5.749   4.355   4.306 -0.4173  0.1848 -0.4473
16502TIP3    H270998   5.780   4.498   4.343 -1.6327  0.2474  0.3859
16503TIP3   OH270999   4.864   1.212   1.118 -0.6929  0.4149 -0.5222
16503TIP3    H171000   4.880   1.229   1.211 -0.5179  0.0633 -0.4862
16503TIP3    H271001   4.898   1.289   1.073 -2.2344  1.3323 -0.1830
16504TIP3   OH271002   1.481   3.017  13.652 -0.2440 -0.7124  0.5198
16504TIP3    H171003   1.467   3.041  13.561  1.2932  0.8606  0.6613
16504TIP3    H271004   1.400   3.040  13.697 -0.9734 -1.4158 -0.4280
16505TIP3   OH271005   6.727   3.889  13.474 -0.2584  0.2544  0.5322
16505TIP3    H171006   6.809   3.934  13.492  0.0712  0.1983 -0.7334
16505TIP3    H271007   6.664   3.959  13.455 -0.5970  0.3125  1.8626
16506TIP3   OH271008   3.719   1.267   0.646 -0.4932 -0.2393  0.4135
16506TIP3    H171009   3.637   1.260   0.696  0.2185  1.4717  1.8854
16506TIP3    H271010   3.719   1.358   0.615  0.7133 -0.3306  0.1516
16507TIP3   OH271011   4.992   4.631   3.864  0.3290  0.4936 -0.2259
16507TIP3    H171012   4.898   4.618   3.854  0.6441 -1.3517 -0.8922
16507TIP3    H271013   4.999   4.709   3.920 -1.6679 -2.1726  4.0788
16508TIP3   OH271014   0.471   3.571  12.322  0.1018 -0.0670  0.1286
16508TIP3    H171015   0.427   3.504  12.270  1.1042 -0.9561  0.4032
16508TIP3    H271016   0.485   3.529  12.407  1.3352  0.2435  0.0911
16509TIP3   OH271017   1.917   0.037   3.086 -0.7303  0.5620  1.0581
16509TIP3    H171018   1.982   0.055   3.018 -2.4405  2.5893 -0.0951
16509TIP3    H271019   1.938   0.098   3.157 -0.3901  0.0945  1.3596
16510TIP3   OH271020   6.003   5.063  16.659  0.2306 -0.2120  0.0909
16510TIP3    H171021   5.994   5.143  16.607 -2.2090 -0.2857  0.3497
16510TIP3    H271022   6.039   5.092  16.743 -1.2304  0.7199  0.4052
16511TIP3   OH271023   3.330   1.148  15.848 -0.6313 -0.3152 -0.1836
16511TIP3    H171024   3.424   1.158  15.866 -0.2732 -1.7824 -1.0978
16511TIP3    H271025   3.312   1.056  15.868 -2.6219  0.7208  3.1177
16512TIP3   OH271026   1.558   1.490  15.668 -0.3353 -0.2226 -0.0774
16512TIP3    H171027   1.545   1.480  15.574  0.5937  0.0021 -0.2331
16512TIP3    H271028   1.637   1.543  15.676  0.2425 -1.1998  0.8452
16513TIP3   OH271029   6.382   5.584   5.592 -0.1607  0.1591  0.6106
16513TIP3    H171030   6.468   5.590   5.634  0.0252 -1.2331  0.4236
16513TIP3    H271031   6.356   5.676   5.581  2.1328  0.6622 -1.0597
16514TIP3   OH271032   1.221   4.549  12.385  0.5099 -0.3614 -0.1958
16514TIP3    H171033   1.143   4.499  12.360 -1.4780  2.4075  0.1709
16514TIP3    H271034   1.249   4.591  12.304 -0.1558  0.9560  0.2405
16515TIP3   OH271035   1.879   0.531  14.854  0.0662  0.2726  0.1104
16515TIP3    H171036   1.813   0.491  14.909  0.8340  0.2478  1.0328
16515TIP3    H271037   1.844   0.524  14.765 -0.0152 -2.0135  0.2926
16516TIP3   OH271038   3.095   3.886  13.201  0.1863 -0.3729  0.1742
16516TIP3    H171039   3.101   3.850  13.112 -1.1929 -2.3487  0.8500
16516TIP3    H271040   3.160   3.838  13.252  1.5554  1.3346  0.0790
16517TIP3   OH271041   3.710   5.953   3.444 -0.4541 -0.2302  0.0144
16517TIP3    H171042   3.705   6.033   3.496 -1.4566 -0.6756  0.6101
16517TIP3    H271043   3.658   5.889   3.493  0.8099 -1.4126 -0.1646
16518TIP3   OH271044   0.726   4.174   4.340  0.2212  0.6008  0.0469
16518TIP3    H171045   0.777   4.140   4.414 -1.2767 -0.1436  0.7649
16518TIP3    H271046   0.743   4.113   4.268 -2.6506 -1.9422  1.3999
16519TIP3   OH271047   6.497   5.172  10.211  0.3778  0.0882  0.2959
16519TIP3    H171048   6.532   5.247  10.163  1.8971 -0.7133  0.1115
16519TIP3    H271049   6.450   5.211  10.285  2.0289  1.2214  0.7823
16520TIP3   OH271050   5.196   1.133   4.453  0.3328  0.2899  0.0474
16520TIP3    H171051   5.236   1.176   4.530 -1.5507 -1.7565  2.2377
16520TIP3    H271052   5.103   1.154   4.460  0.2148  0.5132 -2.0091
16521TIP3   OH271053   2.039   1.035   2.018 -0.0130  0.4435  0.1548
16521TIP3    H171054   1.970   0.981   2.058 -0.1827  0.2473 -0.4028
16521TIP3    H271055   2.010   1.048   1.928  0.0623  1.4080  0.2639
16522TIP3   OH271056   4.527   6.142   1.362  0.1733 -0.0725 -0.0130
16522TIP3    H171057   4.534   6.072   1.297 -0.4890 -0.9980  0.8779
16522TIP3    H271058   4.591   6.117   1.429 -0.5777 -0.2241  0.6563
16523TIP3   OH271059   3.683   6.812  17.208 -0.4852 -0.3294 -0.2366
16523TIP3    H171060   3.711   6.903  17.212 -3.3805  0.6284 -0.3522
16523TIP3    H271061   3.747   6.769  17.152  1.5300  1.3654  0.6788
16524TIP3   OH271062   3.650   6.719   1.098  0.0679  0.1791 -0.3069
16524TIP3    H171063   3.602   6.647   1.057  0.6362  0.0693 -0.7982
16524TIP3    H271064   3.729   6.677   1.132  0.1535  0.4801 -0.1394
16525TIP3   OH271065   6.109   2.851   0.698 -0.0793 -0.0553 -0.0874
16525TIP3    H171066   6.014   2.863   0.688 -0.3157 -1.3113  0.4937
16525TIP3    H271067   6.124   2.760   0.672  0.7253 -0.3553  1.3988
16526TIP3   OH271068   4.253   0.910  15.186  0.1405 -0.0257 -0.7571
16526TIP3    H171069   4.248   0.817  15.208 -3.1688  0.0614 -0.9894
16526TIP3    H271070   4.291   0.911  15.098  0.3145 -1.1438 -0.7034
16527TIP3   OH271071   1.838   1.489  16.837 -0.2092  0.4430 -0.2377
16527TIP3    H171072   1.918   1.460  16.880 -0.6214  0.7333  0.7575
16527TIP3    H271073   1.775   1.499  16.909 -0.7343  1.5649 -0.8398
16528TIP3   OH271074   3.002   6.051  12.362 -0.1680 -0.7914 -0.4858
16528TIP3    H171075   2.967   6.077  12.447  1.5764 -0.7623  0.2393
16528TIP3    H271076   2.947   6.097  12.298 -1.1480 -0.4044  0.6215
16529TIP3   OH271077   4.875   3.033  16.107 -0.4666  0.1397  0.0174
16529TIP3    H171078   4.962   3.069  16.125 -1.4028  2.6560 -0.2254
16529TIP3    H271079   4.876   3.015  16.013  0.3799 -1.5644  0.3351
16530TIP3   OH271080   3.819   6.693   2.142 -0.1546 -0.4776 -0.0459
16530TIP3    H171081   3.893   6.673   2.085  0.1670  0.8195 -0.0967
16530TIP3    H271082   3.846   6.662   2.228 -0.1767 -1.3806 -0.3519
16531TIP3   OH271083   0.168   0.274  12.120 -0.2799  0.4811  0.0099
16531TIP3    H171084   0.124   0.293  12.037  0.2310  0.8118 -0.1907
16531TIP3    H271085   0.253   0.239  12.095 -0.2295  0.3264  0.3939
16532TIP3   OH271086   4.071   0.870   3.782  0.3530  0.3833 -0.7962
16532TIP3    H171087   4.114   0.825   3.855 -0.9185  0.4392  0.0094
16532TIP3    H271088   4.067   0.805   3.713  0.0898 -0.2061 -0.2350
16533TIP3   OH271089   5.619   0.630   1.495 -0.2793 -0.2418  0.2458
16533TIP3    H171090   5.631   0.608   1.402  0.0061 -1.7089  0.6170
16533TIP3    H271091   5.544   0.689   1.496  0.0972  0.2795 -0.9799
16534TIP3   OH271092   3.984   1.243   0.111 -0.1433 -0.6466  0.3955
16534TIP3    H171093   4.027   1.160   0.088  0.0653 -0.6500  0.7889
16534TIP3    H271094   3.999   1.300   0.036  0.2462 -0.7632  0.3862
16535TIP3   OH271095   0.140   5.526  16.327  0.2930 -0.5018  0.2103
16535TIP3    H171096   0.113   5.462  16.262 -0.4591  0.6791 -0.6449
16535TIP3    H271097   0.061   5.543  16.379 -0.2413  1.6789 -1.2260
16536TIP3   OH271098   0.089   4.275  15.836 -0.5349 -0.3132  0.5453
16536TIP3    H171099   0.044   4.208  15.887 -1.1045  1.0396  1.8726
16536TIP3    H271100   0.019   4.321  15.790 -0.2487  0.0339  0.4531
16537TIP3   OH271101   0.383   3.575   1.434 -0.2280  0.2159  0.0630
16537TIP3    H171102   0.396   3.604   1.524  2.4952  0.0131 -0.2392
16537TIP3    H271103   0.470   3.576   1.395 -1.5114  1.2895 -2.9006
16538TIP3   OH271104   6.216   0.112   2.991 -0.3653 -0.0520  0.0287
16538TIP3    H171105   6.185   0.148   2.907 -0.3987 -0.1147  0.0142
16538TIP3    H271106   6.239   0.189   3.043  0.3796 -0.0377 -0.3136
16539TIP3   OH271107   4.768   0.198  11.269 -0.8411 -0.2493 -0.0873
16539TIP3    H171108   4.820   0.239  11.200 -0.0745 -1.3504 -0.1807
16539TIP3    H271109   4.727   0.123  11.227 -4.6638  2.0128 -0.7106
16540TIP3   OH271110   2.415   3.012  15.621  0.0801  0.4269 -0.0379
16540TIP3    H171111   2.456   2.952  15.684 -0.5564 -1.0735 -1.0243
16540TIP3    H271112   2.455   2.989  15.537 -1.9445 -0.2595 -0.8241
16541TIP3   OH271113   0.963   2.624   1.241 -0.1495 -0.0364 -0.0818
16541TIP3    H171114   0.878   2.668   1.239  0.2026  0.6135 -1.2539
16541TIP3    H271115   0.978   2.598   1.150  0.6165 -0.7145  0.2375
16542TIP3   OH271116   3.597   3.185  15.626  0.3594 -0.1112  0.0870
16542TIP3    H171117   3.539   3.144  15.690  0.9996 -1.9829 -0.5079
16542TIP3    H271118   3.574   3.145  15.543  1.7797 -0.1085 -0.3257
16543TIP3   OH271119   5.149   1.003  13.240  0.0379 -0.1219 -0.1689
16543TIP3    H171120   5.144   0.921  13.289  1.7142 -0.4061 -0.4230
16543TIP3    H271121   5.242   1.013  13.221 -0.4231  0.7494 -2.0121
16544TIP3   OH271122   2.492   0.905   2.383  0.4310 -0.1614  0.8455
16544TIP3    H171123   2.418   0.908   2.322  1.5076  0.3871 -0.4710
16544TIP3    H271124   2.453   0.888   2.468 -1.0812 -1.3432 -0.0627
16545TIP3   OH271125   2.575   1.452   5.709  0.3513 -0.4227  0.6830
16545TIP3    H171126   2.602   1.480   5.622  0.2342  1.8516  1.3246
16545TIP3    H271127   2.611   1.364   5.719  0.0893 -0.8270 -1.7645
16546TIP3   OH271128   5.599   0.303   0.450  0.3264 -0.0242 -0.6812
16546TIP3    H171129   5.606   0.372   0.516 -1.3332  0.2856 -0.7993
16546TIP3    H271130   5.526   0.330   0.395  1.4747 -0.4647 -2.4541
16547TIP3   OH271131   4.125   4.117  12.023  0.4766  0.0054  0.1970
16547TIP3    H171132   4.031   4.104  12.031  0.6925 -0.3730  2.3074
16547TIP3    H271133   4.134   4.196  11.970 -1.0190 -0.2033 -0.3846
16548TIP3   OH271134   0.907   1.226   1.585 -0.0040  0.8448 -0.0555
16548TIP3    H171135   0.841   1.211   1.652 -0.3437  0.7573 -0.4069
16548TIP3    H271136   0.860   1.218   1.502  1.1749 -2.9614 -0.4589
16549TIP3   OH271137   2.401   5.690  11.422 -0.6870 -0.0652 -0.3071
16549TIP3    H171138   2.321   5.679  11.371  0.0336  1.1556 -1.7281
16549TIP3    H271139   2.436   5.774  11.394  1.1296 -0.6108  0.2583
16550TIP3   OH271140   5.372   6.642  13.281 -0.8668  0.3249  0.7087
16550TIP3    H171141   5.380   6.547  13.283 -1.1534  0.3069  1.0283
16550TIP3    H271142   5.418   6.671  13.359 -0.3171  0.4855  0.3290
16551TIP3   OH271143   2.397   2.561   2.620  0.3876  0.3292  0.4613
16551TIP3    H171144   2.397   2.612   2.701  0.0401 -1.0274  1.3311
16551TIP3    H271145   2.346   2.613   2.558  0.7468  1.4228  1.0865
16552TIP3   OH271146   4.014   2.563  13.806 -0.5578  0.0683 -0.2582
16552TIP3    H171147   4.040   2.656  13.805 -0.8236  0.1409 -0.3495
16552TIP3    H271148   4.086   2.519  13.760  0.4155 -0.0006  1.2833
16553TIP3   OH271149   1.899   3.843  17.107 -0.1003  0.3421 -0.1673
16553TIP3    H171150   1.851   3.766  17.138  1.0259 -0.4235 -0.2861
16553TIP3    H271151   1.839   3.916  17.120 -0.9760 -0.4835  0.4662
16554TIP3   OH271152   5.150   4.900  16.994 -0.0384 -0.2080 -0.4711
16554TIP3    H171153   5.104   4.823  16.962 -3.4508  1.1395  0.9822
16554TIP3    H271154   5.114   4.973  16.944  1.9470  0.6688 -0.6585
16555TIP3   OH271155   1.354   0.757   3.819 -0.6625 -0.1184 -0.2919
16555TIP3    H171156   1.284   0.815   3.849 -0.6312  0.0413 -0.5227
16555TIP3    H271157   1.309   0.677   3.791 -0.6301 -0.5334  0.8234
16556TIP3   OH271158   1.353   0.478  16.472  0.2132 -0.0348 -0.3381
16556TIP3    H171159   1.332   0.555  16.418  2.0959  1.6333  1.2284
16556TIP3    H271160   1.448   0.470  16.466  0.2157 -1.1843  0.9430
16557TIP3   OH271161   2.140   2.109  15.341 -0.3002 -0.2556 -0.1158
16557TIP3    H171162   2.151   2.077  15.251 -1.6185 -2.1782  0.3911
16557TIP3    H271163   2.223   2.154  15.360 -0.3599  1.0721 -2.6253
16558TIP3   OH271164   2.657   3.292  12.729 -0.2728 -0.5186 -0.9933
16558TIP3    H171165   2.638   3.384  12.748 -1.8151 -1.3103  1.5517
16558TIP3    H271166   2.753   3.289  12.722  0.1022  0.7195  2.4323
16559TIP3   OH271167   1.668   5.052   6.226 -0.0834  0.3395  0.2376
16559TIP3    H171168   1.693   4.998   6.301  0.9877 -0.0291 -0.3715
16559TIP3    H271169   1.663   5.141   6.261  2.8345  0.5494  0.2589
16560TIP3   OH271170   6.172   4.092  12.133 -0.0651  0.3151 -0.3216
16560TIP3    H171171   6.214   4.160  12.081 -0.2463  0.0416 -0.8337
16560TIP3    H271172   6.243   4.032  12.156  0.0433  0.5208 -0.1225
16561TIP3   OH271173   5.267   2.735  17.025  0.0723  0.1716  0.5439
16561TIP3    H171174   5.180   2.764  16.995  1.8204 -0.0457 -5.4341
16561TIP3    H271175   5.257   2.641  17.037 -0.2926 -0.0227 -1.1557
16562TIP3   OH271176   2.989   1.959  15.619 -0.1871  0.3872  0.0571
16562TIP3    H171177   3.071   1.916  15.640  0.6810  2.2555  0.5746
16562TIP3    H271178   2.978   2.025  15.688 -1.5166  0.9403 -0.6657
16563TIP3   OH271179   5.844   3.160  14.417 -0.3183  0.3768 -0.0405
16563TIP3    H171180   5.897   3.108  14.478 -0.6678 -2.0616 -1.7501
16563TIP3    H271181   5.754   3.141  14.443 -0.4411  0.4336 -0.4341
16564TIP3   OH271182   2.987   5.314  16.378 -0.3278  0.5711 -0.1165
16564TIP3    H171183   2.993   5.393  16.324  2.2738  1.3899  1.2819
16564TIP3    H271184   2.969   5.244  16.315 -3.7632  2.3507 -1.2460
16565TIP3   OH271185   2.822   4.981   0.202  0.3658 -1.2324  0.4897
16565TIP3    H171186   2.801   5.067   0.165  1.2596 -0.6992  1.1898
16565TIP3    H271187   2.848   4.928   0.127  0.9898 -0.5182  0.1930
16566TIP3   OH271188   3.106   1.083   5.374 -0.4560 -0.4605 -0.4933
16566TIP3    H171189   3.195   1.111   5.390 -0.4926 -0.2246 -0.7089
16566TIP3    H271190   3.112   1.027   5.296 -0.6843  0.5664 -1.2513
16567TIP3   OH271191   5.075   0.757   5.854  0.4683 -0.1706 -0.5290
16567TIP3    H171192   5.169   0.740   5.866  0.8569  0.8688 -1.9697
16567TIP3    H271193   5.053   0.818   5.923  0.6583 -1.0601  0.3302
16568TIP3   OH271194   4.562   1.566  11.646 -0.6728  0.0243 -0.5202
16568TIP3    H171195   4.643   1.616  11.650 -0.3730 -0.4758 -0.3032
16568TIP3    H271196   4.493   1.631  11.658 -0.3420  0.5723 -1.5574
16569TIP3   OH271197   4.784   1.304   0.371  0.4653 -0.2950  0.2642
16569TIP3    H171198   4.857   1.337   0.318 -0.7975  0.1782 -1.1978
16569TIP3    H271199   4.732   1.382   0.391  0.1705 -0.6855  1.0335
16570TIP3   OH271200   2.632   1.629  13.468 -0.2732 -0.4312 -0.3612
16570TIP3    H171201   2.563   1.563  13.462 -1.0928  0.3966 -0.1565
16570TIP3    H271202   2.594   1.707  13.428  0.9416 -0.2707 -1.2521
16571TIP3   OH271203   1.564   3.392  13.089 -0.0329 -0.3657  0.1794
16571TIP3    H171204   1.547   3.362  13.000  0.3476 -1.2754  0.4088
16571TIP3    H271205   1.480   3.429  13.118 -0.2933 -0.5129 -0.3720
16572TIP3   OH271206   5.659   2.851  11.964  0.2393 -0.7030 -0.5174
16572TIP3    H171207   5.655   2.916  11.894  0.2515 -1.2233 -1.0117
16572TIP3    H271208   5.571   2.848  12.000  0.2257 -0.4561 -0.5308
16573TIP3   OH271209   6.648   4.612  12.605 -0.4010  0.0934 -0.1825
16573TIP3    H171210   6.566   4.659  12.589 -0.2238  1.2392  2.0812
16573TIP3    H271211   6.706   4.678  12.644  0.7390 -1.3434  0.6029
16574TIP3   OH271212   3.538   3.453  11.570 -0.0606  0.3279  0.0234
16574TIP3    H171213   3.552   3.368  11.529 -1.5350 -0.4481  1.0382
16574TIP3    H271214   3.515   3.512  11.498 -0.0106 -0.3810 -0.5718
16575TIP3   OH271215   5.688   3.241  16.964  0.2345  0.3636  0.2787
16575TIP3    H171216   5.728   3.231  16.878  0.3069  0.4039  0.3077
16575TIP3    H271217   5.761   3.242  17.025  0.1672  0.0480  0.3697
16576TIP3   OH271218   0.375   5.491  12.404 -0.0641  0.1188 -0.8970
16576TIP3    H171219   0.371   5.432  12.478 -0.1169  1.4398  0.1780
16576TIP3    H271220   0.428   5.445  12.339 -0.5927 -1.3325 -0.3200
16577TIP3   OH271221   1.364   4.759  16.765  0.1034 -0.7616 -0.2344
16577TIP3    H171222   1.278   4.735  16.731  0.6106 -1.1234 -1.2861
16577TIP3    H271223   1.407   4.804  16.693 -0.0772  1.5759  1.0652
16578TIP3   OH271224   3.684   1.834  15.619  0.1783  0.1809 -0.2714
16578TIP3    H171225   3.749   1.837  15.688  0.0511 -2.4126  0.0108
16578TIP3    H271226   3.734   1.841  15.538  0.7584 -1.3339 -0.0433
16579TIP3   OH271227   4.113   2.179  14.386 -0.1734 -0.1945 -0.1121
16579TIP3    H171228   4.181   2.148  14.446  0.0935 -1.0815 -0.8473
16579TIP3    H271229   4.045   2.215  14.442  0.8608  0.6146  0.6407
16580TIP3   OH271230   1.685   0.234  16.161  0.7483  0.6118  0.3367
16580TIP3    H171231   1.605   0.280  16.184  0.1228 -0.0953 -0.4209
16580TIP3    H271232   1.747   0.304  16.138  0.1780  1.1240  0.3519
16581TIP3   OH271233   1.661   5.733   2.085  0.0140 -0.1201 -0.2913
16581TIP3    H171234   1.691   5.776   2.005  0.3071 -2.0742 -1.2590
16581TIP3    H271235   1.566   5.726   2.074 -0.1174  0.8292  0.1613
16582TIP3   OH271236   5.226   5.592  13.079  0.3409 -0.1187  0.3226
16582TIP3    H171237   5.320   5.576  13.068  0.2808 -0.1464 -0.1512
16582TIP3    H271238   5.184   5.516  13.040  0.1138  0.0406  0.2558
16583TIP3   OH271239   0.181   5.609  14.019 -0.0933 -0.9726 -0.4381
16583TIP3    H171240   0.241   5.676  14.052  0.5129 -0.7674 -1.9403
16583TIP3    H271241   0.237   5.541  13.982 -0.7606 -0.4257 -2.5335
16584TIP3   OH271242   2.626   3.903   1.063  0.5892 -0.3446 -0.1703
16584TIP3    H171243   2.705   3.855   1.089  0.2222 -0.3799  0.8760
16584TIP3    H271244   2.645   3.994   1.087  0.9073 -0.1039 -1.2925
16585TIP3   OH271245   3.231   5.150   3.766 -0.3985  0.2275 -0.3650
16585TIP3    H171246   3.263   5.061   3.750 -0.8596  0.1446 -0.8421
16585TIP3    H271247   3.306   5.206   3.746 -0.2768 -0.0198 -0.6089
16586TIP3   OH271248   0.629   2.478   1.010  0.0130 -0.1433  0.2615
16586TIP3    H171249   0.645   2.495   1.103  0.5309  1.9070 -0.1903
16586TIP3    H271250   0.639   2.383   1.002  3.0016 -0.0199  1.7423
16587TIP3   OH271251   4.543   0.945  16.467  0.3704 -0.3004  0.4843
16587TIP3    H171252   4.502   1.014  16.519 -0.6872  0.1274 -0.8849
16587TIP3    H271253   4.636   0.964  16.471  0.0437  1.5639 -0.3455
16588TIP3   OH271254   3.503   4.217  13.561 -0.0893 -0.0895 -0.7182
16588TIP3    H171255   3.564   4.228  13.634 -0.1435  0.5336 -0.7712
16588TIP3    H271256   3.559   4.199  13.486 -0.1180 -2.9791 -0.1204
16589TIP3   OH271257   3.045   1.405  11.831 -0.6256 -0.3114 -0.1630
16589TIP3    H171258   3.029   1.393  11.737 -0.3399 -0.6692 -0.1689
16589TIP3    H271259   3.024   1.497  11.847  0.5782  0.0884 -0.8367
16590TIP3   OH271260   1.904   4.991  12.829 -0.3063 -0.2786 -0.1500
16590TIP3    H171261   1.967   4.940  12.777  0.2644 -1.3951  1.6132
16590TIP3    H271262   1.907   5.079  12.789  2.3025 -0.3368 -0.1822
16591TIP3   OH271263   3.069   5.771  16.847 -0.0638  0.4249 -0.5758
16591TIP3    H171264   3.125   5.848  16.834  0.6058  0.0386 -0.0568
16591TIP3    H271265   3.099   5.734  16.930  0.0334 -0.7421 -1.1190
16592TIP3   OH271266   0.698   5.058  12.215  0.4142 -0.5721  0.3560
16592TIP3    H171267   0.739   4.978  12.181 -0.8775 -1.0782 -0.0391
16592TIP3    H271268   0.730   5.064  12.305  1.5005 -0.8538  0.0024
16593TIP3   OH271269   1.501   4.259   0.899 -0.1020 -0.2619  0.1592
16593TIP3    H171270   1.416   4.298   0.922 -0.2645  0.1809 -1.1675
16593TIP3    H271271   1.480   4.169   0.876 -0.2043 -0.1891 -0.0393
16594TIP3   OH271272   4.724   4.456   4.052 -0.6529 -0.4809 -0.2161
16594TIP3    H171273   4.770   4.499   3.980 -1.7258  0.9664 -0.0350
16594TIP3    H271274   4.787   4.391   4.083  0.5192  0.1100 -1.2780
16595TIP3   OH271275   1.456   6.499  11.284  0.2593 -0.0559 -0.0824
16595TIP3    H171276   1.406   6.573  11.319 -2.1177 -0.6963 -2.0027
16595TIP3    H271277   1.400   6.464  11.215  2.0214 -2.7470 -0.1714
16596TIP3   OH271278   6.777   1.424  12.837  0.6083  0.2123 -0.6703
16596TIP3    H171279   6.752   1.488  12.903  1.4807  0.5138 -0.6164
16596TIP3    H271280   6.709   1.357  12.840 -0.1945  1.0311 -0.5804
16597TIP3   OH271281   4.640   5.274   9.594 -0.0498 -0.1968 -0.2478
16597TIP3    H171282   4.665   5.276   9.502  0.6741  0.3260 -0.0465
16597TIP3    H271283   4.692   5.203   9.632  0.4557  0.3003 -0.0135
16598TIP3   OH271284   4.493   3.970  15.699 -0.2487 -0.5711 -0.0817
16598TIP3    H171285   4.515   4.062  15.681 -0.1351 -0.3410  1.1909
16598TIP3    H271286   4.421   3.975  15.762  1.2563 -1.3407  1.7514
16599TIP3   OH271287   5.331   6.618  14.274 -1.0046  0.3058  0.7997
16599TIP3    H171288   5.307   6.699  14.319 -1.8434  0.1250  0.6893
16599TIP3    H271289   5.423   6.629  14.251 -0.8808  0.8746  1.5466
16600TIP3   OH271290   2.624   1.588   0.831 -0.0691  0.6583  0.4933
16600TIP3    H171291   2.560   1.656   0.854 -0.3215  0.7566 -0.4550
16600TIP3    H271292   2.586   1.507   0.862 -1.5682  0.4612 -1.7165
16601TIP3   OH271293   1.435   5.742  16.465  0.5697 -0.1952 -0.2817
16601TIP3    H171294   1.413   5.806  16.397  0.9423 -0.2468 -0.4551
16601TIP3    H271295   1.376   5.668  16.448 -0.3425  0.3791  0.3388
16602TIP3   OH271296   3.226   3.871  16.308 -0.2165  0.1303  0.1662
16602TIP3    H171297   3.286   3.943  16.289  0.3189 -0.4707 -0.4498
16602TIP3    H271298   3.282   3.801  16.342 -0.3357 -0.9783 -1.8471
16603TIP3   OH271299   6.646   1.317   6.176  0.2234 -0.3735  0.5119
16603TIP3    H171300   6.704   1.252   6.138 -0.4339 -1.2254  0.9407
16603TIP3    H271301   6.639   1.292   6.268  1.8230  1.6830  1.2331
16604TIP3   OH271302   5.099   4.960  13.807 -0.0277 -0.1153  0.3178
16604TIP3    H171303   5.018   4.924  13.842 -0.9627  1.2265 -0.3983
16604TIP3    H271304   5.071   5.014  13.732  1.6679 -0.9093 -0.9344
16605TIP3   OH271305   4.387   1.581  14.654 -0.1949  0.0676  0.0500
16605TIP3    H171306   4.449   1.646  14.620  1.6883 -1.4113  0.5954
16605TIP3    H271307   4.326   1.632  14.707  2.9264  1.0908  2.8452
16606TIP3   OH271308   5.825   1.191  16.205 -1.0757  0.3886  0.3665
16606TIP3    H171309   5.869   1.162  16.285  0.7061  0.8536 -0.4078
16606TIP3    H271310   5.756   1.127  16.190  1.8148 -2.7255 -0.5043
16607TIP3   OH271311   5.588   4.729   6.557  0.7703  0.6010  0.0757
16607TIP3    H171312   5.662   4.669   6.552 -0.6459 -1.3920  2.0793
16607TIP3    H271313   5.511   4.673   6.556 -0.7615  2.6298 -1.8240
16608TIP3   OH271314   5.770   1.151  14.019  0.0924  0.2259  0.6460
16608TIP3    H171315   5.688   1.156  14.067  0.8007 -0.0708  1.8892
16608TIP3    H271316   5.763   1.220  13.953 -1.4369 -0.2445  0.2939
16609TIP3   OH271317   1.393   4.370   3.553  0.7129  0.1415  0.0981
16609TIP3    H171318   1.313   4.395   3.599  1.0515  0.1217  0.6996
16609TIP3    H271319   1.442   4.451   3.544 -0.8994  0.8239 -3.3298
16610TIP3   OH271320   3.703   3.971  11.199 -0.2690  0.2709 -0.6494
16610TIP3    H171321   3.630   3.909  11.199 -0.0268 -0.0077 -0.0039
16610TIP3    H271322   3.781   3.917  11.191 -0.0524  0.4833  0.0045
16611TIP3   OH271323   1.585   5.119  13.442  0.2295  0.1040 -0.0172
16611TIP3    H171324   1.602   5.064  13.518 -0.2416  0.2348  0.1880
16611TIP3    H271325   1.493   5.102  13.420  0.6125 -0.6248 -1.1219
16612TIP3   OH271326   1.455   6.345  14.056 -0.4694  0.1008  0.0351
16612TIP3    H171327   1.544   6.330  14.025 -0.5123  1.0082 -0.5781
16612TIP3    H271328   1.400   6.317  13.982 -0.6442  0.5685 -0.0136
16613TIP3   OH271329   0.554   0.103   5.193  0.8499 -0.6806  0.0312
16613TIP3    H171330   0.573   0.189   5.154  1.4080 -0.8826 -0.1579
16613TIP3    H271331   0.479   0.070   5.144  0.3299 -0.0911  0.4277
16614TIP3   OH271332   6.023   1.380  15.704  0.3787 -0.1099 -0.7740
16614TIP3    H171333   5.990   1.335  15.781  1.2145  1.7767  0.7405
16614TIP3    H271334   5.976   1.463  15.702  0.2654 -0.1906 -2.3955
16615TIP3   OH271335   1.451   3.823  14.231  0.0741  0.0421 -0.5148
16615TIP3    H171336   1.404   3.903  14.255  0.0590  0.0944 -0.7170
16615TIP3    H271337   1.531   3.827  14.283 -1.2326 -1.2559  1.6615
16616TIP3   OH271338   1.733   1.279  16.036  0.1701 -0.0155  0.3992
16616TIP3    H171339   1.815   1.231  16.048  0.7697  0.6048 -1.0431
16616TIP3    H271340   1.740   1.354  16.095  0.5849 -0.0517  0.3991
16617TIP3   OH271341   6.340   2.204   0.116 -0.4837  0.4599  0.1183
16617TIP3    H171342   6.388   2.208   0.033 -1.7670 -0.8359 -0.7123
16617TIP3    H271343   6.250   2.182   0.091 -0.9788  0.4492  1.8284
16618TIP3   OH271344   2.005   5.063   4.074  0.3699 -0.0508 -0.2471
16618TIP3    H171345   2.088   5.096   4.041  0.6156 -0.4815 -0.0545
16618TIP3    H271346   1.940   5.128   4.045  0.9111  0.8403  0.4984
16619TIP3   OH271347   6.509   4.743  10.413 -0.2750 -0.6392  0.4122
16619TIP3    H171348   6.598   4.741  10.449  0.3036  0.6030 -0.9054
16619TIP3    H271349   6.459   4.794  10.476 -0.0163 -1.1928  1.0733
16620TIP3   OH271350   0.258   6.103  16.702  0.3714 -0.2316 -0.1873
16620TIP3    H171351   0.264   6.181  16.647 -1.2143 -0.3253 -0.5179
16620TIP3    H271352   0.272   6.030  16.641 -1.8676 -0.3581 -0.5941
16621TIP3   OH271353   2.266   6.123  11.499  0.0123 -0.0889 -0.0640
16621TIP3    H171354   2.346   6.072  11.507  0.9318  1.3613  0.1817
16621TIP3    H271355   2.215   6.079  11.431  1.2699 -0.6915 -0.6158
16622TIP3   OH271356   6.581   3.082   1.053  0.2601  0.2885 -0.0893
16622TIP3    H171357   6.599   3.170   1.085  0.8025 -0.4173  1.5904
16622TIP3    H271358   6.504   3.054   1.103 -0.4730  0.1477 -1.2819
16623TIP3   OH271359   0.413   1.000   2.513  0.3029 -0.0161  0.1560
16623TIP3    H171360   0.333   1.011   2.565  0.0718 -0.2020 -0.1607
16623TIP3    H271361   0.458   0.926   2.552  0.9485  0.8751  1.1337
16624TIP3   OH271362   0.885   3.930   6.232  0.7298 -0.2721 -0.8640
16624TIP3    H171363   0.797   3.924   6.195 -0.5027  0.4304  1.7992
16624TIP3    H271364   0.908   4.023   6.222 -0.9301  0.6274  2.8384
16625TIP3   OH271365   2.762   4.788   2.323 -0.4214 -0.3377  0.4266
16625TIP3    H171366   2.812   4.724   2.374 -0.0426 -0.0920  0.3679
16625TIP3    H271367   2.825   4.820   2.258 -1.6310 -2.6388 -1.9851
16626TIP3   OH271368   4.416   1.535  15.064 -0.1245 -0.4248  0.7494
16626TIP3    H171369   4.489   1.493  15.020 -0.0653  1.7017 -1.2814
16626TIP3    H271370   4.339   1.515  15.010 -0.1928  1.4611  0.0948
16627TIP3   OH271371   4.136   6.708  15.825  0.1277 -0.6869  0.8334
16627TIP3    H171372   4.081   6.629  15.833 -2.5772  0.4208 -4.4610
16627TIP3    H271373   4.209   6.681  15.771  1.6715 -0.5945  2.8029
16628TIP3   OH271374   5.435   2.766  11.080  0.0853  0.5766  0.5227
16628TIP3    H171375   5.519   2.811  11.075  0.6304 -0.3442  1.2965
16628TIP3    H271376   5.370   2.837  11.083  0.9379  1.3274  2.0934
16629TIP3   OH271377   6.524   3.651   3.441  0.5672 -0.6774 -0.2191
16629TIP3    H171378   6.509   3.588   3.511 -0.3897 -0.5845 -0.3328
16629TIP3    H271379   6.483   3.732   3.472  2.9726  0.3110  0.5415
16630TIP3   OH271380   3.523   3.306  14.407  0.4492 -0.1041  0.7178
16630TIP3    H171381   3.430   3.286  14.404  0.2994  0.7322 -2.3802
16630TIP3    H271382   3.563   3.230  14.449 -1.5410 -0.7293  1.5362
16631TIP3   OH271383   0.367   0.594  17.265 -0.6009  0.4694 -0.2723
16631TIP3    H171384   0.391   0.557  17.350 -3.0745  0.0341  0.2896
16631TIP3    H271385   0.442   0.647  17.239  0.2952  0.3917  2.0618
16632TIP3   OH271386   3.121   5.735   4.430 -0.1101  0.3481  0.0292
16632TIP3    H171387   3.100   5.749   4.522 -0.7209 -0.2775 -0.0170
16632TIP3    H271388   3.188   5.802   4.410  0.8619 -0.2540  1.2159
16633TIP3   OH271389   3.039   4.557  13.559 -0.6906  0.4709  0.0958
16633TIP3    H171390   3.120   4.518  13.528 -0.0120  3.0471 -1.5375
16633TIP3    H271391   2.994   4.486  13.606  2.2730 -1.1077  0.6496
16634TIP3   OH271392   2.894   0.196   2.928 -0.7576 -0.5761 -0.0144
16634TIP3    H171393   2.904   0.271   2.988  0.3459 -1.2411  0.6496
16634TIP3    H271394   2.981   0.182   2.893 -1.1418 -1.0210 -0.7932
16635TIP3   OH271395   3.719   1.528  16.780  0.7032 -0.2064 -0.2335
16635TIP3    H171396   3.691   1.509  16.690 -1.1235 -2.0762  0.7070
16635TIP3    H271397   3.728   1.623  16.782 -0.2470 -0.0535 -2.0958
16636TIP3   OH271398   4.512   4.083  11.666  0.1505  0.2951 -0.2573
16636TIP3    H171399   4.602   4.066  11.639  0.3805  1.0450  0.0104
16636TIP3    H271400   4.503   4.038  11.750 -0.0606 -0.6629 -0.7772
16637TIP3   OH271401   4.199   6.176  12.250 -0.5331 -0.8950  0.1989
16637TIP3    H171402   4.292   6.160  12.261 -0.4839  0.4983  2.1443
16637TIP3    H271403   4.194   6.261  12.205 -0.8522 -0.3341  1.2690
16638TIP3   OH271404   0.225   1.380  10.296  0.0628  0.1759 -0.1281
16638TIP3    H171405   0.299   1.438  10.280  0.0723  0.3598  0.5556
16638TIP3    H271406   0.164   1.433  10.347 -0.7313  0.1677 -1.0515
16639TIP3   OH271407   0.960   1.683  14.032 -0.0220  0.2254 -0.1125
16639TIP3    H171408   0.967   1.641  13.947 -1.5829  0.7357 -0.4999
16639TIP3    H271409   0.965   1.611  14.095  0.0625 -0.2539 -0.6666
16640TIP3   OH271410   2.933   4.904   5.209 -0.2630 -0.5386 -0.1228
16640TIP3    H171411   2.947   4.988   5.254 -0.7584 -0.4972 -0.0458
16640TIP3    H271412   2.846   4.876   5.237 -1.1912  0.1804 -2.1790
16641TIP3   OH271413   1.722   3.560  12.355  0.3210 -0.1829 -0.3273
16641TIP3    H171414   1.795   3.613  12.386  0.7573 -0.3403 -1.0687
16641TIP3    H271415   1.684   3.523  12.434  0.6535  0.4091  0.1107
16642TIP3   OH271416   0.569   5.026   4.402  0.1064  0.0403 -0.1881
16642TIP3    H171417   0.621   5.010   4.323  0.2548 -3.5963  0.5871
16642TIP3    H271418   0.497   4.964   4.396  0.0538 -0.1805  2.4853
16643TIP3   OH271419   1.002   4.892  17.028 -0.1185 -0.2707  0.2906
16643TIP3    H171420   1.079   4.948  17.017 -0.7849  0.7913  0.8769
16643TIP3    H271421   1.030   4.806  16.999  0.9805  0.3414 -0.4895
16644TIP3   OH271422   3.232   5.984   4.321 -0.4843 -0.3448 -0.0392
16644TIP3    H171423   3.293   5.944   4.382 -0.7808 -1.0272 -0.1854
16644TIP3    H271424   3.278   5.984   4.237 -0.0123  0.7464  0.2123
16645TIP3   OH271425   2.577   0.499   2.928  0.4157 -0.4121 -0.1431
16645TIP3    H171426   2.593   0.412   2.966 -0.6916 -0.7283 -0.4001
16645TIP3    H271427   2.590   0.487   2.834 -0.3625 -0.4532 -0.2500
16646TIP3   OH271428   2.673   2.478   3.126 -0.1351  0.0241 -0.2165
16646TIP3    H171429   2.662   2.532   3.047  0.8917 -3.6994 -3.0285
16646TIP3    H271430   2.597   2.421   3.127  0.3290 -0.5770  1.0069
16647TIP3   OH271431   3.199   0.502  11.509  0.2549 -0.0861  0.3776
16647TIP3    H171432   3.203   0.598  11.512 -2.2507  0.0882 -0.5898
16647TIP3    H271433   3.234   0.480  11.423  0.1216 -0.0040  0.3032
16648TIP3   OH271434   4.516   3.974  12.364 -0.6783 -0.0715 -0.0466
16648TIP3    H171435   4.437   3.959  12.313 -2.2774 -0.5571  2.4726
16648TIP3    H271436   4.503   4.060  12.405 -0.0443 -0.2717  0.6018
16649TIP3   OH271437   1.158   1.793  12.017 -0.0232 -0.3603  0.0658
16649TIP3    H171438   1.071   1.785  11.979  0.1797 -0.0192 -0.4862
16649TIP3    H271439   1.143   1.806  12.110 -0.5541 -0.4633 -0.0030
16650TIP3   OH271440   3.201   6.575  12.113  0.5915 -0.3352 -0.7081
16650TIP3    H171441   3.265   6.518  12.155  0.3764  1.1789  1.7677
16650TIP3    H271442   3.120   6.524  12.112  0.7269 -0.5660  0.2607
16651TIP3   OH271443   4.068   0.834   2.328 -0.2881 -0.0999  0.6017
16651TIP3    H171444   4.130   0.805   2.261 -0.5053  1.5227 -0.3129
16651TIP3    H271445   4.028   0.753   2.360  0.2281 -0.9365 -0.8248
16652TIP3   OH271446   1.159   0.262  16.587 -0.0184 -0.0967  0.0032
16652TIP3    H171447   1.198   0.321  16.523  0.5593 -0.5772 -0.0997
16652TIP3    H271448   1.232   0.237  16.644 -0.3112 -0.4982  0.2065
16653TIP3   OH271449   2.839   1.062   1.057 -0.2990  0.0429 -0.0197
16653TIP3    H171450   2.885   0.981   1.034 -1.9149 -0.7176 -0.6294
16653TIP3    H271451   2.884   1.094   1.135  1.7223 -0.3044 -1.0043
16654TIP3   OH271452   6.071   4.664   1.222 -0.2738  0.6513 -0.0335
16654TIP3    H171453   6.077   4.739   1.281  0.9339 -1.2738  2.3973
16654TIP3    H271454   6.093   4.588   1.277 -1.4661 -1.4962 -2.3908
16655TIP3   OH271455   5.987   1.437   1.094 -0.3957 -0.1748  0.1206
16655TIP3    H171456   5.911   1.411   1.145  0.1939  0.3036  1.2570
16655TIP3    H271457   6.059   1.444   1.157 -0.1440  2.5457 -0.3635
16656TIP3   OH271458   2.660   4.539   5.838  1.0283  0.4317  1.0432
16656TIP3    H171459   2.598   4.506   5.904 -0.7769  0.5780 -0.5336
16656TIP3    H271460   2.704   4.461   5.806  0.4953  0.1287  1.0340
16657TIP3   OH271461   4.385   3.891  16.035 -0.0835  0.4223  0.2179
16657TIP3    H171462   4.429   3.839  15.969 -2.3093 -1.2475 -0.0353
16657TIP3    H271463   4.369   3.830  16.107  2.4192  2.2363  2.4037
16658TIP3   OH271464   6.386   2.492  14.565 -0.3636  0.7402  0.1271
16658TIP3    H171465   6.365   2.405  14.531  2.6885  1.0508 -2.7691
16658TIP3    H271466   6.349   2.552  14.500 -0.3937  1.5287  0.8786
16659TIP3   OH271467   4.522   6.327   0.147  0.3352  0.0077  0.1471
16659TIP3    H171468   4.504   6.413   0.109 -0.8283  0.9450  2.7880
16659TIP3    H271469   4.609   6.336   0.186  0.8588 -0.4859 -0.8868
16660TIP3   OH271470   0.554   2.174  12.978  0.4456 -0.9264 -0.4881
16660TIP3    H171471   0.625   2.192  13.040 -0.2326 -0.0870  0.0531
16660TIP3    H271472   0.481   2.146  13.032  0.3930 -1.9148 -1.0575
16661TIP3   OH271473   2.842   1.078  11.678  0.2554 -0.0760  0.0795
16661TIP3    H171474   2.813   1.116  11.760 -0.2089 -2.1725  0.9315
16661TIP3    H271475   2.883   0.995  11.704  0.2593 -0.6763 -1.7919
16662TIP3   OH271476   4.090   4.491   2.363  0.1636 -0.2906 -0.1440
16662TIP3    H171477   4.142   4.565   2.329 -1.5092  0.9574 -0.0451
16662TIP3    H271478   4.142   4.414   2.340  1.6254  0.8598 -0.8627
16663TIP3   OH271479   0.215   1.588  15.960 -0.0539 -0.5351  0.2363
16663TIP3    H171480   0.130   1.581  16.003  0.1048 -0.6867  0.5334
16663TIP3    H271481   0.238   1.680  15.967  0.7212 -0.8280  1.9617
16664TIP3   OH271482   5.012   2.880  14.202 -0.4110 -0.1092 -0.4264
16664TIP3    H171483   4.977   2.939  14.136  0.6525 -0.8204 -1.6528
16664TIP3    H271484   5.022   2.935  14.280  2.7782  1.9954 -2.2026
16665TIP3   OH271485   3.191   5.737   0.206 -0.3064 -0.3564 -0.1071
16665TIP3    H171486   3.151   5.811   0.251 -0.9005  0.0517 -1.3025
16665TIP3    H271487   3.280   5.732   0.242 -0.7123  0.0835  0.9627
16666TIP3   OH271488   6.795   2.117  14.394 -0.0268 -0.0116  0.3488
16666TIP3    H171489   6.729   2.178  14.426  0.8083  0.7491  0.6542
16666TIP3    H271490   6.779   2.036  14.442 -1.1697 -0.0588 -0.0894
16667TIP3   OH271491   4.513   1.688   0.830 -0.3228 -0.2481  0.6902
16667TIP3    H171492   4.556   1.614   0.873  0.4313  0.1068  0.5737
16667TIP3    H271493   4.420   1.670   0.837 -0.2104 -0.1897  2.4899
16668TIP3   OH271494   0.447   0.550  11.769  0.5381  0.1274 -0.0296
16668TIP3    H171495   0.525   0.502  11.796 -1.3824 -3.5311 -0.7052
16668TIP3    H271496   0.406   0.576  11.852  0.4406 -1.3369  0.3830
16669TIP3   OH271497   5.677   4.153   5.938  0.9395  0.2476  0.8760
16669TIP3    H171498   5.675   4.088   6.008 -0.1067 -0.0103  0.6099
16669TIP3    H271499   5.617   4.222   5.967  0.9528  0.4207  0.5014
16670TIP3   OH271500   4.352   6.412   3.035  0.3893 -0.5373  0.8536
16670TIP3    H171501   4.307   6.329   3.021  0.9057 -0.8792  1.1720
16670TIP3    H271502   4.387   6.405   3.124 -0.9046  0.6628  1.4765
16671TIP3   OH271503   2.058   2.867   1.208  0.1635 -0.3286  0.0446
16671TIP3    H171504   2.009   2.924   1.148 -0.4010 -0.9269 -0.0615
16671TIP3    H271505   2.014   2.878   1.292 -0.8546 -1.7122 -0.2893
16672TIP3   OH271506   3.630   6.095   4.318 -0.5380 -0.6327  0.3289
16672TIP3    H171507   3.615   6.134   4.232  2.5345  0.5577  0.2838
16672TIP3    H271508   3.558   6.128   4.373  1.0841  3.9008 -0.1127
16673TIP3   OH271509   0.117   0.488   0.316 -0.1382 -0.8243  0.1312
16673TIP3    H171510   0.070   0.566   0.286 -0.6755 -1.4143 -0.5773
16673TIP3    H271511   0.140   0.442   0.236 -0.0658 -1.5432  0.5638
16674TIP3   OH271512   2.843   0.788   3.882  0.6817  0.0435 -0.2294
16674TIP3    H171513   2.881   0.794   3.794  1.7066 -0.0475  0.2131
16674TIP3    H271514   2.844   0.878   3.914  2.5816 -0.2753  0.6520
16675TIP3   OH271515   0.360   2.283   5.938 -0.3446 -0.3290  0.2056
16675TIP3    H171516   0.326   2.197   5.961  1.9210 -0.9982  1.2345
16675TIP3    H271517   0.344   2.337   6.015  2.0800 -1.0169  1.2294
16676TIP3   OH271518   1.497   6.664   3.116 -0.1678 -0.1232 -0.3838
16676TIP3    H171519   1.567   6.614   3.073 -0.7421 -0.4772 -0.9211
16676TIP3    H271520   1.531   6.753   3.122  1.0803 -0.6621  1.0455
16677TIP3   OH271521   0.320   6.557  16.393 -0.3333  0.4194 -0.0930
16677TIP3    H171522   0.337   6.603  16.311 -2.2196  1.7322  0.2343
16677TIP3    H271523   0.305   6.626  16.458 -1.5320 -0.6160  0.7756
16678TIP3   OH271524   4.498   4.566   6.243  0.8711 -0.2452 -0.7386
16678TIP3    H171525   4.581   4.553   6.288  0.0281 -0.2789  0.8308
16678TIP3    H271526   4.484   4.661   6.244  1.3001 -0.1591 -1.7791
16679TIP3   OH271527   0.576   6.813  15.120  0.0418  0.1326  0.3723
16679TIP3    H171528   0.611   6.751  15.056  1.8646  1.8966 -0.3857
16679TIP3    H271529   0.586   6.770  15.204  0.6248 -0.8790 -0.2109
16680TIP3   OH271530   6.584   4.042   4.203 -0.1636  0.0152  0.0740
16680TIP3    H171531   6.585   3.947   4.215 -0.4307 -0.1375 -1.0129
16680TIP3    H271532   6.610   4.055   4.111  0.3795  1.0159  0.3592
16681TIP3   OH271533   2.111   3.894  11.945  0.3308  0.2041 -0.4696
16681TIP3    H171534   2.111   3.933  12.033 -0.0952  0.0471 -0.3972
16681TIP3    H271535   2.204   3.883  11.924  0.4356 -1.0312  0.5356
16682TIP3   OH271536   1.487   1.638  14.712 -0.2572  0.5203  0.5163
16682TIP3    H171537   1.495   1.733  14.707 -0.0024  0.4560 -0.3709
16682TIP3    H271538   1.572   1.605  14.682 -1.5537 -0.0494 -2.8310
16683TIP3   OH271539   2.451   0.791  12.387  0.1326 -0.1024  0.5313
16683TIP3    H171540   2.425   0.853  12.456 -0.0143 -0.5042  0.8379
16683TIP3    H271541   2.399   0.713  12.405  1.4203 -0.8469  1.0355
16684TIP3   OH271542   1.818   4.779   5.046  0.4910 -0.6740 -0.1236
16684TIP3    H171543   1.859   4.813   5.125 -1.4194 -0.0992  0.6478
16684TIP3    H271544   1.727   4.808   5.052 -0.2182 -2.5383 -1.4172
16685TIP3   OH271545   6.042   1.364   1.566  0.3604 -0.3181 -0.4581
16685TIP3    H171546   6.033   1.295   1.632  0.1364  0.6759  0.5698
16685TIP3    H271547   6.067   1.442   1.616 -1.5272  0.8717 -1.3230
16686TIP3   OH271548   2.423   4.871  12.490 -0.0153  1.3921  0.3394
16686TIP3    H171549   2.478   4.818  12.433 -1.3967  1.9246 -1.5719
16686TIP3    H271550   2.462   4.863  12.576 -1.3001 -4.3773  0.6000
16687TIP3   OH271551   0.565   4.816   0.168 -0.4289  0.4458  0.1170
16687TIP3    H171552   0.623   4.891   0.171 -1.0659  0.9151  0.9687
16687TIP3    H271553   0.609   4.753   0.111  0.9212  0.7860  0.7686
16688TIP3   OH271554   6.159   1.095  11.369 -0.6410 -0.0242 -0.8916
16688TIP3    H171555   6.078   1.045  11.376 -1.6873  1.5955 -0.9750
16688TIP3    H271556   6.149   1.166  11.432  1.0144 -0.1898 -0.4241
16689TIP3   OH271557   4.983   0.766  14.693 -0.0532  0.7019  0.5203
16689TIP3    H171558   4.974   0.671  14.692  1.1741  0.5703 -1.1447
16689TIP3    H271559   5.077   0.781  14.680 -0.5750  2.1642 -1.8569
16690TIP3   OH271560   2.540   2.903  11.514  0.1715 -0.1875 -0.1027
16690TIP3    H171561   2.472   2.866  11.457 -0.0906  1.1522 -0.6753
16690TIP3    H271562   2.597   2.829  11.533 -0.9389 -1.1384 -0.3512
16691TIP3   OH271563   1.581   1.350  14.001  0.2495 -0.0025  0.0569
16691TIP3    H171564   1.498   1.379  13.965  0.6655 -0.8205 -1.6019
16691TIP3    H271565   1.637   1.337  13.925  2.7844  3.1383  1.2780
16692TIP3   OH271566   5.005   5.508  12.510 -0.3641 -0.2372 -0.3491
16692TIP3    H171567   4.989   5.507  12.416 -0.5480 -0.2144 -0.3200
16692TIP3    H271568   5.084   5.456  12.522  0.6078  1.1384 -0.6896
16693TIP3   OH271569   5.429   0.864  14.437 -0.0820 -0.5126  0.0206
16693TIP3    H171570   5.410   0.894  14.526  2.7902  1.8535 -0.1203
16693TIP3    H271571   5.455   0.773  14.448  0.6894 -0.1101  1.6612
16694TIP3   OH271572   2.863   2.331   4.768  0.0761  0.0637 -0.2754
16694TIP3    H171573   2.941   2.347   4.822  0.7566 -1.1739 -0.8596
16694TIP3    H271574   2.886   2.363   4.681 -0.0874 -0.2282 -0.4286
16695TIP3   OH271575   2.626   5.046  16.221  0.4043  0.0463 -0.0053
16695TIP3    H171576   2.642   5.056  16.127  0.7792 -1.1832 -0.0831
16695TIP3    H271577   2.563   4.974  16.227 -0.8212  1.1378  0.6136
16696TIP3   OH271578   4.703   4.326  14.371  0.3294 -0.1105 -0.1235
16696TIP3    H171579   4.614   4.346  14.340  1.1268  4.2217  0.1350
16696TIP3    H271580   4.695   4.324  14.466  0.7272  1.6811 -0.0351
16697TIP3   OH271581   3.784   6.547   1.551  0.3655 -0.0990  0.7139
16697TIP3    H171582   3.814   6.595   1.629 -2.0792 -0.0339  1.6692
16697TIP3    H271583   3.740   6.614   1.498 -1.6123 -0.9160  1.2733
16698TIP3   OH271584   6.757   5.962  15.341  0.0773 -0.5360  0.5929
16698TIP3    H171585   6.746   5.876  15.380 -1.0206 -0.0057  1.4693
16698TIP3    H271586   6.735   5.950  15.248  1.3568 -1.4980  0.3973
16699TIP3   OH271587   5.871   5.338   1.659  0.8084 -0.4956  0.6181
16699TIP3    H171588   5.944   5.350   1.720  0.7967  2.7836  0.0991
16699TIP3    H271589   5.913   5.334   1.573  0.5099 -0.4934  0.4730
16700TIP3   OH271590   0.028   2.336  12.065 -0.0485 -0.0310  0.1976
16700TIP3    H171591   0.012   2.245  12.040 -3.5899  0.6108 -0.1989
16700TIP3    H271592   0.002   2.340  12.157 -1.4938  0.9159 -0.2430
16701TIP3   OH271593   1.915   3.778   3.700  0.3043  0.0276  0.3812
16701TIP3    H171594   1.964   3.791   3.781  0.2731  0.0761  0.3917
16701TIP3    H271595   1.896   3.866   3.668 -1.2047  0.0432  1.2327
16702TIP3   OH271596   5.209   3.171   4.348 -0.0632 -0.2888  0.3260
16702TIP3    H171597   5.143   3.109   4.381 -0.9434  0.0366 -0.7938
16702TIP3    H271598   5.289   3.147   4.395 -0.8953 -0.8904  1.4891
16703TIP3   OH271599   1.391   1.564   0.177 -0.3774 -0.3392 -0.1217
16703TIP3    H171600   1.413   1.538   0.266 -0.0138 -1.2011 -0.4566
16703TIP3    H271601   1.304   1.605   0.184  0.5952  1.5871  0.9509
16704TIP3   OH271602   3.584   4.075   1.510  0.2653  0.1490 -0.0912
16704TIP3    H171603   3.537   4.005   1.554  0.8708 -0.5055 -0.4728
16704TIP3    H271604   3.674   4.043   1.504  0.2546  0.3711 -1.5075
16705TIP3   OH271605   0.384   1.340   3.984  0.2181  0.4884  0.4074
16705TIP3    H171606   0.354   1.430   3.981  1.8795  1.2072  3.1251
16705TIP3    H271607   0.358   1.309   4.071 -0.9720 -1.9086 -0.7479
16706TIP3   OH271608   1.472   6.256  14.687 -0.5520 -0.2565 -0.6605
16706TIP3    H171609   1.487   6.161  14.680  0.2503 -0.0664 -1.6221
16706TIP3    H271610   1.485   6.276  14.779 -0.3958 -1.0244 -0.5103
16707TIP3   OH271611   2.676   5.370   3.850 -0.3427 -0.4441  0.0375
16707TIP3    H171612   2.698   5.319   3.928 -1.6231  0.4455  0.9829
16707TIP3    H271613   2.717   5.321   3.778  0.7801 -1.3098  1.2387
16708TIP3   OH271614   0.050   3.734   4.543  0.1292  0.1222 -0.5565
16708TIP3    H171615   0.106   3.757   4.469  3.5382 -0.3936  1.7771
16708TIP3    H271616   0.020   3.645   4.524 -0.2093  0.5369 -2.0080
16709TIP3   OH271617   1.939   3.204  17.111 -0.5541 -0.1787  0.0695
16709TIP3    H171618   1.948   3.170  17.022 -2.0316 -2.2665  0.7039
16709TIP3    H271619   1.863   3.159  17.148  1.7901 -1.5994  3.4235
16710TIP3   OH271620   4.050   3.279  13.648  0.6606  0.2301 -0.3714
16710TIP3    H171621   4.038   3.190  13.681 -1.0192  0.2776 -0.7840
16710TIP3    H271622   4.089   3.327  13.721 -0.7028 -0.2632  0.6982
16711TIP3   OH271623   2.583   2.244   5.960 -0.0100  0.7924  0.5174
16711TIP3    H171624   2.659   2.302   5.949 -0.0119  1.2751  2.7224
16711TIP3    H271625   2.569   2.243   6.055 -0.8301 -1.7990  0.3800
16712TIP3   OH271626   3.011   4.601  11.230  0.0393 -0.4438 -0.0067
16712TIP3    H171627   3.099   4.593  11.268 -0.8094 -0.0391  2.1136
16712TIP3    H271628   2.958   4.539  11.279 -1.0142 -0.2100 -0.8404
16713TIP3   OH271629   0.261   1.605  17.004 -0.4008  0.9867 -0.3038
16713TIP3    H171630   0.280   1.676  16.942  3.2354  0.0134 -0.3781
16713TIP3    H271631   0.346   1.578  17.037 -1.9379 -1.6280  1.6880
16714TIP3   OH271632   4.991   6.121   2.257 -0.2019 -0.4839  0.0745
16714TIP3    H171633   5.034   6.172   2.325  0.9960  0.2527 -1.2304
16714TIP3    H271634   4.983   6.033   2.295  1.4840 -0.3672  0.7284
16715TIP3   OH271635   3.322   1.951   2.493  0.1518 -0.0381 -0.1343
16715TIP3    H171636   3.243   1.897   2.493 -0.0808  0.2338  2.5044
16715TIP3    H271637   3.362   1.936   2.407 -2.6198 -0.3882 -1.4057
16716TIP3   OH271638   3.628   0.908   3.866  0.3891 -0.1465  0.3463
16716TIP3    H171639   3.572   0.960   3.924 -0.3139  0.1786 -0.6276
16716TIP3    H271640   3.588   0.821   3.865 -0.6575  0.3438 -1.1156
16717TIP3   OH271641   6.023   4.774   5.383 -0.7102  0.4415  0.1023
16717TIP3    H171642   5.989   4.700   5.433  0.4869 -0.8053 -0.8922
16717TIP3    H271643   5.979   4.768   5.298  1.6698 -0.9550 -1.0524
16718TIP3   OH271644   2.768   4.558   4.997  0.2017 -0.6613  0.6851
16718TIP3    H171645   2.707   4.630   4.981  0.0398 -1.0506 -0.4993
16718TIP3    H271646   2.854   4.598   4.990  0.1019 -0.3997  0.9264
16719TIP3   OH271647   3.989   5.982   2.655  0.0343 -0.5185  0.4753
16719TIP3    H171648   3.913   5.928   2.636  0.5124 -1.3559  0.8713
16719TIP3    H271649   3.997   5.979   2.751  1.6461 -1.9932  0.3342
16720TIP3   OH271650   0.436   0.906   3.613  0.1352  0.4841 -0.3180
16720TIP3    H171651   0.461   0.833   3.670  1.0228 -0.2137 -1.5728
16720TIP3    H271652   0.370   0.868   3.554  0.5866  0.7003 -0.9627
16721TIP3   OH271653   3.956   3.171  14.885  0.5094  1.1193  0.1336
16721TIP3    H171654   3.873   3.144  14.845  0.3396  0.2588  1.0372
16721TIP3    H271655   4.023   3.134  14.828  0.2693  1.5386 -0.4191
16722TIP3   OH271656   6.056   1.623  14.040  0.1635 -0.3511  0.0894
16722TIP3    H171657   5.962   1.612  14.025 -0.4034 -0.3924  3.3091
16722TIP3    H271658   6.087   1.536  14.064  0.6836 -0.0039  0.7087
16723TIP3   OH271659   3.991   0.638   3.220 -0.5436  0.4307 -0.0476
16723TIP3    H171660   3.936   0.713   3.199  0.3398  0.5548 -2.1227
16723TIP3    H271661   3.932   0.563   3.218 -0.5537  0.4443 -3.1817
16724TIP3   OH271662   6.288   5.423   3.429 -0.3630  0.2067  0.1440
16724TIP3    H171663   6.314   5.367   3.356 -3.1181  0.5066 -1.1138
16724TIP3    H271664   6.370   5.454   3.466  1.0821 -0.5672 -2.3362
16725TIP3   OH271665   4.698   4.802   5.687  0.0739 -0.2124 -0.1019
16725TIP3    H171666   4.694   4.709   5.666 -1.1318  0.1939 -1.7697
16725TIP3    H271667   4.775   4.834   5.639 -0.1526 -0.1428 -0.4231
16726TIP3   OH271668   2.514   0.088  11.744  0.1487  0.2192 -0.3057
16726TIP3    H171669   2.575   0.088  11.670  0.9046 -1.2942  0.2985
16726TIP3    H271670   2.447   0.024  11.720 -1.1426  1.7654 -0.8974
16727TIP3   OH271671   0.083   5.902   5.400  0.6696  0.4646  0.5175
16727TIP3    H171672   0.074   5.833   5.466  1.2767  0.1967  0.3123
16727TIP3    H271673   0.009   5.961   5.418 -0.5602 -0.8680 -0.0694
16728TIP3   OH271674   6.313   0.838  14.163 -0.6472 -0.0098 -0.3575
16728TIP3    H171675   6.287   0.788  14.086 -0.9461 -0.9311  0.3290
16728TIP3    H271676   6.237   0.892  14.183 -0.5193  0.3334 -0.7872
16729TIP3   OH271677   1.615   1.133  12.621  0.8587  0.0642  0.3195
16729TIP3    H171678   1.619   1.090  12.706 -1.6363 -0.0712  0.4006
16729TIP3    H271679   1.603   1.061  12.559  0.6922  0.3198  0.0548
16730TIP3   OH271680   0.724   5.514  16.558 -0.0880 -0.0838 -0.0756
16730TIP3    H171681   0.734   5.585  16.621  0.4810 -0.8991  0.7628
16730TIP3    H271682   0.737   5.435  16.610  0.5950 -0.7502 -1.2698
16731TIP3   OH271683   0.128   1.492  14.521 -0.6674  0.7207  0.3789
16731TIP3    H171684   0.171   1.470  14.438  1.3297 -1.0822  1.7973
16731TIP3    H271685   0.167   1.576  14.546 -0.2705  0.6191  0.1218
16732TIP3   OH271686   2.052   4.664  13.349  0.1916  0.1862  0.0100
16732TIP3    H171687   2.033   4.578  13.312 -0.3338 -0.8314  2.5652
16732TIP3    H271688   1.968   4.709  13.349  0.1237  0.0604  0.2724
16733TIP3   OH271689   0.879   5.911   0.516 -0.2126 -0.6082  0.3665
16733TIP3    H171690   0.878   5.940   0.425  0.8848 -0.4317  0.4047
16733TIP3    H271691   0.836   5.981   0.565 -1.4026 -1.0105 -0.1066
16734TIP3   OH271692   4.150   0.047   2.187  0.1431  0.3033 -0.3972
16734TIP3    H171693   4.112   0.077   2.104 -1.0885  0.7982  0.3383
16734TIP3    H271694   4.201  -0.030   2.163 -1.4330 -0.4703 -1.3914
16735TIP3   OH271695   4.826   4.863  13.962  0.9170 -0.2786  0.2898
16735TIP3    H171696   4.768   4.814  14.021  1.7115 -1.3585  0.1780
16735TIP3    H271697   4.778   4.866  13.879  0.6809 -0.5156  0.4149
16736TIP3   OH271698   0.700   2.028   3.030 -0.1112  0.5736 -0.2650
16736TIP3    H171699   0.706   2.094   3.099 -0.8952 -0.0221  0.3897
16736TIP3    H271700   0.680   1.946   3.076 -1.4199  0.3062 -1.2586
16737TIP3   OH271701   0.350   4.167   1.744 -0.1515 -0.2772  0.3173
16737TIP3    H171702   0.304   4.251   1.744 -1.1751 -0.7646 -3.0320
16737TIP3    H271703   0.400   4.167   1.826 -0.6092  3.3150  0.6757
16738TIP3   OH271704   2.678   6.757  15.638  0.0005 -0.4349 -0.3467
16738TIP3    H171705   2.679   6.842  15.593 -2.2891  0.2890  0.9124
16738TIP3    H271706   2.587   6.744  15.663  0.5493 -2.7032  0.5938
16739TIP3   OH271707   4.199   4.967   5.389  0.2453 -0.6817  0.4139
16739TIP3    H171708   4.222   4.874   5.385 -2.1976 -1.2924 -0.5323
16739TIP3    H271709   4.200   4.989   5.482  2.5367 -1.1885  0.5251
16740TIP3   OH271710   2.578   0.189  13.587 -0.1544  0.4259 -0.1019
16740TIP3    H171711   2.573   0.231  13.501  0.3723  0.2025 -0.2458
16740TIP3    H271712   2.580   0.095  13.568  1.3544  0.4002  0.0698
16741TIP3   OH271713   3.694   5.719   0.190  0.3595 -0.1600 -0.9581
16741TIP3    H171714   3.758   5.789   0.201 -0.7210  0.8656 -1.0067
16741TIP3    H271715   3.742   5.639   0.208  1.6802  0.5761 -1.1303
16742TIP3   OH271716   5.119   3.689   4.050 -0.4609 -0.0067  0.3220
16742TIP3    H171717   5.033   3.699   4.008  0.6328 -3.2855 -2.9870
16742TIP3    H271718   5.100   3.652   4.136 -2.3736 -0.7726 -0.3990
16743TIP3   OH271719   4.338   4.407   0.692  0.0282  0.0994  0.3624
16743TIP3    H171720   4.251   4.399   0.654  0.0984  2.4825 -0.3179
16743TIP3    H271721   4.393   4.352   0.636 -0.7625 -0.2856 -0.0517
16744TIP3   OH271722   3.186   4.506  12.324 -0.0813 -0.3088 -0.5182
16744TIP3    H171723   3.184   4.464  12.410  2.1006 -0.1408 -0.3449
16744TIP3    H271724   3.117   4.463  12.274 -1.3487 -0.4510  1.2931
16745TIP3   OH271725   5.979   0.332   5.074 -0.5868  0.1638  0.3285
16745TIP3    H171726   6.048   0.269   5.055 -0.3533  0.3448  0.5728
16745TIP3    H271727   5.900   0.279   5.083 -0.2068 -0.2065  1.5729
16746TIP3   OH271728   5.271   2.975  15.767 -0.3621  0.2190  0.1217
16746TIP3    H171729   5.207   3.032  15.725 -0.8204 -0.6539 -0.3720
16746TIP3    H271730   5.355   3.005  15.734 -0.7629 -0.8515 -1.8728
16747TIP3   OH271731   5.098   3.067   5.987  0.1651  0.3120  0.2610
16747TIP3    H171732   5.121   2.988   5.938  1.6208 -0.2283  1.7890
16747TIP3    H271733   5.071   3.130   5.920  0.5247 -0.9574 -1.0904
16748TIP3   OH271734   6.574   4.241  15.686  0.1895  0.3008  0.2041
16748TIP3    H171735   6.483   4.219  15.663  0.2403  1.1203 -0.8436
16748TIP3    H271736   6.568   4.277  15.774 -0.1264 -2.2024  1.2447
16749TIP3   OH271737   4.204   4.658  11.813 -0.5852 -0.0028  0.3646
16749TIP3    H171738   4.277   4.601  11.790 -0.5037 -0.5283  1.9221
16749TIP3    H271739   4.145   4.653  11.737 -0.4107 -1.8810  0.3458
16750TIP3   OH271740   1.892   1.234   3.221 -0.3500  1.3160  0.3442
16750TIP3    H171741   1.851   1.162   3.173 -0.3299  0.5343  1.4544
16750TIP3    H271742   1.984   1.207   3.230  0.0626  2.3102 -0.7508
16751TIP3   OH271743   4.813   6.350  11.562 -0.8056  0.4446  0.3663
16751TIP3    H171744   4.739   6.402  11.531 -0.0840  1.8478  0.9954
16751TIP3    H271745   4.887   6.410  11.565  0.8611 -1.3890 -2.0721
16752TIP3   OH271746   3.586   2.556  16.007  0.0232 -0.5290  0.3061
16752TIP3    H171747   3.679   2.558  16.032  0.1245  0.7250 -0.1269
16752TIP3    H271748   3.543   2.615  16.069 -0.8594 -2.7219  1.8577
16753TIP3   OH271749   1.651   3.189   5.598  0.2001 -0.0075 -0.2745
16753TIP3    H171750   1.746   3.187   5.606  0.0577  2.0163  2.6630
16753TIP3    H271751   1.634   3.260   5.536  0.5575  0.3727  0.0642
16754TIP3   OH271752   1.634   5.376   3.072 -0.1771  0.0323  0.0707
16754TIP3    H171753   1.611   5.457   3.119 -0.1373 -0.2681  0.6092
16754TIP3    H271754   1.554   5.325   3.072 -0.4421  0.4550 -1.0520
16755TIP3   OH271755   4.822   3.123   0.481  0.5698 -0.4553  0.2082
16755TIP3    H171756   4.814   3.030   0.502 -0.8961 -0.5536 -0.7393
16755TIP3    H271757   4.775   3.134   0.399 -0.3748  1.3540  0.9568
16756TIP3   OH271758   3.047   2.186  12.353  0.5038 -0.2125  0.0831
16756TIP3    H171759   3.080   2.213  12.438  1.3288 -1.7517  0.2661
16756TIP3    H271760   2.989   2.111  12.372 -1.8333  1.4048 -0.3914
16757TIP3   OH271761   2.012   1.347  16.616 -0.1807 -0.5525  0.4021
16757TIP3    H171762   2.080   1.289  16.651 -0.0854 -0.0359  1.0944
16757TIP3    H271763   2.023   1.429  16.666 -0.0932  0.1752 -0.7941
16758TIP3   OH271764   2.733   4.970   1.141  0.2008  0.3456  0.5732
16758TIP3    H171765   2.726   5.041   1.078  1.5540  1.9949  2.2245
16758TIP3    H271766   2.803   4.914   1.108 -0.8773 -0.2679 -0.7334
16759TIP3   OH271767   5.698   1.215   2.613  0.2524 -0.1014  0.3711
16759TIP3    H171768   5.708   1.182   2.523  0.0707  0.1847  0.2421
16759TIP3    H271769   5.673   1.307   2.601 -0.7793 -0.3343  0.7079
16760TIP3   OH271770   0.421   4.356   4.209  0.2933 -0.7909  0.6669
16760TIP3    H171771   0.492   4.387   4.266 -0.6769  0.2543  1.3290
16760TIP3    H271772   0.355   4.322   4.270 -0.8118  0.4642  0.1814
16761TIP3   OH271773   1.629   1.289  12.286 -0.0554  0.7195  0.5620
16761TIP3    H171774   1.708   1.272  12.337  0.3529 -0.7335 -0.5112
16761TIP3    H271775   1.647   1.370  12.239 -0.4863  2.1512  2.7792
16762TIP3   OH271776   3.915   5.927   2.315  0.1122  0.0762  0.1553
16762TIP3    H171777   3.883   5.841   2.291 -0.7808  0.5740 -0.4732
16762TIP3    H271778   3.864   5.952   2.392  0.6508 -0.1241  0.5789
16763TIP3   OH271779   3.594   0.386   2.726 -0.0820  0.0761  0.5926
16763TIP3    H171780   3.687   0.393   2.709 -0.3442  0.1065 -0.9048
16763TIP3    H271781   3.587   0.324   2.800  1.1616  1.0319  1.5202
16764TIP3   OH271782   2.559   3.542  12.813 -0.2997 -0.1711 -0.0020
16764TIP3    H171783   2.467   3.555  12.835 -0.1148  0.3089  0.4920
16764TIP3    H271784   2.597   3.630  12.814 -0.0598 -0.2408 -1.2297
16765TIP3   OH271785   2.158   4.484   6.605  0.1764 -0.3215  0.5104
16765TIP3    H171786   2.236   4.504   6.553 -0.3087  0.3485  0.0268
16765TIP3    H271787   2.094   4.454   6.540 -0.6244  1.0782  0.6233
16766TIP3   OH271788   1.751   3.206  13.346  0.4064 -0.6400 -0.1758
16766TIP3    H171789   1.780   3.127  13.301  0.3534 -0.2949 -0.8245
16766TIP3    H271790   1.656   3.206  13.337  0.4075 -0.4960 -0.1972
16767TIP3   OH271791   4.984   0.568  13.488 -0.0553 -0.2122 -0.3514
16767TIP3    H171792   5.006   0.552  13.396 -0.3881 -0.9814 -0.3002
16767TIP3    H271793   5.050   0.630  13.518 -0.0360  0.1637 -1.1517
16768TIP3   OH271794   2.233   2.990  11.573  0.0470 -0.1470 -0.2612
16768TIP3    H171795   2.266   2.975  11.485  1.9643  1.5226  0.1293
16768TIP3    H271796   2.248   3.084  11.588 -1.4924 -0.1292  1.3393
16769TIP3   OH271797   6.299   4.743   1.493 -0.3247  0.3167  0.2506
16769TIP3    H171798   6.356   4.667   1.478 -0.6294  0.0150  0.6185
16769TIP3    H271799   6.223   4.707   1.539 -0.1374  0.9711  1.0776
16770TIP3   OH271800   6.567   3.793   4.714 -0.2224  0.3616  0.6078
16770TIP3    H171801   6.581   3.699   4.724  0.2543  0.4240  0.5381
16770TIP3    H271802   6.546   3.804   4.621  1.6095  0.5494  0.1925
16771TIP3   OH271803   6.402   2.691  13.043 -0.4597 -0.2479 -0.2160
16771TIP3    H171804   6.413   2.603  13.079  1.0685 -0.4168 -1.0558
16771TIP3    H271805   6.366   2.742  13.116 -1.2689 -1.5289  0.3108
16772TIP3   OH271806   2.725   2.489  15.230  0.7887 -0.5760 -0.0718
16772TIP3    H171807   2.799   2.541  15.199  0.2571  0.5348  0.5062
16772TIP3    H271808   2.666   2.483  15.155  0.7986 -0.2414 -0.1079
16773TIP3   OH271809   0.175   6.487  15.542  0.0438  0.1345  0.5077
16773TIP3    H171810   0.263   6.496  15.578  0.1598  2.3933 -0.2706
16773TIP3    H271811   0.185   6.511  15.450 -1.3960  0.5380  0.4472
16774TIP3   OH271812   1.013   4.711  10.851 -0.8101  0.2239  0.4271
16774TIP3    H171813   0.959   4.789  10.841 -0.8198  0.1186 -0.3449
16774TIP3    H271814   1.043   4.690  10.763 -1.1513 -0.8997  0.5677
16775TIP3   OH271815   0.203   4.575   4.043 -0.4105  0.2018 -0.2728
16775TIP3    H171816   0.244   4.618   3.968 -0.0641 -0.5066 -0.4953
16775TIP3    H271817   0.270   4.517   4.078 -1.0548 -0.5773 -0.3202
16776TIP3   OH271818   0.090   4.561  15.836  0.0915  0.6585  0.1231
16776TIP3    H171819   0.128   4.474  15.830 -1.5994  0.0158 -1.4650
16776TIP3    H271820   0.140   4.614  15.774  0.4867  0.6043  0.3908
16777TIP3   OH271821   6.503   1.803  13.361  0.3673 -0.3657 -0.5608
16777TIP3    H171822   6.446   1.777  13.433  2.2574  0.4439  1.2600
16777TIP3    H271823   6.564   1.730  13.352  1.3229  0.3731 -0.0814
16778TIP3   OH271824   5.312   1.311  10.741  0.5653 -0.4847 -0.6104
16778TIP3    H171825   5.238   1.341  10.793  0.6266 -0.6072 -0.4526
16778TIP3    H271826   5.389   1.349  10.783  0.5596 -0.0436 -1.0042
16779TIP3   OH271827   1.795   6.750   5.456  0.2012 -0.4245  0.1350
16779TIP3    H171828   1.841   6.796   5.386 -0.5062  0.8511  0.5067
16779TIP3    H271829   1.711   6.725   5.418  0.6488 -1.5709 -0.1201
16780TIP3   OH271830   3.737   0.002  15.216 -0.0153  0.0254 -0.0669
16780TIP3    H171831   3.644  -0.017  15.226 -0.3056  1.8001  0.7806
16780TIP3    H271832   3.781  -0.058  15.276 -0.7936  0.9220  1.4020
16781TIP3   OH271833   6.103   0.451  10.934 -0.3225  0.2067 -0.1388
16781TIP3    H171834   6.111   0.547  10.935 -0.8197  0.2482 -0.0413
16781TIP3    H271835   6.162   0.422  11.003  1.5681  0.3054 -1.6906
16782TIP3   OH271836   4.033   5.874  13.160  0.3411 -0.4530  0.0375
16782TIP3    H171837   4.007   5.834  13.243  0.5569 -0.6939 -0.0104
16782TIP3    H271838   3.950   5.890  13.115  0.1856  0.3590  0.6117
16783TIP3   OH271839   6.672   0.851   3.927  0.3225  0.0566  0.1743
16783TIP3    H171840   6.696   0.825   4.016 -1.6458  0.2977  0.7961
16783TIP3    H271841   6.728   0.927   3.909 -0.1079  0.7683  1.7033
16784TIP3   OH271842   3.525   4.188  11.307 -0.3379  0.4374 -0.2859
16784TIP3    H171843   3.451   4.127  11.314  0.7818 -0.8157  0.8864
16784TIP3    H271844   3.590   4.141  11.256 -0.0365  1.2362 -0.6438
16785TIP3   OH271845   1.163   6.668   4.501  0.3422 -0.4877  0.0137
16785TIP3    H171846   1.214   6.587   4.495  0.0223 -0.7570  0.8543
16785TIP3    H271847   1.081   6.641   4.543 -0.6437 -0.1241 -1.6265
16786TIP3   OH271848   1.877   1.941  10.608  0.1632  0.2158 -0.6600
16786TIP3    H171849   1.829   1.980  10.681 -2.2248 -0.5417 -1.7857
16786TIP3    H271850   1.871   1.846  10.623 -0.4646  0.0513 -1.9089
16787TIP3   OH271851   2.997   6.304   2.908 -0.3950  0.5420 -0.0165
16787TIP3    H171852   3.011   6.243   2.834 -0.1822  0.3286  0.1977
16787TIP3    H271853   2.999   6.391   2.868  1.0406  0.4934 -0.0784
16788TIP3   OH271854   4.779   6.718   4.534  0.0750  0.3451 -0.0708
16788TIP3    H171855   4.821   6.775   4.469 -0.3771  0.2386 -0.4599
16788TIP3    H271856   4.838   6.644   4.544  0.0110  0.2249 -0.5759
16789TIP3   OH271857   3.525   0.720  13.866  0.1643  0.0398 -0.0777
16789TIP3    H171858   3.578   0.794  13.837 -0.1539 -0.0519 -0.9054
16789TIP3    H271859   3.509   0.669  13.786  0.1703 -0.7877  0.4423
16790TIP3   OH271860   3.849   0.413   0.018 -0.1439  0.2368  0.4058
16790TIP3    H171861   3.857   0.496  -0.030  2.5144 -0.4888 -0.5279
16790TIP3    H271862   3.876   0.346  -0.045 -0.4012 -1.1346  1.7297
16791TIP3   OH271863   1.884   0.409  16.112 -0.5708 -0.0018  0.3795
16791TIP3    H171864   1.935   0.386  16.034  0.4907  1.3896  0.6453
16791TIP3    H271865   1.913   0.497  16.135  0.1101 -0.8956  3.1466
16792TIP3   OH271866   6.235   1.116   2.736  0.4027 -0.1294  0.3263
16792TIP3    H171867   6.157   1.167   2.715  0.8210  0.5839  0.4973
16792TIP3    H271868   6.233   1.043   2.674 -1.0409 -0.7826  1.0977
16793TIP3   OH271869   3.786   1.497  12.629 -0.0157 -0.5472  0.0753
16793TIP3    H171870   3.742   1.486  12.545  1.9748 -1.0931 -0.9257
16793TIP3    H271871   3.730   1.450  12.692 -0.4522 -1.8866 -1.2897
16794TIP3   OH271872   4.656   1.974  13.504  0.2492  0.2476  0.0770
16794TIP3    H171873   4.731   1.927  13.467  0.7613  1.0411  0.0966
16794TIP3    H271874   4.582   1.914  13.492  0.6511 -0.0346 -1.0703
16795TIP3   OH271875   3.339   1.807   4.763  0.0653  0.2287 -0.2934
16795TIP3    H171876   3.255   1.850   4.746 -1.0622 -0.9300  2.1184
16795TIP3    H271877   3.343   1.737   4.698 -0.1267  1.2023 -1.3813
16796TIP3   OH271878   5.943   1.330  11.521  0.0317  0.6230  0.2914
16796TIP3    H171879   5.952   1.368  11.434  0.9831 -0.1494  0.0529
16796TIP3    H271880   5.904   1.244  11.507 -0.1037  0.6223  0.6560
16797TIP3   OH271881   6.776   0.353  10.817 -0.3958 -0.2200  0.1388
16797TIP3    H171882   6.855   0.310  10.785 -0.3566  1.1926 -1.7437
16797TIP3    H271883   6.706   0.291  10.797 -0.1986  0.0696 -1.5308
16798TIP3   OH271884   0.423   4.901   2.786 -0.0771  0.0378  0.5468
16798TIP3    H171885   0.401   4.902   2.693  0.9312  0.5081  0.3046
16798TIP3    H271886   0.519   4.891   2.788 -0.2395 -1.5330  1.5574
16799TIP3   OH271887   3.219   5.231  12.574  0.0460 -0.0641 -0.1792
16799TIP3    H171888   3.292   5.177  12.603 -1.2026 -0.9947  1.2971
16799TIP3    H271889   3.244   5.320  12.598 -0.2937 -0.6424  2.4317
16800TIP3   OH271890   0.938   1.114  16.922 -0.3062 -0.5716 -0.2688
16800TIP3    H171891   0.901   1.201  16.915  0.6999 -0.2060 -1.1373
16800TIP3    H271892   0.878   1.067  16.980 -0.3394  0.9715  0.9897
16801TIP3   OH271893   3.210   3.285  11.950  0.1091 -0.3754  0.2977
16801TIP3    H171894   3.230   3.319  11.863 -0.6145 -1.4812 -0.3205
16801TIP3    H271895   3.259   3.341  12.010  2.6008 -1.0944 -0.9725
16802TIP3   OH271896   1.869   3.612  15.098  0.1930  0.1447 -0.2840
16802TIP3    H171897   1.837   3.585  15.184  2.2962 -0.7752  0.2489
16802TIP3    H271898   1.857   3.707  15.097  0.9430  0.2746  1.3861
16803TIP3   OH271899   3.522   4.192  15.948 -0.7863 -0.1963  0.0858
16803TIP3    H171900   3.548   4.150  15.865 -2.0956 -0.4292 -0.2216
16803TIP3    H271901   3.479   4.273  15.921  2.0413  1.6028  0.6890
16804TIP3   OH271902   3.338   3.485   2.009  0.1130  0.6458 -0.3558
16804TIP3    H171903   3.381   3.571   2.006 -0.8480  1.1291 -0.1912
16804TIP3    H271904   3.410   3.423   1.996  1.0432  1.4057  0.9724
16805TIP3   OH271905   6.286   4.723   2.439  0.2842 -0.6161  0.0969
16805TIP3    H171906   6.233   4.741   2.361 -0.9408  0.3578  1.1354
16805TIP3    H271907   6.370   4.694   2.404 -0.9691 -2.3879 -1.5852
16806TIP3   OH271908   5.420   1.862   0.313  0.3375  0.4212  0.1500
16806TIP3    H171909   5.378   1.842   0.229 -0.4544  1.3623  0.3143
16806TIP3    H271910   5.353   1.909   0.362  0.7740 -0.1979  1.3449
16807TIP3   OH271911   2.742   4.427  14.420  0.3085 -0.1857 -0.2580
16807TIP3    H171912   2.728   4.349  14.366  0.0706  0.2685 -0.8567
16807TIP3    H271913   2.682   4.416  14.493  0.1800 -0.5061 -0.4090
16808TIP3   OH271914   5.491   4.808  16.438 -0.1960 -0.0195 -0.7994
16808TIP3    H171915   5.484   4.894  16.397 -1.4563 -0.3007 -1.1966
16808TIP3    H271916   5.458   4.747  16.373 -0.1432 -0.7156 -0.1852
16809TIP3   OH271917   1.793   6.249   3.040 -0.1452  0.0509  0.0375
16809TIP3    H171918   1.745   6.314   3.092 -0.6990  0.5237 -1.0602
16809TIP3    H271919   1.771   6.165   3.081 -0.0113  0.4717  1.0042
16810TIP3   OH271920   2.098   3.153  12.549 -0.3161  0.1710 -0.5040
16810TIP3    H171921   2.140   3.067  12.552  0.4517  0.5628  0.1921
16810TIP3    H271922   2.159   3.211  12.595 -1.4714  0.8146  0.2428
16811TIP3   OH271923   2.753   2.017   6.811 -0.6419 -0.2600  0.1375
16811TIP3    H171924   2.812   2.056   6.747  1.7198 -2.6702  0.7817
16811TIP3    H271925   2.810   1.975   6.875 -3.0318 -2.4224  0.9439
16812TIP3   OH271926   3.790   5.974   2.068  0.0401 -0.5859 -0.1054
16812TIP3    H171927   3.716   5.966   2.008 -1.9163  0.0311  2.1161
16812TIP3    H271928   3.811   5.884   2.092 -0.1042 -0.7629 -0.6506
16813TIP3   OH271929   1.506   6.037  16.970 -0.5850 -0.0026 -0.0216
16813TIP3    H171930   1.515   6.048  16.876  1.4060 -0.8081  0.0541
16813TIP3    H271931   1.412   6.043  16.986 -0.9833 -0.3617 -2.1149
16814TIP3   OH271932   5.227   4.044  17.140  0.3009  0.3365 -0.1190
16814TIP3    H171933   5.277   3.996  17.074 -1.9969  0.5097 -2.0459
16814TIP3    H271934   5.278   4.034  17.221  2.2489 -1.3806 -1.5143
16815TIP3   OH271935   2.934   0.546   3.875  0.0407  0.1837  0.0161
16815TIP3    H171936   2.991   0.573   3.947 -1.0575  2.2072  0.1748
16815TIP3    H271937   2.876   0.621   3.861 -1.8892 -1.4047 -0.8251
16816TIP3   OH271938   0.714   0.127   5.771  0.0159 -0.2235 -0.6660
16816TIP3    H171939   0.741   0.201   5.717 -0.7782 -1.4141 -2.7962
16816TIP3    H271940   0.774   0.127   5.845  1.0707  1.5506 -1.4989
16817TIP3   OH271941   2.765   1.690   2.769 -0.4240  0.3697 -0.1235
16817TIP3    H171942   2.767   1.627   2.841  1.7419 -1.7243 -1.9241
16817TIP3    H271943   2.830   1.756   2.794  0.6218 -0.5698 -0.3177
16818TIP3   OH271944   5.379   4.307  12.203  0.2847 -0.3614 -0.5341
16818TIP3    H171945   5.336   4.274  12.282  0.5463  0.0010 -0.2344
16818TIP3    H271946   5.326   4.382  12.176  0.0427 -0.6507 -0.8569
16819TIP3   OH271947   1.773   3.973  13.226 -0.1751  0.1957 -0.1943
16819TIP3    H171948   1.768   3.925  13.143 -0.2288  0.1492 -0.1646
16819TIP3    H271949   1.696   4.030  13.226  0.3638  0.9120 -0.6136
16820TIP3   OH271950   6.234   3.942   1.532  0.1217 -0.2877  0.0131
16820TIP3    H171951   6.181   4.014   1.498 -0.0053 -0.0190  0.7870
16820TIP3    H271952   6.176   3.866   1.530 -0.5056  0.1371  1.4550
16821TIP3   OH271953   5.381   6.789   4.332  0.0413 -0.4557 -0.0739
16821TIP3    H171954   5.408   6.720   4.272  0.7004  1.0628 -1.5767
16821TIP3    H271955   5.462   6.836   4.353 -0.3774 -0.1924  1.0097
16822TIP3   OH271956   2.796   5.561   5.984 -0.1008  0.5162 -0.4494
16822TIP3    H171957   2.765   5.651   5.978  0.0919  0.4526 -2.7934
16822TIP3    H271958   2.720   5.508   5.958  0.1540  0.0741 -0.3034
16823TIP3   OH271959   5.623   4.206  12.182 -0.2189 -0.1398  0.5177
16823TIP3    H171960   5.634   4.170  12.270 -0.1599  0.1478  0.6319
16823TIP3    H271961   5.534   4.241  12.182 -0.1010  0.1579  0.5715
16824TIP3   OH271962   1.972   3.542   3.571 -0.0728 -0.1185  0.2593
16824TIP3    H171963   1.940   3.631   3.587  1.0553  0.2498  0.5334
16824TIP3    H271964   2.027   3.523   3.647 -0.8191 -1.2970  0.5148
16825TIP3   OH271965   2.729   4.372   4.399  0.0526  0.0939 -0.5475
16825TIP3    H171966   2.799   4.380   4.335  0.1964 -1.0576 -0.5470
16825TIP3    H271967   2.677   4.452   4.389  0.8898  0.5628 -1.1127
16826TIP3   OH271968   1.710   4.806  14.653  0.4742  0.0215  0.0549
16826TIP3    H171969   1.690   4.897  14.632  0.2614  0.0702  0.4789
16826TIP3    H271970   1.803   4.806  14.675  0.9802 -0.2097 -1.9526
16827TIP3   OH271971   2.956   0.946   3.139 -0.0911  0.7709  0.2861
16827TIP3    H171972   2.977   0.928   3.231 -1.4621 -0.7041  0.3181
16827TIP3    H271973   3.038   0.978   3.102  0.2767  2.1533  2.2105
16828TIP3   OH271974   3.100   3.331   1.557 -0.2443  0.2467  0.4487
16828TIP3    H171975   3.079   3.275   1.632 -0.0559  0.6726  0.8178
16828TIP3    H271976   3.057   3.414   1.576 -1.0692  0.0305 -0.4089
16829TIP3   OH271977   0.969   5.844  14.301  0.1076  0.3333 -0.0338
16829TIP3    H171978   0.931   5.815  14.218 -0.6203  0.9632  0.0793
16829TIP3    H271979   1.060   5.812  14.298 -0.1070 -0.2184 -0.7779
16830TIP3   OH271980   1.532   1.484   6.096 -0.4041  0.2138 -0.3761
16830TIP3    H171981   1.587   1.473   6.174 -0.6718 -0.4831 -0.2819
16830TIP3    H271982   1.444   1.465   6.126 -0.3218 -1.5882 -1.1862
16831TIP3   OH271983   1.080   0.660  12.277  0.2878  0.1029 -0.0405
16831TIP3    H171984   1.012   0.717  12.242 -0.6907 -1.5047 -0.8045
16831TIP3    H271985   1.119   0.619  12.200  2.4051  1.3079  0.3583
16832TIP3   OH271986   4.330   6.632  11.968 -0.0733 -0.4318 -0.2081
16832TIP3    H171987   4.361   6.603  11.882  0.8266  1.7390 -0.6644
16832TIP3    H271988   4.251   6.682  11.949  0.7971  1.0820  0.0690
16833TIP3   OH271989   5.092   6.014  11.744  0.4554 -0.2297 -0.2011
16833TIP3    H171990   5.164   5.953  11.729  2.7705  1.7006  2.5290
16833TIP3    H271991   5.075   6.008  11.838  0.3557  2.8651  0.0203
16834TIP3   OH271992   3.246   3.390   3.807 -0.1213 -0.3773  0.0570
16834TIP3    H171993   3.154   3.402   3.830  0.4696 -1.5195  3.3136
16834TIP3    H271994   3.278   3.479   3.793 -1.6435  0.0509 -0.8261
16835TIP3   OH271995   5.280   2.303  12.485  0.5430 -0.2358  0.2626
16835TIP3    H171996   5.348   2.240  12.463  1.0702 -0.1210  1.5491
16835TIP3    H271997   5.200   2.251  12.491  0.8983 -0.7203  0.8752
16836TIP3   OH271998   0.478   5.254  10.987  0.1876  0.5279  0.3457
16836TIP3    H171999   0.562   5.210  10.979 -1.2310 -2.4798  1.0026
16836TIP3    H272000   0.489   5.313  11.061  1.4395 -0.5777  1.0783
16837TIP3   OH272001   2.690   6.012   1.881  0.6585  0.2504  0.0409
16837TIP3    H172002   2.617   6.028   1.821  1.0511  0.3152 -0.4217
16837TIP3    H272003   2.676   6.073   1.954 -0.0652 -0.1415  0.2332
16838TIP3   OH272004   1.910   3.823   2.346 -0.3615  0.1210 -0.3731
16838TIP3    H172005   1.945   3.744   2.386  0.9419 -0.7750 -3.1757
16838TIP3    H272006   1.822   3.798   2.316 -0.8129  0.4077  0.6742
16839TIP3   OH272007   0.066   4.771   0.650 -0.5671  0.2000 -0.5464
16839TIP3    H172008   0.028   4.706   0.591 -0.3674 -0.4677  0.0527
16839TIP3    H272009   0.094   4.843   0.593  0.3434 -0.7799 -1.3392
16840TIP3   OH272010   6.573   2.910  16.797 -0.3693  0.6219 -0.4062
16840TIP3    H172011   6.587   2.816  16.792 -3.5026  0.1324 -0.7580
16840TIP3    H272012   6.525   2.932  16.717 -0.3972  2.3839  0.0588
16841TIP3   OH272013   2.826   3.400   0.488  0.2812  0.6357  0.0496
16841TIP3    H172014   2.782   3.480   0.518  1.2004  0.8536  0.8419
16841TIP3    H272015   2.917   3.411   0.516  0.1845 -1.2060  1.1476
16842TIP3   OH272016   1.333   1.445  17.085 -0.1549  0.5863 -0.1863
16842TIP3    H172017   1.397   1.460  17.015 -0.2102  1.5835 -0.0334
16842TIP3    H272018   1.253   1.418  17.039 -0.3777  1.8329 -0.5727
16843TIP3   OH272019   1.468   4.718   1.304  0.1654 -0.1389  0.5734
16843TIP3    H172020   1.400   4.708   1.238  0.8899  0.1664 -0.2310
16843TIP3    H272021   1.423   4.706   1.387 -0.8989  0.2077  0.0552
16844TIP3   OH272022   4.495   4.110   4.503 -0.1555  0.0733 -0.0471
16844TIP3    H172023   4.508   4.191   4.453 -0.3727 -0.3825 -0.8555
16844TIP3    H272024   4.400   4.099   4.508 -0.1213 -0.3122 -0.2360
16845TIP3   OH272025   2.805   1.914   0.884  0.7079  0.0125 -0.2282
16845TIP3    H172026   2.797   1.907   0.789 -0.1917 -2.7037  0.0073
16845TIP3    H272027   2.815   1.824   0.914  0.5432  0.7980  2.2971
16846TIP3   OH272028   0.493   0.794   0.521 -0.0061  0.0794 -0.4453
16846TIP3    H172029   0.407   0.771   0.485 -0.2469  0.0448  0.1522
16846TIP3    H272030   0.479   0.800   0.615  1.0521 -1.8092 -0.1363
16847TIP3   OH272031   6.113   5.707  14.807  0.0634  0.1155  0.0152
16847TIP3    H172032   6.110   5.769  14.734 -0.1881  0.8365  0.6267
16847TIP3    H272033   6.203   5.675  14.808 -0.0846 -0.3547 -0.9806
16848TIP3   OH272034   1.984   4.666   1.877 -0.3486 -0.4042 -0.0310
16848TIP3    H172035   1.911   4.715   1.914 -0.6104 -0.8934  0.1068
16848TIP3    H272036   2.062   4.714   1.904 -0.6418  0.4458 -0.6594
16849TIP3   OH272037   3.245   1.536  15.561  0.3601  0.1810 -0.1042
16849TIP3    H172038   3.172   1.483  15.529  1.8109 -1.7955 -0.1882
16849TIP3    H272039   3.261   1.505  15.650 -0.7588  2.6208  1.0154
16850TIP3   OH272040   4.388   0.365   4.514 -0.0035  0.7217 -0.2162
16850TIP3    H172041   4.413   0.457   4.515  2.4647  0.1064  0.8470
16850TIP3    H272042   4.408   0.336   4.425 -2.4671  1.5859 -1.0978
16851TIP3   OH272043   6.017   4.489  16.359  0.6490  0.0064 -0.1359
16851TIP3    H172044   5.949   4.423  16.348  0.0852  0.8605 -1.8650
16851TIP3    H272045   6.073   4.454  16.428 -1.0920 -1.0712  0.7796
16852TIP3   OH272046   4.326   5.056  13.862  0.1355  0.3244 -0.3766
16852TIP3    H172047   4.327   5.017  13.950 -0.6134 -0.4650 -0.7111
16852TIP3    H272048   4.266   5.130  13.869  1.3080  1.2365  0.1779
16853TIP3   OH272049   5.981   3.614   0.281  0.0733  0.3776 -0.1155
16853TIP3    H172050   6.064   3.574   0.254  1.1561  2.2994  0.2046
16853TIP3    H272051   5.996   3.708   0.270 -3.0589  0.6371 -2.7808
16854TIP3   OH272052   4.988   3.758  14.698  0.4959 -0.0912 -0.0960
16854TIP3    H172053   4.998   3.688  14.634  2.1181 -1.0994  1.2342
16854TIP3    H272054   4.985   3.838  14.645 -3.7492 -1.2413 -1.8031
16855TIP3   OH272055   4.355   4.848  13.663 -0.1744 -0.0970  0.2331
16855TIP3    H172056   4.283   4.850  13.726  0.0557 -0.8609  0.5198
16855TIP3    H272057   4.367   4.940  13.638  0.7634  0.4122  2.4743
16856TIP3   OH272058   2.985   0.436   1.807  0.1912  0.1832 -0.1074
16856TIP3    H172059   3.056   0.465   1.749  1.9273 -0.9266  1.3970
16856TIP3    H272060   2.928   0.512   1.815  1.3979  1.2118 -1.0803
16857TIP3   OH272061   3.950   1.242   3.594  0.6838 -0.4467 -0.5865
16857TIP3    H172062   3.889   1.299   3.548  0.7336  0.4182  0.4064
16857TIP3    H272063   3.899   1.164   3.615 -0.5322  0.8145  1.4417
16858TIP3   OH272064   0.216   2.448   2.945 -0.2982 -0.0088  0.1687
16858TIP3    H172065   0.126   2.417   2.937 -0.1445 -0.6220  0.8139
16858TIP3    H272066   0.251   2.444   2.855 -0.8326 -0.0075 -0.0377
16859TIP3   OH272067   4.938   1.386   2.269 -0.5518  0.8414  0.5129
16859TIP3    H172068   4.988   1.309   2.239 -3.2439 -1.0484  0.6993
16859TIP3    H272069   4.906   1.427   2.189 -1.6266  0.0099  0.5064
16860TIP3   OH272070   1.171   0.553  11.729  0.3321  0.4147 -0.1352
16860TIP3    H172071   1.172   0.458  11.721  1.2952  0.3423  0.7682
16860TIP3    H272072   1.153   0.585  11.640  3.1259 -0.5427 -1.1096
16861TIP3   OH272073   0.271   5.777  15.244 -0.2627 -0.2577  0.1473
16861TIP3    H172074   0.253   5.698  15.296  0.3293  0.7687  1.9894
16861TIP3    H272075   0.357   5.806  15.274  0.5208 -0.1444 -2.1190
16862TIP3   OH272076   2.689   0.535   1.742 -0.1989  0.2346 -0.2869
16862TIP3    H172077   2.642   0.452   1.743  2.6549 -1.4163  0.5522
16862TIP3    H272078   2.643   0.589   1.807 -0.5654 -1.5416  0.9582
16863TIP3   OH272079   3.801   2.214   4.295 -0.3740 -0.2773  0.3544
16863TIP3    H172080   3.756   2.135   4.324  0.7829 -1.1930 -0.2979
16863TIP3    H272081   3.880   2.182   4.252 -1.7531  1.0359 -3.3565
16864TIP3   OH272082   5.166   4.125  16.572 -0.2944 -0.1620 -0.6500
16864TIP3    H172083   5.261   4.134  16.571 -0.2878 -0.1453  0.3706
16864TIP3    H272084   5.148   4.059  16.639 -1.0646  0.6100 -0.0872
16865TIP3   OH272085   0.292   1.732   4.476 -0.0085 -0.1659 -0.2514
16865TIP3    H172086   0.295   1.827   4.492 -0.4795 -0.1457 -0.2727
16865TIP3    H272087   0.352   1.695   4.540 -1.0595  0.0056  0.8557
16866TIP3   OH272088   2.000   5.421   2.461 -0.5694 -0.1802 -0.1038
16866TIP3    H172089   2.059   5.493   2.485  0.9901 -0.8070 -1.9325
16866TIP3    H272090   1.926   5.463   2.417  0.4158  0.3303 -1.3080
16867TIP3   OH272091   4.791   0.094  14.625  0.6677  0.4300 -0.2986
16867TIP3    H172092   4.792   0.076  14.719  0.6304 -0.0250 -0.3806
16867TIP3    H272093   4.874   0.057  14.593  1.4360  2.0300 -0.1892
16868TIP3   OH272094   2.319   5.014   1.489  0.3212  0.9578 -0.4422
16868TIP3    H172095   2.288   5.086   1.543  0.3852  0.0344  0.8576
16868TIP3    H272096   2.303   4.936   1.542 -0.2369 -0.0392 -2.0378
16869TIP3   OH272097   3.199   5.561   5.738  0.0374  0.2410  0.1024
16869TIP3    H172098   3.150   5.538   5.659 -0.2554 -0.0030  0.3532
16869TIP3    H272099   3.133   5.595   5.799  0.0906 -0.6019  0.6410
16870TIP3   OH272100   3.163   0.808  16.526  0.6190  0.6827  0.6872
16870TIP3    H172101   3.123   0.795  16.612  0.6736  2.0388  0.9299
16870TIP3    H272102   3.102   0.866  16.480  1.8455  2.0772  0.7549
16871TIP3   OH272103   3.491   1.084   4.003  0.0203 -0.2489 -0.0395
16871TIP3    H172104   3.403   1.097   3.968 -0.3070 -2.2181  0.0034
16871TIP3    H272105   3.538   1.164   3.979 -1.6283  0.6158 -0.4913
16872TIP3   OH272106   3.855   5.627  16.533  0.1998  0.4294 -0.1656
16872TIP3    H172107   3.774   5.676  16.523 -0.5342 -0.4820  1.1998
16872TIP3    H272108   3.883   5.609  16.443 -0.4036  1.8677 -0.6568
16873TIP3   OH272109   1.537   0.259  16.555 -0.2164  0.7991  0.0472
16873TIP3    H172110   1.467   0.256  16.620  0.8536 -1.7389  1.1474
16873TIP3    H272111   1.614   0.287  16.603  0.5429 -0.9142 -0.1235
16874TIP3   OH272112   3.239   0.165  13.455  0.0161  0.4164 -0.8316
16874TIP3    H172113   3.221   0.253  13.489  1.8733  1.5875 -2.7703
16874TIP3    H272114   3.158   0.139  13.411 -0.0298  1.8443 -1.6246
16875TIP3   OH272115   6.615   3.304   5.041 -0.3271  0.0465 -0.7753
16875TIP3    H172116   6.705   3.315   5.009  0.1874  0.5630  0.8015
16875TIP3    H272117   6.590   3.391   5.071 -0.3822 -0.6264  1.2225
16876TIP3   OH272118   0.341   1.080   0.484  0.4343  0.1409  0.0140
16876TIP3    H172119   0.385   1.012   0.534  0.6636 -0.8633 -1.5172
16876TIP3    H272120   0.411   1.122   0.434  0.4702  2.2876  1.8168
16877TIP3   OH272121   3.969   3.729   0.913 -0.3454  0.1223  0.3471
16877TIP3    H172122   3.988   3.642   0.878  3.0763  1.1481 -0.5250
16877TIP3    H272123   3.924   3.774   0.842 -1.5489 -0.7120  0.5704
16878TIP3   OH272124   3.834   1.226  11.288  0.2594 -0.5249  0.1075
16878TIP3    H172125   3.743   1.249  11.308  0.4202  0.8014 -0.6738
16878TIP3    H272126   3.861   1.290  11.222  1.3775 -1.6665 -0.5566
16879TIP3   OH272127   2.388   1.622   4.116  0.1237 -0.1792 -0.0229
16879TIP3    H172128   2.385   1.630   4.021 -0.8686 -0.1001  0.0126
16879TIP3    H272129   2.468   1.573   4.133  0.6782  0.4183 -0.8572
16880TIP3   OH272130   5.755   0.166   3.300  0.3328 -0.6169 -0.0027
16880TIP3    H172131   5.768   0.074   3.279 -0.2051 -0.8044  0.4678
16880TIP3    H272132   5.697   0.165   3.376 -2.1245  0.1350 -1.7765
16881TIP3   OH272133   1.907   0.783  12.921  0.5006  0.2527 -0.3799
16881TIP3    H172134   1.898   0.873  12.954 -2.1870  0.4794 -1.6015
16881TIP3    H272135   1.880   0.789  12.830 -0.0778 -1.8715 -0.3577
16882TIP3   OH272136   3.557   3.555   1.091 -0.1281 -0.1067  0.5947
16882TIP3    H172137   3.634   3.521   1.138  0.0470 -2.4879 -1.3305
16882TIP3    H272138   3.593   3.600   1.015 -0.5770  0.5834  0.7804
16883TIP3   OH272139   6.169   0.854   0.393 -0.1230  0.8615 -0.3779
16883TIP3    H172140   6.226   0.810   0.456 -1.1837  0.3734  0.2476
16883TIP3    H272141   6.226   0.919   0.351  1.0508 -0.0467 -0.2156
16884TIP3   OH272142   3.703   2.226   0.875  0.0924 -0.1052  0.0956
16884TIP3    H172143   3.713   2.150   0.817  1.0746 -1.3374  1.8425
16884TIP3    H272144   3.609   2.228   0.895 -0.0348 -0.5021 -0.4502
16885TIP3   OH272145   1.513   5.611   3.180  0.1356  0.0016 -0.0109
16885TIP3    H172146   1.592   5.662   3.165  0.7723 -1.3636 -1.4070
16885TIP3    H272147   1.442   5.669   3.153  0.8268  0.3094 -1.1861
16886TIP3   OH272148   1.072   1.734   2.397 -0.5989  0.0836  0.2733
16886TIP3    H172149   1.148   1.717   2.453 -0.8933  1.2512  1.0533
16886TIP3    H272150   1.089   1.684   2.317  0.4575 -0.5510  0.8868
16887TIP3   OH272151   4.324   4.435  12.053  0.2595  0.3962  0.2438
16887TIP3    H172152   4.320   4.387  12.136  1.3071  1.3152  0.8471
16887TIP3    H272153   4.389   4.504  12.069 -0.2636  1.1936 -1.0258
16888TIP3   OH272154   4.054   5.556   1.469 -0.0727 -0.1606 -0.3785
16888TIP3    H172155   3.998   5.479   1.457 -0.7930  0.0652  1.4799
16888TIP3    H272156   4.050   5.601   1.384 -1.8222 -0.7257 -0.6158
16889TIP3   OH272157   4.602   5.057   4.738 -0.6006 -0.3431  0.1325
16889TIP3    H172158   4.645   5.041   4.823  1.1653 -0.5354 -0.7685
16889TIP3    H272159   4.565   5.145   4.747  1.4233  0.5310  0.3999
16890TIP3   OH272160   3.820   3.310  14.650  0.0914 -0.2004 -0.0831
16890TIP3    H172161   3.869   3.370  14.593  2.2566 -1.2712  0.6054
16890TIP3    H272162   3.826   3.225  14.607 -2.5029 -0.0766 -0.7634
16891TIP3   OH272163   6.704   5.887  12.734 -0.0678 -0.3529  0.2262
16891TIP3    H172164   6.663   5.816  12.685  0.9550 -0.8458  0.0807
16891TIP3    H272165   6.637   5.914  12.797 -0.8413 -0.7220 -0.4301
16892TIP3   OH272166   0.148   3.532   1.032  0.2451  0.6078  0.4106
16892TIP3    H172167   0.206   3.584   0.977  1.3845 -1.3771 -0.3332
16892TIP3    H272168   0.161   3.442   1.001 -1.4560 -0.1520  1.8376
16893TIP3   OH272169   5.941   1.754  11.749 -0.1238  0.2900  0.3386
16893TIP3    H172170   5.997   1.832  11.746 -0.3459  0.5208  1.8035
16893TIP3    H272171   5.855   1.788  11.772 -0.9486 -0.0374 -2.1518
16894TIP3   OH272172   0.787   1.734   1.870  0.0979  0.1734 -0.0811
16894TIP3    H172173   0.788   1.699   1.959 -2.9941 -1.5304 -0.6292
16894TIP3    H272174   0.766   1.827   1.880 -0.9648 -0.1699  0.9426
16895TIP3   OH272175   6.603   4.057   2.060  0.6700 -0.5214 -0.3617
16895TIP3    H172176   6.656   3.991   2.104 -0.2398 -1.4251 -0.5973
16895TIP3    H272177   6.540   4.006   2.008  0.2687  0.5298 -0.9103
16896TIP3   OH272178   1.344   4.965   6.310 -0.4793  0.1282 -0.4996
16896TIP3    H172179   1.393   5.046   6.324 -0.9741  0.3974 -0.2880
16896TIP3    H272180   1.258   4.994   6.281 -0.6074 -0.3275 -0.5787
16897TIP3   OH272181   0.658   1.474   1.087 -0.4595 -0.0187  0.2095
16897TIP3    H172182   0.631   1.518   1.168 -0.1276 -0.4066  0.5333
16897TIP3    H272183   0.736   1.522   1.058 -0.1056 -0.3744  0.5553
16898TIP3   OH272184   6.810   1.849  16.541 -0.2280 -0.3693  0.3292
16898TIP3    H172185   6.813   1.767  16.589 -0.6409  0.0134  1.0125
16898TIP3    H272186   6.728   1.890  16.568 -0.6376 -0.3151 -0.9726
16899TIP3   OH272187   5.733   5.226  14.819 -0.2309  0.1764 -0.4036
16899TIP3    H172188   5.664   5.160  14.820 -0.3671  0.3338  1.4623
16899TIP3    H272189   5.814   5.175  14.815 -0.2882 -0.1767  2.1642
16900TIP3   OH272190   5.267   6.739  14.771  0.1576 -0.4698  0.5370
16900TIP3    H172191   5.214   6.781  14.839 -0.6053 -0.8775  0.2037
16900TIP3    H272192   5.203   6.691  14.718  0.9516 -1.5190  0.5342
16901TIP3   OH272193   4.611   4.017  15.082  0.0320 -0.3245  0.5523
16901TIP3    H172194   4.646   4.007  14.993 -0.3024  1.2678  0.2197
16901TIP3    H272195   4.521   4.046  15.069  0.0833  0.2351  1.4212
16902TIP3   OH272196   1.364   1.679  11.860 -0.3043  0.0202  0.2807
16902TIP3    H172197   1.442   1.697  11.913 -1.0963  3.7853  0.3459
16902TIP3    H272198   1.291   1.687  11.922 -1.0142  1.1299 -0.6792
16903TIP3   OH272199   5.997   2.978   2.531  0.7140 -0.0200 -0.1840
16903TIP3    H172200   6.069   2.914   2.539  0.6821  0.0065  0.3931
16903TIP3    H272201   6.007   3.014   2.443 -1.6100 -3.6188 -2.0473
16904TIP3   OH272202   4.968   4.130  12.898 -0.5467 -0.0855 -0.8261
16904TIP3    H172203   5.006   4.208  12.858  1.2710  0.5384  1.9864
16904TIP3    H272204   5.020   4.058  12.864  0.4092  0.3516 -0.3153
16905TIP3   OH272205   6.337   0.956  11.859 -0.4829  0.3245  0.1829
16905TIP3    H172206   6.354   1.050  11.871  2.5939 -0.2728  0.8624
16905TIP3    H272207   6.419   0.921  11.823 -1.3246 -2.2496  0.6829
16906TIP3   OH272208   2.865   2.174   6.621 -0.6201  0.9275  0.2536
16906TIP3    H172209   2.906   2.255   6.591 -0.7676  1.4111  1.3307
16906TIP3    H272210   2.789   2.163   6.564  0.1095  0.8762 -0.7127
16907TIP3   OH272211   5.103   6.086  13.262 -0.2082 -0.3271 -0.6301
16907TIP3    H172212   5.022   6.036  13.268 -1.3421  1.4333 -0.7386
16907TIP3    H272213   5.139   6.084  13.350 -0.2396 -1.3305 -0.6384
16908TIP3   OH272214   2.712   2.227  14.201  0.6210 -0.5459 -0.1594
16908TIP3    H172215   2.696   2.161  14.268  0.9408 -1.0822 -0.6127
16908TIP3    H272216   2.760   2.296  14.247 -0.1707 -0.3802  0.4395
16909TIP3   OH272217   5.056   1.852  12.042 -0.5966 -0.0083  0.0512
16909TIP3    H172218   4.987   1.800  12.083  0.4953 -1.5230  0.0169
16909TIP3    H272219   5.138   1.818  12.078  0.2913 -0.1544 -1.9944
16910TIP3   OH272220   4.924   0.593   4.993  0.0043 -0.0224  0.4369
16910TIP3    H172221   4.867   0.670   4.988 -0.0555 -0.0115  1.1913
16910TIP3    H272222   4.864   0.519   4.989  0.0393 -0.0286 -0.0154
16911TIP3   OH272223   0.400   0.576  15.629 -0.0663  0.3743 -0.0477
16911TIP3    H172224   0.445   0.515  15.570  0.6202  1.0443 -0.2218
16911TIP3    H272225   0.447   0.659  15.618 -0.1704  0.5988  1.1703
16912TIP3   OH272226   0.121   2.269   4.690  0.1087  0.1730  0.0077
16912TIP3    H172227   0.096   2.240   4.778 -0.4929 -1.1987 -0.6003
16912TIP3    H272228   0.213   2.243   4.681  0.2037  0.4190  0.2739
16913TIP3   OH272229   3.909   0.948  11.224  0.2751  0.6673  0.0516
16913TIP3    H172230   3.905   1.042  11.243  0.4650  0.6306  0.2662
16913TIP3    H272231   3.889   0.906  11.308 -1.1948  0.5260 -0.3402
16914TIP3   OH272232   1.543   6.447  12.072 -0.4174  0.1072 -0.7931
16914TIP3    H172233   1.506   6.522  12.026 -0.2737  0.7628  0.1414
16914TIP3    H272234   1.614   6.484  12.125 -0.5700 -0.6315 -0.0559
16915TIP3   OH272235   3.624   6.777   3.161  0.0559 -0.0859 -0.2551
16915TIP3    H172236   3.629   6.870   3.139  2.6571 -0.0525  0.2842
16915TIP3    H272237   3.638   6.775   3.256 -0.6531 -0.9693 -0.1720
16916TIP3   OH272238   1.917   4.570   0.798  0.1017  0.2309 -0.4414
16916TIP3    H172239   1.991   4.510   0.784  0.8886  0.9627  0.4769
16916TIP3    H272240   1.839   4.515   0.790  0.7826 -0.7538 -0.4260
16917TIP3   OH272241   4.816   3.551  11.263 -0.3229 -0.3802  0.4669
16917TIP3    H172242   4.839   3.614  11.194 -1.7898  1.4050  1.5686
16917TIP3    H272243   4.773   3.479  11.217  0.2196  0.0051 -0.6583
16918TIP3   OH272244   5.488   3.683  11.287  0.3693  0.2530 -0.0979
16918TIP3    H172245   5.456   3.741  11.356  0.8854  1.1507 -0.6016
16918TIP3    H272246   5.506   3.741  11.213 -0.5941 -0.7584 -1.1456
16919TIP3   OH272247   2.315   0.557   2.616 -0.2124  0.0974 -0.1764
16919TIP3    H172248   2.253   0.538   2.545 -3.6664 -0.2616  2.7643
16919TIP3    H272249   2.333   0.472   2.654 -0.7308  0.5858  1.1820
16920TIP3   OH272250   2.136   4.834   1.284 -0.1832 -0.4569 -0.7529
16920TIP3    H172251   2.136   4.827   1.380  2.1711 -1.7249 -0.8079
16920TIP3    H272252   2.092   4.755   1.254 -1.6840  0.3400 -0.7518
16921TIP3   OH272253   2.705   2.942   5.930 -0.3065 -0.0426 -0.1108
16921TIP3    H172254   2.738   3.023   5.967 -0.8188  0.5079 -0.8444
16921TIP3    H272255   2.638   2.913   5.991 -0.2762  0.2030  0.0383
16922TIP3   OH272256   1.757   5.931   5.023  0.1092  0.1770  0.2519
16922TIP3    H172257   1.839   5.929   5.074  0.5325 -1.2049 -0.4652
16922TIP3    H272258   1.743   5.840   4.997 -0.7659  0.6846 -1.0698
16923TIP3   OH272259   3.596   3.044   5.152  0.0278 -0.6679 -0.0052
16923TIP3    H172260   3.561   2.965   5.195 -0.9597 -0.6377 -0.7224
16923TIP3    H272261   3.651   3.010   5.082 -2.4509 -0.7792 -1.9756
16924TIP3   OH272262   5.627   4.490  16.846 -0.4047  0.4915 -0.2117
16924TIP3    H172263   5.631   4.437  16.925 -0.2605  0.1687 -0.4337
16924TIP3    H272264   5.699   4.552  16.855 -1.0144  1.1243  0.3832
16925TIP3   OH272265   1.060   1.938   4.620  0.0313 -0.6373  0.1628
16925TIP3    H172266   1.028   2.027   4.635  0.9650 -0.2914  0.1384
16925TIP3    H272267   1.021   1.886   4.691 -0.8498 -0.2991 -0.0671
16926TIP3   OH272268   4.297   4.376  15.201  0.6431 -0.1484 -0.8371
16926TIP3    H172269   4.300   4.450  15.261 -1.3993 -0.6180 -0.1271
16926TIP3    H272270   4.351   4.309  15.242  1.3712  0.4508 -0.8094
16927TIP3   OH272271   2.360   3.974   3.208  0.0419 -0.1920 -0.8376
16927TIP3    H172272   2.407   3.980   3.124  0.7496  0.1986 -0.4212
16927TIP3    H272273   2.430   3.963   3.273 -0.4632  0.1556 -0.2350
16928TIP3   OH272274   2.979   4.220   2.497  0.0943  0.2225 -0.6596
16928TIP3    H172275   3.067   4.224   2.458  0.4399  2.3501  0.2727
16928TIP3    H272276   2.995   4.194   2.588 -0.4495 -1.5361 -1.0442
16929TIP3   OH272277   0.761   0.975  13.237 -0.9146  0.4424 -0.0739
16929TIP3    H172278   0.853   0.952  13.243 -0.4691  2.1593 -0.1327
16929TIP3    H272279   0.716   0.905  13.285  0.5643  0.5123  1.4830
16930TIP3   OH272280   1.084   5.504   0.998  0.0848 -0.2296 -0.5387
16930TIP3    H172281   1.075   5.534   1.088  1.7848 -0.0813 -0.4069
16930TIP3    H272282   1.172   5.532   0.972  0.0089 -1.2116 -1.8823
16931TIP3   OH272283   4.630   2.977   1.615  0.6737 -0.8021  0.2293
16931TIP3    H172284   4.537   2.994   1.629  0.7382  0.6194 -0.9396
16931TIP3    H272285   4.670   2.992   1.701 -0.1745 -1.4460  0.7432
16932TIP3   OH272286   4.717   1.404   2.122  0.0098 -0.5027 -0.7766
16932TIP3    H172287   4.660   1.371   2.192 -1.3711  0.1385 -1.5853
16932TIP3    H272288   4.746   1.490   2.153  0.8603 -0.9863 -0.1996
16933TIP3   OH272289   6.663   2.909  16.189 -0.5153 -0.7443 -0.3715
16933TIP3    H172290   6.601   2.917  16.262 -1.7131 -1.3969 -1.2928
16933TIP3    H272291   6.720   2.985  16.197 -1.8734  0.2398  0.0948
16934TIP3   OH272292   4.301   5.174  16.448  0.2674  0.2257 -0.5707
16934TIP3    H172293   4.259   5.191  16.363  0.5966 -3.1182 -1.4958
16934TIP3    H272294   4.238   5.207  16.512 -1.2137  0.4112 -2.0684
16935TIP3   OH272295   2.497   1.898  14.571 -0.0283 -0.1261  0.5668
16935TIP3    H172296   2.551   1.950  14.513 -0.3169  1.0114  1.2976
16935TIP3    H272297   2.468   1.959  14.639 -0.8028 -1.1098  1.1497
16936TIP3   OH272298   1.777   1.665  15.749  0.0965  0.0865 -0.3351
16936TIP3    H172299   1.849   1.711  15.705  1.5619 -2.0418 -0.2501
16936TIP3    H272300   1.769   1.709  15.834  0.3092  1.2852 -0.9320
16937TIP3   OH272301   5.066   3.597  17.015  0.7118 -0.5009 -0.0571
16937TIP3    H172302   5.000   3.664  17.030  0.9446 -0.4184  0.6253
16937TIP3    H272303   5.044   3.560  16.930 -0.4785 -0.7793  0.3616
16938TIP3   OH272304   1.462   3.222  14.653  0.3497  0.8594 -0.4418
16938TIP3    H172305   1.523   3.152  14.628  0.0026 -0.1180  1.3482
16938TIP3    H272306   1.384   3.205  14.601  0.3824  0.0929 -0.2561
16939TIP3   OH272307   1.414   5.542   6.501 -0.3212  0.0013 -0.2945
16939TIP3    H172308   1.407   5.541   6.596 -2.8277  1.3901 -0.4210
16939TIP3    H272309   1.455   5.458   6.478 -1.3015 -1.0830  1.8739
16940TIP3   OH272310   3.490   6.623  11.514 -0.3334 -0.1391 -0.1492
16940TIP3    H172311   3.538   6.676  11.451 -0.2038 -0.6902 -0.5216
16940TIP3    H272312   3.406   6.669  11.525  0.0331  0.4882  0.0348
16941TIP3   OH272313   6.615   2.531   6.470  1.0279  0.2554 -0.0306
16941TIP3    H172314   6.535   2.577   6.492  0.4386 -0.4616 -0.6467
16941TIP3    H272315   6.616   2.454   6.526 -0.2147 -1.2935 -2.1020
16942TIP3   OH272316   6.708   1.013  15.135  0.3649  0.0353 -0.6012
16942TIP3    H172317   6.799   1.009  15.105  0.7407  0.7494  0.4033
16942TIP3    H272318   6.713   0.996  15.229 -0.5734 -0.1649 -0.5839
16943TIP3   OH272319   0.638   4.421  17.105  0.0258 -0.6522 -0.1077
16943TIP3    H172320   0.659   4.350  17.165  0.5140 -0.3720  0.0616
16943TIP3    H272321   0.568   4.387  17.050 -1.1106 -0.5712  1.2626
16944TIP3   OH272322   0.579   4.790   6.346 -0.0857 -0.6938  0.0501
16944TIP3    H172323   0.619   4.794   6.432 -1.9834 -3.1497  1.0829
16944TIP3    H272324   0.560   4.698   6.332 -0.6604 -0.2181 -2.6209
16945TIP3   OH272325   3.729   3.719  11.464 -0.5103  0.2651  0.2638
16945TIP3    H172326   3.641   3.707  11.428 -0.3451  0.1373 -0.0989
16945TIP3    H272327   3.772   3.778  11.403  0.8511 -2.4972 -1.5481
16946TIP3   OH272328   4.540   5.185  14.909 -0.3926 -0.3813  0.6291
16946TIP3    H172329   4.454   5.141  14.909 -0.0403 -1.1418 -1.4574
16946TIP3    H272330   4.521   5.275  14.935 -1.9312 -0.3907 -0.3756
16947TIP3   OH272331   5.174   3.783   3.403 -0.2006 -0.0107 -0.4325
16947TIP3    H172332   5.173   3.876   3.426  0.3933  0.5528 -2.5678
16947TIP3    H272333   5.096   3.747   3.446  0.5933  1.0395  2.0117
16948TIP3   OH272334   6.053   3.241  14.700 -0.2150  0.3210 -0.7970
16948TIP3    H172335   6.073   3.177  14.769 -2.2122 -0.0810 -0.5632
16948TIP3    H272336   6.098   3.207  14.623 -0.3922 -0.8119 -0.4184
16949TIP3   OH272337   4.994   3.914  14.036  0.7409  0.0217 -0.2184
16949TIP3    H172338   4.900   3.908  14.052  0.7782 -2.5828 -0.7385
16949TIP3    H272339   5.032   3.926  14.123 -0.0912  1.8510 -0.0794
16950TIP3   OH272340   0.549   3.900  13.831  0.3420 -0.2022 -0.1759
16950TIP3    H172341   0.555   3.941  13.917  2.3010 -0.2692 -0.2703
16950TIP3    H272342   0.455   3.890  13.816 -0.0041 -0.5934  2.1390
16951TIP3   OH272343   0.804   1.779   3.536  0.0135 -0.8151 -0.2423
16951TIP3    H172344   0.839   1.817   3.617  1.0068 -0.1740 -0.9602
16951TIP3    H272345   0.737   1.841   3.508 -0.0604 -0.8409 -0.1250
16952TIP3   OH272346   5.664   1.468   2.222 -0.0149 -0.3264  0.0895
16952TIP3    H172347   5.627   1.445   2.137  0.6842 -0.5003 -0.1649
16952TIP3    H272348   5.726   1.398   2.241  1.0100  0.5587  0.0049
16953TIP3   OH272349   6.222   5.729   3.996 -0.0045 -0.3330 -0.2717
16953TIP3    H172350   6.172   5.807   3.970  1.3609  0.9582  0.8652
16953TIP3    H272351   6.158   5.672   4.038 -0.6404  1.0998  0.7522
16954TIP3   OH272352   3.896   4.222  13.149  0.1881  0.1822 -0.3988
16954TIP3    H172353   3.896   4.185  13.061  0.0946 -0.0069 -0.3200
16954TIP3    H272354   3.913   4.315  13.136 -2.1674  0.5959 -0.8178
16955TIP3   OH272355   1.560   5.850   4.809  0.1874  0.3786  0.6578
16955TIP3    H172356   1.631   5.838   4.746  0.0063  1.2623  0.2673
16955TIP3    H272357   1.586   5.798   4.885  0.9794  0.2471  0.3058
16956TIP3   OH272358   1.074   2.446   2.723  0.1360  0.4463  0.2733
16956TIP3    H172359   1.071   2.354   2.748 -2.1452  0.1752 -0.8616
16956TIP3    H272360   1.056   2.494   2.804 -0.1333 -0.1666  0.5811
16957TIP3   OH272361   3.838   4.797  14.253 -0.2828 -0.6967  0.0862
16957TIP3    H172362   3.911   4.754  14.297  0.2365  1.2922  1.2031
16957TIP3    H272363   3.864   4.889  14.246 -1.3751 -0.5201 -2.2613
16958TIP3   OH272364   4.409   2.208  11.664  0.6326 -0.5521  0.5787
16958TIP3    H172365   4.438   2.152  11.592 -0.0951 -0.9559  0.5983
16958TIP3    H272366   4.426   2.297  11.634 -0.4377 -0.6854 -0.4380
16959TIP3   OH272367   0.385   2.027   4.985  0.0775  0.0047 -0.4239
16959TIP3    H172368   0.307   2.008   4.933  0.4742 -0.7604 -0.7383
16959TIP3    H272369   0.379   1.968   5.061  0.7437 -0.6014 -0.8408
16960TIP3   OH272370   2.772   0.165  12.760  0.2119 -0.0245 -0.8284
16960TIP3    H172371   2.815   0.243  12.795  0.6887 -0.5025 -0.3235
16960TIP3    H272372   2.832   0.132  12.694 -0.0074  0.0553 -1.0694
16961TIP3   OH272373   3.415   3.924  12.159 -0.3593 -0.0974  0.2164
16961TIP3    H172374   3.398   4.019  12.158  0.0113 -0.0365 -0.4487
16961TIP3    H272375   3.442   3.906  12.249 -1.4150  0.2490  0.6116
16962TIP3   OH272376   6.509   5.218   2.773 -0.0516  0.0336  0.6558
16962TIP3    H172377   6.605   5.217   2.772 -0.0542 -0.0369  0.1767
16962TIP3    H272378   6.485   5.130   2.801  0.0238 -0.2333 -0.0854
16963TIP3   OH272379   1.520   5.436  11.360  0.1131  0.5594 -0.1546
16963TIP3    H172380   1.438   5.473  11.395  0.3981  0.7287  0.3337
16963TIP3    H272381   1.575   5.512  11.342 -1.2211  0.7306 -4.0761
16964TIP3   OH272382   1.759   5.071  11.691  0.3232  0.1951  0.3606
16964TIP3    H172383   1.818   5.066  11.767  0.2556  1.1319  0.4829
16964TIP3    H272384   1.675   5.098  11.728 -0.8273 -3.3004  0.4972
16965TIP3   OH272385   6.637   2.141   5.975 -0.0269 -0.4934  0.2250
16965TIP3    H172386   6.664   2.176   6.060  0.6983 -0.3691 -0.0607
16965TIP3    H272387   6.697   2.180   5.912 -0.4159 -0.7720 -0.3208
16966TIP3   OH272388   3.923   4.681   4.339 -0.4096 -0.5222  0.5255
16966TIP3    H172389   3.966   4.604   4.374  1.1745 -0.0681 -0.3659
16966TIP3    H272390   3.974   4.704   4.261 -0.6142  1.6267  0.9808
16967TIP3   OH272391   3.375   3.941   0.156  0.6416 -0.5457  0.0212
16967TIP3    H172392   3.327   3.859   0.168  0.0239 -0.0067  1.2874
16967TIP3    H272393   3.366   3.960   0.063  1.5424 -2.3707 -0.4627
16968TIP3   OH272394   4.595   4.860  15.324 -0.4536  0.3108 -0.2000
16968TIP3    H172395   4.553   4.937  15.361 -1.1010  0.2317 -0.7565
16968TIP3    H272396   4.628   4.889  15.239 -0.0789  0.1628 -0.1053
16969TIP3   OH272397   5.853   0.232  16.518  0.3620  0.6045 -0.5670
16969TIP3    H172398   5.937   0.195  16.547 -0.3382 -0.1312  0.5708
16969TIP3    H272399   5.813   0.266  16.598 -0.9851 -0.2008 -0.8780
16970TIP3   OH272400   3.642   6.245   1.795 -0.3525  0.0380  0.2270
16970TIP3    H172401   3.551   6.256   1.822 -1.1324  0.1348 -2.3187
16970TIP3    H272402   3.690   6.312   1.843 -1.8382  0.8295  0.6334
16971TIP3   OH272403   5.162   3.308  11.888 -0.1777  0.7656 -0.3742
16971TIP3    H172404   5.125   3.323  11.801  0.2314 -0.4564 -0.7701
16971TIP3    H272405   5.087   3.296  11.945 -0.4567 -2.0238 -1.2277
16972TIP3   OH272406   5.615   2.172   1.918 -0.0924 -0.1911 -0.0359
16972TIP3    H172407   5.710   2.161   1.924 -0.1935 -0.3544  1.4480
16972TIP3    H272408   5.584   2.091   1.878  0.6085  0.8323 -2.7506
16973TIP3   OH272409   2.205   6.556  12.184 -0.2654 -0.1358 -0.5436
16973TIP3    H172410   2.284   6.517  12.147  0.4185  0.5007  0.2248
16973TIP3    H272411   2.161   6.596  12.109 -0.5398 -1.6278 -1.1955
16974TIP3   OH272412   1.595   2.829  15.720  0.3408  0.1829 -0.3454
16974TIP3    H172413   1.588   2.925  15.717 -0.2023  0.1158 -1.5296
16974TIP3    H272414   1.656   2.808  15.649 -1.1740 -0.4884 -1.4714
16975TIP3   OH272415   3.567   3.841  13.736 -0.2587  0.1034 -0.1629
16975TIP3    H172416   3.625   3.885  13.799 -1.1148 -0.6353  1.1495
16975TIP3    H272417   3.600   3.752  13.731 -0.8344 -0.1175  0.0190
16976TIP3   OH272418   4.704   3.788  15.681 -0.0100  0.4356 -0.1756
16976TIP3    H172419   4.631   3.850  15.673 -0.4460 -0.1526 -0.7842
16976TIP3    H272420   4.777   3.830  15.635 -1.0111 -0.6042 -2.7777
16977TIP3   OH272421   3.178   6.522   4.437 -0.4380 -0.3826 -0.5744
16977TIP3    H172422   3.177   6.601   4.490  0.5847 -1.3947  0.9896
16977TIP3    H272423   3.255   6.531   4.381 -0.4831 -0.1605 -0.6015
16978TIP3   OH272424   1.206   2.016   5.448  0.3752  0.1841  0.2853
16978TIP3    H172425   1.157   2.049   5.373  0.1281  0.1697  0.4398
16978TIP3    H272426   1.298   2.037   5.428  0.2241  0.9578  0.3806
16979TIP3   OH272427   5.457   2.346  16.019 -0.2457  0.5432 -0.6341
16979TIP3    H172428   5.506   2.282  16.071 -0.4269  0.1119 -0.9888
16979TIP3    H272429   5.367   2.314  16.019 -0.8791  2.2219  1.4135
16980TIP3   OH272430   2.093   2.973   4.158  0.1981  0.2100 -0.0266
16980TIP3    H172431   2.152   2.908   4.119  0.9159  1.0858 -0.4088
16980TIP3    H272432   2.134   2.995   4.242  0.6225  1.1080 -0.4670
16981TIP3   OH272433   3.684   2.924   4.855  0.3817 -0.2002  0.8873
16981TIP3    H172434   3.676   2.830   4.837  0.6190 -0.2544  1.0691
16981TIP3    H272435   3.599   2.960   4.828  0.9552 -0.1843 -0.9300
16982TIP3   OH272436   1.316   1.716   1.638  0.0008  0.0350  0.2026
16982TIP3    H172437   1.334   1.805   1.607  0.0335 -0.2494 -0.6121
16982TIP3    H272438   1.288   1.668   1.559 -1.8087 -0.2121  0.9727
16983TIP3   OH272439   6.158   6.419  14.054 -0.0156 -0.3397  0.1844
16983TIP3    H172440   6.149   6.365  13.976  0.8341 -0.7039  0.3327
16983TIP3    H272441   6.071   6.454  14.069 -0.1200 -0.0048 -1.1209
16984TIP3   OH272442   1.606   1.731  12.031  0.2690 -0.2052 -0.3806
16984TIP3    H172443   1.664   1.710  11.958  0.5271  0.1167 -0.2704
16984TIP3    H272444   1.611   1.827  12.038 -3.4878  0.3025 -3.0508
16985TIP3   OH272445   0.222   0.896  17.007 -0.0198  0.5025 -0.6504
16985TIP3    H172446   0.131   0.917  16.985 -0.1023  0.8978  0.0601
16985TIP3    H272447   0.217   0.812  17.053  0.0196  0.3416 -0.9336
16986TIP3   OH272448   5.619   2.445  14.378 -0.0893 -0.1478  0.1612
16986TIP3    H172449   5.666   2.392  14.313  1.8769 -0.4844  1.7915
16986TIP3    H272450   5.541   2.476  14.332  1.4632 -0.0135 -2.5092
16987TIP3   OH272451   3.334   0.214   1.215  0.3087  0.0414  0.1042
16987TIP3    H172452   3.357   0.292   1.265 -0.6678  0.4961 -0.1291
16987TIP3    H272453   3.282   0.247   1.142  2.3361 -0.5442 -1.6332
16988TIP3   OH272454   6.138   1.472   0.171  0.0688  0.1943  0.7825
16988TIP3    H172455   6.133   1.527   0.249  0.2963  0.2713  0.7461
16988TIP3    H272456   6.090   1.393   0.193  2.5185 -1.0011  2.0307
16989TIP3   OH272457   1.973   6.568  14.125 -0.1621  0.1270 -0.3921
16989TIP3    H172458   1.940   6.630  14.191  2.6965 -0.7201  1.9324
16989TIP3    H272459   2.029   6.621  14.068  1.2122 -0.0178  0.7934
16990TIP3   OH272460   1.831   0.157   1.688 -0.1122 -0.2687  0.0958
16990TIP3    H172461   1.837   0.146   1.782  0.1918 -0.7355  0.0240
16990TIP3    H272462   1.830   0.252   1.675  0.9787 -0.1913  0.5030
16991TIP3   OH272463   1.046   3.541  10.903  0.3243  0.4366  0.1597
16991TIP3    H172464   0.965   3.490  10.908 -1.0448  2.4296 -1.2314
16991TIP3    H272465   1.031   3.603  10.832  3.0768  0.8461 -0.1094
16992TIP3   OH272466   1.649   0.985  11.687 -0.0809 -0.9528 -0.3466
16992TIP3    H172467   1.724   0.935  11.721  0.4381 -0.7462 -1.1632
16992TIP3    H272468   1.593   0.920  11.645  0.3436 -0.9289 -0.9635
16993TIP3   OH272469   2.330   6.275   1.649  0.6788  0.0765  0.4686
16993TIP3    H172470   2.252   6.284   1.703 -1.2552 -1.3480 -1.9814
16993TIP3    H272471   2.346   6.362   1.613 -0.2012  0.2212  0.4315
16994TIP3   OH272472   4.978   0.278  13.498  0.2146 -0.0759 -0.6497
16994TIP3    H172473   5.052   0.270  13.438  1.4873 -0.4674  0.9091
16994TIP3    H272474   4.972   0.372  13.516 -1.6428  0.3113 -3.1405
16995TIP3   OH272475   1.642   2.353  16.684 -0.4152  0.3073 -0.3928
16995TIP3    H172476   1.618   2.441  16.714 -3.4169 -0.9829  1.1622
16995TIP3    H272477   1.577   2.332  16.617 -0.4830 -1.2230  0.1463
16996TIP3   OH272478   5.128   2.390   5.485 -0.5787  0.1396  0.0742
16996TIP3    H172479   5.037   2.402   5.513 -0.8149  3.4401 -1.9114
16996TIP3    H272480   5.122   2.358   5.395  0.2571 -1.7970  0.6738
16997TIP3   OH272481   1.811   0.132  14.638 -0.2687  0.2055  0.8541
16997TIP3    H172482   1.859   0.189  14.578 -0.3534 -1.0488 -0.4366
16997TIP3    H272483   1.856   0.048  14.632 -0.8365 -0.1712  1.8697
16998TIP3   OH272484   1.268   5.242  16.878 -0.3598  0.2046 -0.6551
16998TIP3    H172485   1.230   5.318  16.921 -1.3188 -0.9064  0.5206
16998TIP3    H272486   1.341   5.216  16.935 -2.4098 -2.0266  1.0781
16999TIP3   OH272487   3.998   2.527  12.705 -0.6919 -0.2913  0.2913
16999TIP3    H172488   4.075   2.482  12.671 -1.8535 -1.5454 -0.7666
16999TIP3    H272489   4.027   2.616  12.723  0.8650 -0.6121 -0.5999
17000TIP3   OH272490   6.531   1.026  11.061 -0.3354 -0.0174 -0.1736
17000TIP3    H172491   6.535   1.093  10.993 -2.7016 -0.4629 -0.8131
17000TIP3    H272492   6.585   0.954  11.028  2.6050  1.7152  0.7306
17001TIP3   OH272493   3.919   6.590  11.979  0.9092 -0.5229 -0.4035
17001TIP3    H172494   3.840   6.617  12.025  1.4808  1.2098 -0.3751
17001TIP3    H272495   3.887   6.545  11.901 -0.0658 -1.9656  0.8086
17002TIP3   OH272496   1.788   2.702  15.523 -0.0826  0.2400  0.2534
17002TIP3    H172497   1.709   2.648  15.514 -0.4242  0.6096  1.0359
17002TIP3    H272498   1.845   2.672  15.452 -0.9150 -0.0432 -0.3089
17003TIP3   OH272499   0.909   5.874  10.685 -0.2424 -0.0199  0.2632
17003TIP3    H172500   0.817   5.848  10.676  0.1602 -0.6178 -2.5190
17003TIP3    H272501   0.958   5.793  10.669  0.8188  0.7992 -0.6688
17004TIP3   OH272502   6.157   6.628  15.646  0.1326  0.2028  0.1785
17004TIP3    H172503   6.250   6.639  15.629  0.3021 -0.3437  0.7467
17004TIP3    H272504   6.150   6.628  15.741 -0.2315 -1.5277  0.1686
17005TIP3   OH272505   0.979   5.211  16.527  0.3529  0.3799 -0.1813
17005TIP3    H172506   1.074   5.224  16.527  0.2279  1.3424 -0.1557
17005TIP3    H272507   0.957   5.201  16.620  0.5262 -0.6366 -0.2421
17006TIP3   OH272508   2.891   4.457  12.873  0.0402  0.4433 -0.1816
17006TIP3    H172509   2.937   4.461  12.957 -2.5599  0.8054  1.3020
17006TIP3    H272510   2.894   4.364  12.848  2.0546  0.5620 -0.4330
17007TIP3   OH272511   2.390   3.907  11.933  0.1640 -0.1548 -0.7973
17007TIP3    H172512   2.443   3.969  11.883 -1.4096  2.4665  0.6469
17007TIP3    H272513   2.429   3.907  12.020 -0.3046 -0.6377 -0.5861
17008TIP3   OH272514   4.690   4.809   2.020  0.4798  0.0651  0.0822
17008TIP3    H172515   4.680   4.903   2.001  1.3779 -0.2972 -2.4009
17008TIP3    H272516   4.639   4.766   1.952  0.7963 -1.2791  0.6857
17009TIP3   OH272517   3.606   4.831   4.832 -0.4090 -0.2797 -0.4414
17009TIP3    H172518   3.701   4.816   4.838 -0.3070 -0.4308 -2.1521
17009TIP3    H272519   3.570   4.788   4.910  0.8428 -0.9620 -0.2248
17010TIP3   OH272520   5.708   1.622  13.394 -0.4969 -0.0546 -0.0024
17010TIP3    H172521   5.757   1.703  13.409  0.9525 -0.8432 -0.3309
17010TIP3    H272522   5.619   1.650  13.376  0.5357  1.6340 -2.6739
17011TIP3   OH272523   3.052   0.986  13.159  0.2275 -0.3108 -0.3775
17011TIP3    H172524   3.089   0.983  13.248 -0.0197 -0.4014 -0.2787
17011TIP3    H272525   3.022   0.897  13.142 -1.4986  0.1501  0.2031
17012TIP3   OH272526   6.772   4.231   1.610  0.0638 -0.4424 -0.2700
17012TIP3    H172527   6.784   4.145   1.649 -0.4444 -0.6180 -0.4966
17012TIP3    H272528   6.679   4.235   1.587 -0.7773  1.6141  3.1666
17013TIP3   OH272529   3.784   3.412  15.326  0.1595 -0.5238  0.0658
17013TIP3    H172530   3.815   3.341  15.383  1.0578 -0.8163 -0.7674
17013TIP3    H272531   3.837   3.488  15.351 -0.7055 -0.1742  0.8609
17014TIP3   OH272532   0.316   5.852  17.101 -0.2210 -0.0983  0.3532
17014TIP3    H172533   0.311   5.811  17.014 -1.0353 -1.0411  0.8379
17014TIP3    H272534   0.343   5.781  17.159  0.8522  0.6605  0.7933
17015TIP3   OH272535   6.800   4.230  11.910 -0.0863  0.3820 -0.6170
17015TIP3    H172536   6.706   4.211  11.903 -0.0249 -0.0569 -0.2723
17015TIP3    H272537   6.806   4.295  11.979 -0.0218 -0.5034  0.2186
17016TIP3   OH272538   1.578   4.912  15.764  0.4887 -0.1646 -0.0540
17016TIP3    H172539   1.645   4.856  15.804 -1.9278 -0.8668  3.2627
17016TIP3    H272540   1.572   4.988  15.822 -1.1465  0.1765 -0.6445
17017TIP3   OH272541   5.927   6.667  12.760  0.3909 -0.1629 -0.4949
17017TIP3    H172542   5.842   6.710  12.771  0.7651  0.2240  0.9916
17017TIP3    H272543   5.980   6.700  12.833  2.2943  0.7316 -2.2478
17018TIP3   OH272544   4.733   2.694   3.441  0.6642  0.0472  0.1303
17018TIP3    H172545   4.698   2.614   3.480  0.0681  0.5722  0.7010
17018TIP3    H272546   4.656   2.738   3.403  0.9357  0.4878  0.0838
17019TIP3   OH272547   0.240   0.392  15.235  0.1938 -0.2269  0.2708
17019TIP3    H172548   0.176   0.340  15.283 -1.3453 -0.7290 -2.2863
17019TIP3    H272549   0.307   0.330  15.209  0.6873 -0.0730  1.1393
17020TIP3   OH272550   4.102   5.052  12.365 -0.6975  0.4019  0.3119
17020TIP3    H172551   4.017   5.076  12.328 -1.1607 -0.7091  0.6283
17020TIP3    H272552   4.098   4.957  12.374 -0.7674  0.6732  3.6057
17021TIP3   OH272553   2.216   4.252  15.436 -0.2034  0.3444  0.2025
17021TIP3    H172554   2.212   4.214  15.348  1.6282 -0.8611  0.5946
17021TIP3    H272555   2.126   4.278  15.456 -0.4226  1.8672 -2.5442
17022TIP3   OH272556   6.748   6.273  17.203  0.0151  0.0056  0.2430
17022TIP3    H172557   6.694   6.205  17.242 -0.7487  0.5975  0.2146
17022TIP3    H272558   6.834   6.232  17.192 -0.0136 -0.4664  1.6715
17023TIP3   OH272559   1.012   2.499   1.002  0.1907 -0.2906 -0.1586
17023TIP3    H172560   0.991   2.408   0.983 -0.3357  0.0675 -1.3340
17023TIP3    H272561   0.998   2.545   0.920  1.4303  0.6963  0.1620
17024TIP3   OH272562   0.999   2.291  13.960  0.0308  0.2836 -0.1341
17024TIP3    H172563   0.924   2.245  13.999  0.4357 -1.0473 -0.9286
17024TIP3    H272564   1.000   2.376  14.005 -1.5021  0.0301  0.4156
17025TIP3   OH272565   4.704   2.298   4.991 -0.8629  0.0438 -0.5766
17025TIP3    H172566   4.732   2.271   4.904  2.3344  0.4119  0.2876
17025TIP3    H272567   4.778   2.278   5.048 -2.0872  1.7331  1.7132
17026TIP3   OH272568   4.334   0.365   0.131  0.6017 -0.5960 -0.3627
17026TIP3    H172569   4.303   0.454   0.148  2.8842  0.1623  0.0843
17026TIP3    H272570   4.425   0.376   0.102  0.6130 -2.7234 -1.2561
17027TIP3   OH272571   2.060   6.353  14.610  0.4879 -0.6922  0.0951
17027TIP3    H172572   2.140   6.362  14.559  0.0776 -0.9656 -0.5976
17027TIP3    H272573   1.991   6.343  14.545 -0.4649  2.1919  0.6172
17028TIP3   OH272574   4.395   4.856   4.770  0.8515 -0.4783  0.2714
17028TIP3    H172575   4.460   4.913   4.727  0.8818 -1.1369 -0.5873
17028TIP3    H272576   4.377   4.788   4.704 -0.2472 -0.6476  0.7468
17029TIP3   OH272577   1.604   6.448  17.245 -0.2720  0.6253  0.0218
17029TIP3    H172578   1.644   6.483  17.165 -2.2438  0.7852 -0.9260
17029TIP3    H272579   1.597   6.524  17.304  0.0505  0.7685 -0.1251
17030TIP3   OH272580   1.502   4.118  14.569  0.4088 -0.1799  0.6801
17030TIP3    H172581   1.575   4.105  14.508  0.6661 -0.0589  0.9643
17030TIP3    H272582   1.484   4.212  14.565 -1.1852 -0.5253 -1.0633
17031TIP3   OH272583   6.146   6.108   2.349  0.4360 -0.0483 -0.8986
17031TIP3    H172584   6.077   6.052   2.385  0.6139  0.2101 -0.1406
17031TIP3    H272585   6.187   6.055   2.281  0.7985 -0.9532  0.0143
17032TIP3   OH272586   1.644   0.535  13.325 -0.0632  0.0824 -0.5638
17032TIP3    H172587   1.704   0.560  13.396  0.1876  0.6672 -0.9806
17032TIP3    H272588   1.593   0.614  13.308 -0.6753 -0.2942 -0.4923
17033TIP3   OH272589   1.631   1.680  10.776  0.2287  0.2081  0.0590
17033TIP3    H172590   1.655   1.670  10.868 -0.0628  1.2830  0.2563
17033TIP3    H272591   1.715   1.680  10.730  0.3380 -1.1616  0.2321
17034TIP3   OH272592   1.875   6.776  15.408 -0.3256  0.2169 -0.1188
17034TIP3    H172593   1.815   6.810  15.475 -0.7207 -0.8043  0.0472
17034TIP3    H272594   1.827   6.786  15.326 -1.0996 -1.4550  0.1204
17035TIP3   OH272595   5.750   5.633   4.231 -0.3219  0.1970 -0.4009
17035TIP3    H172596   5.709   5.547   4.216  0.8159 -0.5025  0.4111
17035TIP3    H272597   5.703   5.692   4.173 -1.3836 -0.9104 -0.6927
17036TIP3   OH272598   1.818   0.565   3.840 -0.2355 -0.0115 -0.6649
17036TIP3    H172599   1.877   0.490   3.836 -1.0622 -0.7114  0.2157
17036TIP3    H272600   1.869   0.638   3.805  0.5863 -0.9736 -1.4735
17037TIP3   OH272601   3.855   0.945   2.854  0.2415 -0.1539 -0.0249
17037TIP3    H172602   3.792   1.009   2.887  0.5708 -0.1929  0.6839
17037TIP3    H272603   3.809   0.861   2.860  0.9144 -0.4000  1.9991
17038TIP3   OH272604   1.659   1.068  15.051  0.0576 -0.1958  0.6610
17038TIP3    H172605   1.623   0.984  15.079  1.1747 -0.8970  0.0732
17038TIP3    H272606   1.657   1.123  15.130 -0.0464 -0.9996  1.2274
17039TIP3   OH272607   4.563   3.808  12.564  0.3264  0.6992 -0.5669
17039TIP3    H172608   4.561   3.842  12.475 -1.4366 -0.6815 -1.0778
17039TIP3    H272609   4.559   3.886  12.620 -2.4526  1.4265 -1.7221
17040TIP3   OH272610   2.762   0.242   1.898  0.1395  0.1086 -0.4554
17040TIP3    H172611   2.765   0.162   1.950  0.5728 -0.8408 -1.9026
17040TIP3    H272612   2.838   0.292   1.927  0.4097 -0.4365 -0.2050
17041TIP3   OH272613   4.230   3.396  12.116  0.1165 -0.1702 -0.2916
17041TIP3    H172614   4.240   3.432  12.204  1.4227  0.0707 -0.5294
17041TIP3    H272615   4.147   3.433  12.084 -0.0720  0.1971  0.6102
17042TIP3   OH272616   5.148   0.855  15.967 -0.2593  0.2769  0.1904
17042TIP3    H172617   5.219   0.791  15.977 -0.3075  0.3999  1.3835
17042TIP3    H272618   5.077   0.821  16.021 -1.0293  0.3055 -0.7728
17043TIP3   OH272619   5.522   6.247  15.731  0.0938 -0.2056  0.2557
17043TIP3    H172620   5.563   6.326  15.695  0.2261  0.1259  1.1188
17043TIP3    H272621   5.590   6.206  15.784  0.3431 -1.4557 -1.0094
17044TIP3   OH272622   3.646   2.712  15.386  0.3880  0.3965  0.0060
17044TIP3    H172623   3.565   2.661  15.383  1.6904 -1.7828  1.0151
17044TIP3    H272624   3.704   2.663  15.444  2.3007  2.1474 -0.3469
17045TIP3   OH272625   2.422   1.367   6.455  0.2646  0.1881 -0.2326
17045TIP3    H172626   2.437   1.444   6.400 -1.3346  1.2676  0.8217
17045TIP3    H272627   2.486   1.303   6.423  0.2042  1.2111 -2.5081
17046TIP3   OH272628   2.794   4.958   3.395 -0.0082  0.1419  0.4741
17046TIP3    H172629   2.885   4.974   3.371 -0.5226  1.0943 -0.8702
17046TIP3    H272630   2.798   4.934   3.488  1.5212  1.0211  0.6576
17047TIP3   OH272631   2.004   2.343  15.317  0.6489  0.0079  0.4963
17047TIP3    H172632   1.986   2.372  15.406  0.0374  0.3850  0.2493
17047TIP3    H272633   2.056   2.263  15.328  3.3180  1.7568  1.1999
17048TIP3   OH272634   2.470   5.987  14.351 -0.4167 -0.1152 -0.3104
17048TIP3    H172635   2.449   5.920  14.416 -1.9438 -0.0076 -0.6700
17048TIP3    H272636   2.439   5.950  14.268 -1.9730  1.3125 -0.4029
17049TIP3   OH272637   0.266   3.316  16.526 -0.7236  0.5704  0.0071
17049TIP3    H172638   0.190   3.265  16.496  1.0069 -2.1848  0.0755
17049TIP3    H272639   0.306   3.261  16.593  1.3319  1.9707 -0.0462
17050TIP3   OH272640   5.608   2.175  11.554  0.9493 -0.1629  0.4275
17050TIP3    H172641   5.562   2.092  11.559  1.7384 -0.5584  1.4312
17050TIP3    H272642   5.691   2.155  11.511  0.5962  0.3546 -0.5000
17051TIP3   OH272643   3.028   2.759  16.133  0.0475 -0.0787 -0.0010
17051TIP3    H172644   3.033   2.666  16.155 -1.8850  0.0343  1.0048
17051TIP3    H272645   3.039   2.804  16.217  1.6895  0.6307 -0.5826
17052TIP3   OH272646   1.870   0.232   4.589  0.2916 -0.2522 -0.3445
17052TIP3    H172647   1.845   0.265   4.502  0.0907 -0.6977 -0.4555
17052TIP3    H272648   1.802   0.265   4.647 -0.1983 -0.9163 -0.5415
17053TIP3   OH272649   4.775   1.669   1.761  0.0313  0.3318  0.7418
17053TIP3    H172650   4.822   1.686   1.843  0.0337 -0.6807  0.9664
17053TIP3    H272651   4.785   1.749   1.710 -0.2965  1.1234  1.8900
17054TIP3   OH272652   6.022   6.567  17.261  0.6498 -0.5371 -0.0381
17054TIP3    H172653   6.052   6.657  17.254 -2.1517  0.4494 -0.2344
17054TIP3    H272654   6.043   6.528  17.176  0.8966  0.2621 -0.3452
17055TIP3   OH272655   5.765   2.366   5.008 -0.1150  0.2600 -0.0392
17055TIP3    H172656   5.734   2.276   4.997 -0.3703  0.3260  0.1599
17055TIP3    H272657   5.827   2.378   4.935 -0.0628 -0.0819 -0.0542
17056TIP3   OH272658   2.943   5.029   0.444 -0.6020  0.4503 -0.3018
17056TIP3    H172659   2.911   5.033   0.353 -0.8848 -1.7005 -0.3204
17056TIP3    H272660   2.936   4.936   0.468 -1.7632  1.1744  2.3699
17057TIP3   OH272661   6.295   5.361  13.669 -0.0708  0.6189 -0.0549
17057TIP3    H172662   6.338   5.407  13.741  1.5509  1.4877 -1.5391
17057TIP3    H272663   6.309   5.418  13.593  0.8624 -1.7236 -1.6732
17058TIP3   OH272664   4.498   3.791   4.892  0.3450 -0.3818  0.0464
17058TIP3    H172665   4.531   3.871   4.932  1.2620 -1.0745  0.6720
17058TIP3    H272666   4.424   3.821   4.838  1.2641  1.0222 -0.4841
17059TIP3   OH272667   5.589   2.872  16.374 -0.1319  0.3600 -0.6887
17059TIP3    H172668   5.678   2.877  16.340 -0.2361  2.8267 -0.6842
17059TIP3    H272669   5.538   2.931  16.318 -2.4414 -3.2169 -2.5953
17060TIP3   OH272670   6.296   0.359  11.097 -0.7075 -0.1968 -0.2520
17060TIP3    H172671   6.299   0.307  11.177 -0.7323  0.7614  0.3862
17060TIP3    H272672   6.300   0.295  11.026  1.7943 -0.9350  0.5086
17061TIP3   OH272673   1.976   0.594  13.554  1.2807  0.4698  0.6473
17061TIP3    H172674   1.963   0.686  13.529 -0.3741 -0.1228 -0.7483
17061TIP3    H272675   2.036   0.559  13.488 -0.7710 -0.3217 -0.8448
17062TIP3   OH272676   0.437   5.495  15.010  0.7176  0.2280  0.1759
17062TIP3    H172677   0.440   5.565  14.944  0.2472  0.5887  0.5375
17062TIP3    H272678   0.407   5.418  14.961 -2.1423  1.0849  0.4550
17063TIP3   OH272679   0.483   4.302   3.398 -0.0021  0.1250 -0.3450
17063TIP3    H172680   0.571   4.277   3.427 -1.5387 -0.3950  4.3819
17063TIP3    H272681   0.428   4.229   3.425 -2.3533  1.9384 -0.0843
17064TIP3   OH272682   0.792   6.332  14.501 -0.3354  0.4027 -0.3884
17064TIP3    H172683   0.773   6.365  14.412  0.0026 -2.0556 -1.4095
17064TIP3    H272684   0.819   6.241  14.487  1.8840  0.6464  2.0583
17065TIP3   OH272685   6.472   1.672   5.633 -0.2072 -0.3713 -0.0836
17065TIP3    H172686   6.474   1.654   5.539  1.2662 -0.4559 -0.0478
17065TIP3    H272687   6.454   1.587   5.673 -0.6874 -0.3620 -0.2720
17066TIP3   OH272688   5.904   5.391   5.222 -0.1273 -0.3015  0.2064
17066TIP3    H172689   5.853   5.340   5.160  0.9009  0.7225 -1.5158
17066TIP3    H272690   5.863   5.477   5.222  1.7136  0.6088 -1.3938
17067TIP3   OH272691   1.500   5.847  14.034  0.1953  0.8104 -0.0189
17067TIP3    H172692   1.483   5.941  14.037  0.4338  0.8587 -0.1483
17067TIP3    H272693   1.561   5.836  13.961  0.8392  0.6663  0.5361
17068TIP3   OH272694   2.970   0.228  11.314 -0.3883  0.3064 -0.7931
17068TIP3    H172695   2.975   0.323  11.320  2.2530  0.1722 -0.3046
17068TIP3    H272696   3.037   0.203  11.250  1.0531 -1.3850  1.2791
17069TIP3   OH272697   2.909   1.771  12.127 -0.7451  0.2164 -0.1896
17069TIP3    H172698   2.940   1.785  12.217  0.9731 -0.8730 -0.5838
17069TIP3    H272699   2.915   1.857  12.085 -1.0092  0.6070  0.5607
17070TIP3   OH272700   2.688   3.986   0.170 -0.2726 -0.2454  0.0461
17070TIP3    H172701   2.627   3.920   0.205 -2.4582  0.5620 -2.0630
17070TIP3    H272702   2.653   4.069   0.202  0.6080  0.1287  0.0328
17071TIP3   OH272703   5.667   5.190   0.798 -0.4054  0.3816 -0.1439
17071TIP3    H172704   5.687   5.174   0.706  3.0482 -2.4288  0.9628
17071TIP3    H272705   5.595   5.130   0.818 -0.3687  0.1359 -0.7472
17072TIP3   OH272706   0.073   4.112  14.871  0.2248 -0.1090 -0.3371
17072TIP3    H172707   0.025   4.184  14.829  1.4676  0.6516 -0.4689
17072TIP3    H272708   0.023   4.094  14.951 -0.1959  0.7746 -0.3941
17073TIP3   OH272709   6.786   0.830  14.210  0.0166 -0.4349  0.6646
17073TIP3    H172710   6.816   0.743  14.184 -2.2818 -0.2688 -2.8652
17073TIP3    H272711   6.700   0.816  14.248 -0.8050  0.3662 -0.8504
17074TIP3   OH272712   2.994   3.899   6.454  0.2690 -0.3875 -0.1802
17074TIP3    H172713   2.956   3.900   6.366  2.0193 -1.8001 -0.9754
17074TIP3    H272714   3.053   3.824   6.454  0.9417  0.1153  1.9287
17075TIP3   OH272715   2.512   2.588  15.018  0.3068  0.1172 -0.0975
17075TIP3    H172716   2.421   2.599  15.044 -0.2478 -0.8812 -1.6051
17075TIP3    H272717   2.521   2.641  14.939  0.2553 -2.0825 -1.6165
17076TIP3   OH272718   3.892   1.845  15.798  0.2530  0.1874  0.6596
17076TIP3    H172719   3.841   1.835  15.878  0.6359  1.2862  1.0537
17076TIP3    H272720   3.953   1.772  15.799 -0.7881 -0.7028  0.5715
17077TIP3   OH272721   6.812   4.078  16.712 -0.3910  0.3904 -0.7233
17077TIP3    H172722   6.870   4.006  16.741 -1.3335  0.2281  0.8475
17077TIP3    H272723   6.862   4.157  16.730 -0.8852  0.2828  1.2938
17078TIP3   OH272724   1.803   5.997  16.102  0.1683 -0.4322  0.3621
17078TIP3    H172725   1.877   6.027  16.049  1.2124 -0.8364  1.5724
17078TIP3    H272726   1.733   5.984  16.038  1.0302  0.2803 -0.7615
17079TIP3   OH272727   2.125   3.710   0.579  0.3384 -0.1275 -0.0617
17079TIP3    H172728   2.032   3.735   0.584 -0.2644 -2.3083  0.2533
17079TIP3    H272729   2.148   3.722   0.487 -0.8696 -1.5801 -0.5754
17080TIP3   OH272730   1.786   4.579  13.929 -0.2409 -0.5127  0.3453
17080TIP3    H172731   1.780   4.668  13.895 -0.1914  0.0376  1.7451
17080TIP3    H272732   1.715   4.572  13.992  0.9758 -0.7977  1.7196
17081TIP3   OH272733   4.816   4.091   0.779 -0.4820 -0.0546 -0.1612
17081TIP3    H172734   4.892   4.144   0.755 -0.8756  0.0823 -1.1317
17081TIP3    H272735   4.801   4.035   0.703  0.1129 -1.7720  0.9660
17082TIP3   OH272736   2.681   4.617  12.749  0.5588  0.2847 -0.0813
17082TIP3    H172737   2.757   4.572  12.786  0.6832  0.8669  0.3725
17082TIP3    H272738   2.607   4.560  12.772  0.8111 -0.0797 -0.1729
17083TIP3   OH272739   2.407   0.877  14.316  0.0316  0.0158 -0.0624
17083TIP3    H172740   2.442   0.966  14.316 -0.3617  0.1727 -0.2262
17083TIP3    H272741   2.324   0.883  14.364 -0.8200  0.0779 -1.5068
17084TIP3   OH272742   3.620   1.854   2.233  0.3439  0.4449 -0.6747
17084TIP3    H172743   3.534   1.884   2.262  0.9072  0.7214  0.7340
17084TIP3    H272744   3.604   1.769   2.194 -0.3576 -0.2126  1.0088
17085TIP3   OH272745   6.755   2.157   5.715  0.1086  0.0858  0.1045
17085TIP3    H172746   6.823   2.204   5.666  0.4410  0.9218  1.3483
17085TIP3    H272747   6.746   2.074   5.669 -0.4794  1.3373 -2.1419
17086TIP3   OH272748   0.050   3.181  14.480 -0.3304 -0.1119  0.0162
17086TIP3    H172749   0.001   3.255  14.514 -0.6148 -0.1586 -0.2930
17086TIP3    H272750   0.097   3.216  14.403  2.1713  0.6059  1.7860
17087TIP3   OH272751   1.093   6.654  14.240 -0.3740 -0.1535  1.2213
17087TIP3    H172752   1.074   6.610  14.323 -1.1847  0.9243  1.6167
17087TIP3    H272753   1.174   6.703  14.257 -1.3376  1.2596  1.8517
17088TIP3   OH272754   6.227   3.116   3.673 -0.3823  0.1953 -0.0075
17088TIP3    H172755   6.150   3.090   3.723  0.4841  2.5123  2.7107
17088TIP3    H272756   6.301   3.082   3.723  0.4760  1.3529 -0.4566
17089TIP3   OH272757   1.765   3.970   3.574 -0.3247  0.1979  0.1326
17089TIP3    H172758   1.742   4.062   3.588 -0.5493  0.5558 -2.3054
17089TIP3    H272759   1.767   3.960   3.479  1.4620 -1.8846  0.3357
17090TIP3   OH272760   2.225   2.121   2.667 -0.1703  0.2745  0.0062
17090TIP3    H172761   2.174   2.180   2.611 -0.8140  2.1196  2.4235
17090TIP3    H272762   2.304   2.171   2.689  0.8595 -1.0646 -0.5430
17091TIP3   OH272763   3.518   5.469   1.553 -0.3317 -0.0039 -0.7966
17091TIP3    H172764   3.556   5.553   1.578 -0.0828 -0.1133 -0.8054
17091TIP3    H272765   3.425   5.486   1.545 -0.7798 -0.5586  2.7602
17092TIP3   OH272766   3.598   4.712  14.398 -0.0145  0.4182  0.6534
17092TIP3    H172767   3.647   4.634  14.425  0.8723  0.5872 -0.3905
17092TIP3    H272768   3.663   4.764  14.350 -1.1537  0.7955 -0.4874
17093TIP3   OH272769   0.038   0.091   3.859 -0.3193  0.2592  0.7206
17093TIP3    H172770   0.089   0.051   3.930  0.0914  0.5024  0.5606
17093TIP3    H272771   0.062   0.040   3.782  0.8450  1.3396  0.3507
17094TIP3   OH272772   3.140   6.012  16.590  0.8263  0.5396 -0.2019
17094TIP3    H172773   3.218   5.956  16.584  1.8281  2.1069 -2.4484
17094TIP3    H272774   3.114   6.026  16.499 -3.6024 -1.9285  0.5334
17095TIP3   OH272775   5.465   5.241   0.281  0.4530  0.4628  0.1591
17095TIP3    H172776   5.473   5.283   0.195 -2.3996  0.3105 -0.2396
17095TIP3    H272777   5.375   5.262   0.308 -0.2044 -3.3122  1.0565
17096TIP3   OH272778   5.733   3.566   4.298 -0.0599 -0.3258  0.5509
17096TIP3    H172779   5.735   3.662   4.291  1.4297 -0.3248  0.8025
17096TIP3    H272780   5.664   3.548   4.361 -0.2585  0.6022  0.6069
17097TIP3   OH272781   6.041   0.854   0.136  0.3502 -0.2342  0.0749
17097TIP3    H172782   6.088   0.856   0.219 -0.7996 -1.6477  0.7746
17097TIP3    H272783   5.950   0.870   0.159  0.4064  2.1932 -1.2418
17098TIP3   OH272784   5.522   2.824  16.064 -0.0786  0.1135  0.0036
17098TIP3    H172785   5.555   2.748  16.111  1.6038  1.0445  0.3838
17098TIP3    H272786   5.450   2.857  16.118 -0.5326 -0.9498  0.0531
17099TIP3   OH272787   5.970   3.792  11.089  0.8825  0.0719 -0.0737
17099TIP3    H172788   6.008   3.707  11.067  1.4022  0.1121  0.6626
17099TIP3    H272789   6.006   3.813  11.175 -1.1060 -0.0644  0.8113
17100TIP3   OH272790   6.538   1.744  11.520  0.2618  0.4510  0.4183
17100TIP3    H172791   6.510   1.780  11.436 -2.1987 -0.4041  0.8240
17100TIP3    H272792   6.470   1.772  11.582  0.9503 -0.6617  1.7012
17101TIP3   OH272793   6.770   3.178  15.656  0.6418  0.7224 -0.1741
17101TIP3    H172794   6.844   3.222  15.614  0.3150  1.1962 -0.2717
17101TIP3    H272795   6.769   3.214  15.745  1.4173 -0.3816  0.2914
17102TIP3   OH272796   5.400   1.967   6.604  0.0183  0.1264  0.0658
17102TIP3    H172797   5.327   1.922   6.562  0.2847  0.2060 -0.4830
17102TIP3    H272798   5.405   2.051   6.559  1.4407 -0.4949 -0.9423
17103TIP3   OH272799   4.868   6.166   4.290  0.0380  0.3535  0.2980
17103TIP3    H172800   4.911   6.149   4.373 -1.1593  1.1403  1.1017
17103TIP3    H272801   4.898   6.096   4.232  0.6409 -0.3783  1.4748
17104TIP3   OH272802   3.779   5.867  13.039 -0.2266  0.0102 -0.1741
17104TIP3    H172803   3.737   5.804  12.981  1.5280 -2.2009  0.8266
17104TIP3    H272804   3.727   5.864  13.119  0.6167 -1.2405  0.3540
17105TIP3   OH272805   5.407   3.914   1.567  0.2776 -0.7153 -0.0727
17105TIP3    H172806   5.480   3.971   1.595  0.1264 -0.5599  0.0045
17105TIP3    H272807   5.449   3.829   1.549  0.2367 -1.1275  1.6652
17106TIP3   OH272808   3.637   0.619   3.816  0.1989  0.1579 -0.1083
17106TIP3    H172809   3.613   0.588   3.903 -0.1202  0.2350 -0.1715
17106TIP3    H272810   3.670   0.540   3.772 -0.8692 -0.1492 -0.3599
17107TIP3   OH272811   0.842   2.909  13.913 -0.3375 -0.2332 -0.2454
17107TIP3    H172812   0.912   2.858  13.871 -0.5809 -0.3793 -0.4704
17107TIP3    H272813   0.888   2.961  13.980 -0.1095 -0.8896  0.1177
17108TIP3   OH272814   1.005   4.048   5.068 -0.0191 -0.3006 -0.1996
17108TIP3    H172815   1.015   4.112   5.139 -0.8044  0.1522 -0.4953
17108TIP3    H272816   1.063   4.080   4.999 -1.5680  0.9612 -0.9502
17109TIP3   OH272817   5.580   1.174   3.511 -0.3738 -0.0253  0.2748
17109TIP3    H172818   5.499   1.175   3.562 -2.2172 -2.3321 -2.4570
17109TIP3    H272819   5.588   1.263   3.477 -1.0023  0.5739  1.6591
17110TIP3   OH272820   3.780   0.572   4.606 -0.2429 -0.5119  0.0272
17110TIP3    H172821   3.713   0.584   4.673  1.1513 -1.0388  1.5629
17110TIP3    H272822   3.805   0.660   4.580  0.0745 -0.2875  1.0949
17111TIP3   OH272823   4.357   2.521  16.432  0.0253  0.9238 -0.3031
17111TIP3    H172824   4.336   2.614  16.421 -0.2161  0.9698  0.5311
17111TIP3    H272825   4.371   2.489  16.343 -0.5913  1.5963 -0.6471
17112TIP3   OH272826   2.048   3.192   5.153  0.2726  0.2957 -0.2068
17112TIP3    H172827   2.104   3.115   5.142 -0.5199 -0.2718 -0.3808
17112TIP3    H272828   2.061   3.243   5.074  3.3101  2.0201  1.3538
17113TIP3   OH272829   5.505   3.795   0.770  0.1672 -0.1875 -0.7788
17113TIP3    H172830   5.469   3.722   0.721  1.6426 -0.4091 -1.5609
17113TIP3    H272831   5.580   3.824   0.719  0.8705  0.5112  0.6068
17114TIP3   OH272832   1.476   0.349   5.671  0.7274 -0.5697 -0.0999
17114TIP3    H172833   1.524   0.354   5.753  0.8746 -1.8958 -0.0954
17114TIP3    H272834   1.446   0.258   5.666 -0.3093 -0.1932 -0.9298
17115TIP3   OH272835   4.811   0.066   5.779  0.3862 -0.0282  0.3320
17115TIP3    H172836   4.852   0.040   5.697  0.2478 -0.5604  0.4282
17115TIP3    H272837   4.718   0.048   5.766  0.1576  1.3889  0.0311
17116TIP3   OH272838   2.065   1.912   5.163  0.1683 -0.0489  0.0419
17116TIP3    H172839   2.125   1.838   5.157 -0.7620 -0.9031  0.9703
17116TIP3    H272840   1.978   1.872   5.160 -0.3384  1.0191  0.3659
17117TIP3   OH272841   5.504   2.577  15.172  0.1284  0.0452  0.3212
17117TIP3    H172842   5.598   2.590  15.167  0.3678 -1.0479  1.6488
17117TIP3    H272843   5.493   2.482  15.178 -0.9130  0.2613  2.3694
17118TIP3   OH272844   5.755   1.456  12.238  0.8519  0.2183 -0.6968
17118TIP3    H172845   5.683   1.401  12.270  1.9573 -1.4822 -1.0188
17118TIP3    H272846   5.802   1.483  12.317  0.5712  0.3298 -0.5652
17119TIP3   OH272847   2.207   2.089  12.614  0.4229 -0.4614  0.5096
17119TIP3    H172848   2.251   2.169  12.584  1.2845 -1.3188 -0.5964
17119TIP3    H272849   2.130   2.082  12.557 -0.5855  0.4706  1.7338
17120TIP3   OH272850   3.646   1.563  15.069 -0.0992 -0.0113 -0.1714
17120TIP3    H172851   3.634   1.481  15.021  0.4086  0.2272 -0.7177
17120TIP3    H272852   3.657   1.536  15.160 -0.7892 -0.4900 -0.2288
17121TIP3   OH272853   2.852   2.756  12.666  0.2897  1.0791  0.0436
17121TIP3    H172854   2.846   2.734  12.572  1.6392 -2.4416  0.7054
17121TIP3    H272855   2.945   2.775  12.680  0.2713  0.5530  0.8798
17122TIP3   OH272856   5.971   3.747  17.230 -0.1212  0.0415  0.5683
17122TIP3    H172857   5.903   3.684  17.254  0.3518 -0.1037  1.5313
17122TIP3    H272858   6.053   3.704  17.252  0.2589  0.5144  0.0981
17123TIP3   OH272859   1.682   6.118  11.304  0.4298 -0.7018 -0.3581
17123TIP3    H172860   1.703   6.066  11.382 -0.3061  0.3693  0.5695
17123TIP3    H272861   1.746   6.090  11.238  2.0018 -0.5613  1.0798
17124TIP3   OH272862   2.087   2.000   3.291 -0.3407  0.3551 -0.0654
17124TIP3    H172863   2.034   1.961   3.362  0.9506  0.7076  1.1076
17124TIP3    H272864   2.081   1.937   3.220 -0.4600 -0.7207  0.8764
17125TIP3   OH272865   1.367   1.637  15.009 -0.7076  0.2318  0.2616
17125TIP3    H172866   1.372   1.629  14.914  1.9421  1.4953  0.2697
17125TIP3    H272867   1.401   1.554  15.042  0.5686  0.6864  0.1126
17126TIP3   OH272868   3.825   0.272   4.137 -0.2212  0.3620 -0.1332
17126TIP3    H172869   3.878   0.234   4.068 -1.4982 -1.3750 -0.1804
17126TIP3    H272870   3.887   0.287   4.209  0.4378 -1.1609 -0.3652
17127TIP3   OH272871   2.799   1.606   5.748 -0.1005  0.0792  0.4290
17127TIP3    H172872   2.819   1.646   5.833 -0.5193  2.5341 -0.5628
17127TIP3    H272873   2.710   1.572   5.758  0.1967 -0.4597  1.2562
17128TIP3   OH272874   3.996   2.763  13.480 -0.3823 -0.8587  0.5402
17128TIP3    H172875   3.910   2.803  13.469  0.0314 -0.2056 -0.2914
17128TIP3    H272876   4.057   2.836  13.483  0.1692 -1.3282  0.9750
17129TIP3   OH272877   0.450   4.543  16.354 -0.1326 -0.0132  0.8565
17129TIP3    H172878   0.495   4.604  16.295 -1.2143 -0.3287 -0.3116
17129TIP3    H272879   0.437   4.464  16.302 -0.0440 -0.7236  1.9019
17130TIP3   OH272880   0.487   1.135   4.546 -0.0314  0.4238  0.0649
17130TIP3    H172881   0.442   1.217   4.565  0.0109  0.4311  0.1349
17130TIP3    H272882   0.436   1.095   4.476 -0.3025  0.3002  0.3340
17131TIP3   OH272883   1.223   3.712   1.218  0.6244 -0.3809  0.1219
17131TIP3    H172884   1.133   3.680   1.223 -0.9601  3.9242  0.9281
17131TIP3    H272885   1.250   3.694   1.128 -2.4786  1.8366 -1.3165
17132TIP3   OH272886   4.873   2.583   4.864  0.3168 -0.6220 -0.0220
17132TIP3    H172887   4.885   2.509   4.924  1.4179 -0.0925  0.4223
17132TIP3    H272888   4.926   2.654   4.901  0.0626  0.0904 -0.9758
17133TIP3   OH272889   1.088   3.305   4.980  0.0253  0.3365  0.0532
17133TIP3    H172890   1.035   3.384   4.969 -0.5674  0.2088  1.8630
17133TIP3    H272891   1.150   3.328   5.050  0.3872 -0.5327  0.0247
17134TIP3   OH272892   4.239   3.218   0.459 -0.0234  0.2741  0.0868
17134TIP3    H172893   4.193   3.258   0.533  0.3446  0.0875  0.4194
17134TIP3    H272894   4.284   3.291   0.415  0.3777  0.2787  0.4987
17135TIP3   OH272895   6.341   4.022  10.454 -0.0326  0.1453 -0.4156
17135TIP3    H172896   6.292   4.091  10.410 -0.0860 -0.0794 -0.7134
17135TIP3    H272897   6.427   4.023  10.412 -0.0546 -0.0103 -0.4636
17136TIP3   OH272898   4.049   5.965  13.467  0.1565  1.3382  0.0197
17136TIP3    H172899   4.034   5.948  13.560  0.9288  2.3726  0.3384
17136TIP3    H272900   4.140   5.994  13.462 -0.1547  2.1752 -0.9370
17137TIP3   OH272901   1.831   0.291   5.662 -1.0935  0.7290 -0.0785
17137TIP3    H172902   1.773   0.221   5.692 -0.3480  0.8066  1.6457
17137TIP3    H272903   1.899   0.295   5.729 -0.5620  2.4147 -0.6948
17138TIP3   OH272904   4.127   0.838   0.838  0.1055 -0.2328 -0.2636
17138TIP3    H172905   4.191   0.771   0.863 -0.9621 -0.8324  0.9349
17138TIP3    H272906   4.134   0.844   0.743  0.3613 -1.8977 -0.3576
17139TIP3   OH272907   1.485   2.143   4.689  0.5002  0.1030 -0.2044
17139TIP3    H172908   1.420   2.078   4.663  1.1883 -0.4911 -0.4284
17139TIP3    H272909   1.489   2.203   4.614  0.2285  0.1303 -0.1988
17140TIP3   OH272910   5.616   1.970   0.563 -0.1166 -0.5415 -0.2213
17140TIP3    H172911   5.573   2.048   0.529  1.5662  0.0771 -0.9425
17140TIP3    H272912   5.662   1.933   0.488 -1.0833 -2.3655  0.0573
17141TIP3   OH272913   4.279   6.152   3.540  0.6309  0.7573 -0.0425
17141TIP3    H172914   4.218   6.194   3.480  2.7285  0.8974 -2.1690
17141TIP3    H272915   4.239   6.067   3.559  0.3040  0.3469 -2.3538
17142TIP3   OH272916   5.875   0.277   0.086 -0.0256 -0.2190  0.6867
17142TIP3    H172917   5.839   0.258   0.173  0.8489  0.1646  1.1384
17142TIP3    H272918   5.959   0.319   0.104 -0.4204  1.0417 -0.3282
17143TIP3   OH272919   3.280   4.622  14.498 -0.2164 -0.5152 -0.0360
17143TIP3    H172920   3.230   4.608  14.418  0.7393  1.6595 -1.0446
17143TIP3    H272921   3.221   4.593  14.568 -0.9858 -2.6093 -1.5050
17144TIP3   OH272922   0.593   5.362  12.248  0.0418 -0.5212 -0.1024
17144TIP3    H172923   0.644   5.436  12.279 -2.1350  1.0764 -0.2604
17144TIP3    H272924   0.600   5.365  12.153 -1.2963  0.4327 -0.1896
17145TIP3   OH272925   0.088   2.404  15.146  0.0638  0.1374  0.0491
17145TIP3    H172926   0.044   2.329  15.107  0.3476  0.3107 -0.6111
17145TIP3    H272927   0.041   2.420  15.228  0.1213 -0.8730  0.2822
17146TIP3   OH272928   4.779   5.366  12.953 -0.8518  0.0889 -0.0695
17146TIP3    H172929   4.753   5.459  12.952 -1.1096  0.0103 -1.6738
17146TIP3    H272930   4.869   5.367  12.984  0.3524  1.2280 -3.3543
17147TIP3   OH272931   0.295   3.093  11.813  0.1610 -0.2253 -0.1889
17147TIP3    H172932   0.306   3.042  11.733  0.6878 -1.0892  0.4173
17147TIP3    H272933   0.262   3.030  11.877  2.4670 -0.2596  1.0515
17148TIP3   OH272934   3.055   1.497  15.160 -0.1969 -0.1728 -0.1794
17148TIP3    H172935   3.035   1.480  15.252 -0.5954 -1.9726 -0.5814
17148TIP3    H272936   3.143   1.534  15.161 -0.9513  1.6322  1.0748
17149TIP3   OH272937   5.281   3.882   3.896  0.5498 -0.5729 -0.3833
17149TIP3    H172938   5.271   3.811   3.959  0.7367 -1.7932 -1.7132
17149TIP3    H272939   5.370   3.914   3.910  0.6297 -0.9138 -0.1019
17150TIP3   OH272940   3.858   3.100   0.695 -0.4547  0.6228  0.1175
17150TIP3    H172941   3.784   3.053   0.733  1.4112 -0.0265  3.1733
17150TIP3    H272942   3.907   3.033   0.648 -0.5182  0.5366  0.1737
17151TIP3   OH272943   4.639   0.907  13.634  0.6994 -0.0250  0.2910
17151TIP3    H172944   4.583   0.857  13.693  0.0967  1.0277  0.6123
17151TIP3    H272945   4.646   0.852  13.556 -2.2271  0.6032 -0.4740
17152TIP3   OH272946   6.475   0.020  16.413  0.0734 -0.6489  0.2533
17152TIP3    H172947   6.509   0.061  16.493  1.8737  1.0888 -1.3247
17152TIP3    H272948   6.551  -0.025  16.375 -0.6220 -1.0185 -0.7307
17153TIP3   OH272949   3.626   1.609  11.544 -0.3723 -0.4460 -0.3241
17153TIP3    H172950   3.542   1.648  11.519 -0.7330 -1.6054 -0.9703
17153TIP3    H272951   3.682   1.684  11.564 -1.7117  0.3214  0.6468
17154TIP3   OH272952   1.103   4.452  15.429 -0.7913  0.2501 -0.1236
17154TIP3    H172953   1.063   4.387  15.371  0.9338 -0.7023 -0.2771
17154TIP3    H272954   1.173   4.491  15.376 -0.6328  0.9360  0.5795
17155TIP3   OH272955   6.569   3.916   6.068  0.0164 -0.4347 -0.6702
17155TIP3    H172956   6.551   3.963   6.149 -0.2204  0.4479 -1.2220
17155TIP3    H272957   6.661   3.934   6.049 -0.2119  0.2687 -1.1606
17156TIP3   OH272958   1.887   0.206  12.782  0.0791  0.0696  0.3822
17156TIP3    H172959   1.965   0.170  12.825 -0.5610  2.5031  3.7492
17156TIP3    H272960   1.900   0.301  12.785 -2.6293  0.4719  0.1839
17157TIP3   OH272961   0.830   2.373   3.795  0.5964 -0.1591 -0.3891
17157TIP3    H172962   0.752   2.353   3.744  0.2610  1.6299 -0.6025
17157TIP3    H272963   0.811   2.456   3.838  1.3519 -1.0243  1.6943
17158TIP3   OH272964   5.592   1.729  15.911 -0.3875 -0.1974  0.2998
17158TIP3    H172965   5.518   1.732  15.851 -2.4268 -0.3868  2.6975
17158TIP3    H272966   5.584   1.643  15.953 -0.1352  0.6755  2.1692
17159TIP3   OH272967   1.625   3.061   4.187  0.0839  0.1109 -0.4331
17159TIP3    H172968   1.655   3.049   4.277 -0.6143  2.5896  0.1618
17159TIP3    H272969   1.592   3.151   4.184  1.2260  0.4980 -3.4867
17160TIP3   OH272970   2.623   4.622   1.347 -0.2693  0.4205  0.0601
17160TIP3    H172971   2.585   4.616   1.259 -0.2672  0.5507  0.0498
17160TIP3    H272972   2.550   4.650   1.403  0.4534  3.5123 -0.4431
17161TIP3   OH272973   1.312   5.435   2.223  0.5680 -0.4755  0.0849
17161TIP3    H172974   1.241   5.373   2.202  0.4713 -0.9837  1.7919
17161TIP3    H272975   1.391   5.382   2.218  0.7854 -0.0340 -1.2949
17162TIP3   OH272976   2.501   5.885   1.199  0.2640 -0.9571 -0.1581
17162TIP3    H172977   2.454   5.899   1.116 -1.4435  0.0361  0.9434
17162TIP3    H272978   2.522   5.792   1.199 -0.8881 -1.2318 -1.1278
17163TIP3   OH272979   1.893   4.405   5.128 -0.6653  1.0776 -0.2712
17163TIP3    H172980   1.828   4.336   5.112  1.4887 -0.7904 -1.1378
17163TIP3    H272981   1.900   4.409   5.223  1.7079 -2.3797 -0.2233
17164TIP3   OH272982   0.461   4.452   0.786 -0.5659  0.1251 -0.1807
17164TIP3    H172983   0.550   4.435   0.755  0.0412 -0.9695  1.9850
17164TIP3    H272984   0.455   4.547   0.793  0.4215  0.2105 -0.4057
17165TIP3   OH272985   1.851   1.096  10.505  0.1049  0.7042  0.1904
17165TIP3    H172986   1.779   1.037  10.526  0.1035  0.5011 -0.3686
17165TIP3    H272987   1.920   1.073  10.568 -0.4018  1.0635  0.8797
17166TIP3   OH272988   6.402   2.218  15.803 -0.4171  0.1347  0.2183
17166TIP3    H172989   6.372   2.204  15.893  1.2391 -2.2698  0.4373
17166TIP3    H272990   6.497   2.209  15.807 -0.3200  0.0778 -1.7460
17167TIP3   OH272991   4.805   1.995  16.437 -0.4650  0.6009 -0.2599
17167TIP3    H172992   4.837   2.016  16.525 -0.5482 -5.1790  1.3582
17167TIP3    H272993   4.710   2.007  16.443 -0.5259 -0.2527  0.6439
17168TIP3   OH272994   4.832   0.910  12.803 -0.0137  0.0153  0.2036
17168TIP3    H172995   4.899   0.972  12.774  0.9579 -0.6354  1.0385
17168TIP3    H272996   4.869   0.868  12.880 -1.0526 -0.9362  0.2045
17169TIP3   OH272997   6.467   0.647   0.223 -0.4597 -0.0446  0.0568
17169TIP3    H172998   6.488   0.707   0.295 -1.3338  1.7334 -1.1448
17169TIP3    H272999   6.375   0.626   0.236 -0.4684 -0.1847 -0.2290
17170TIP3   OH273000   1.561   3.102  15.753 -0.3281 -0.0350  0.3321
17170TIP3    H173001   1.541   3.194  15.772  2.1102  0.6092  0.0176
17170TIP3    H273002   1.497   3.052  15.803 -0.8332  1.8375  1.5876
17171TIP3   OH273003   3.011   0.101  11.774  0.7380 -0.1517  0.0018
17171TIP3    H173004   3.005   0.071  11.683  1.9104  0.6479 -0.3448
17171TIP3    H273005   3.063   0.181  11.770 -0.6052  0.8129  1.1671
17172TIP3   OH273006   2.986   2.176  15.464 -0.0578 -0.0103 -0.5874
17172TIP3    H173007   3.011   2.104  15.521  1.6182  2.8857  2.5042
17172TIP3    H273008   3.066   2.195  15.414  0.0990  0.9230  0.0064
17173TIP3   OH273009   2.346   4.812   5.907 -0.6938 -0.4604  0.5083
17173TIP3    H173010   2.431   4.782   5.940  0.1642  0.0352 -1.1715
17173TIP3    H273011   2.290   4.734   5.911 -0.2587 -0.7210  1.8855
17174TIP3   OH273012   3.500   3.650  11.314  0.1546  0.0554  0.0289
17174TIP3    H173013   3.559   3.596  11.262  0.9577 -0.5943  1.5679
17174TIP3    H273014   3.413   3.632  11.279  0.7104 -0.0462 -1.3395
17175TIP3   OH273015   4.920   5.380  15.330  0.0373 -0.7337 -0.3344
17175TIP3    H173016   4.934   5.360  15.237 -2.3882 -2.3645 -0.4051
17175TIP3    H273017   4.915   5.295  15.372 -1.0771 -0.0544  0.9336
17176TIP3   OH273018   4.832   1.534  16.215  0.1071 -0.2668  0.5329
17176TIP3    H173019   4.833   1.541  16.310  0.3262 -0.4534  0.5416
17176TIP3    H273020   4.772   1.604  16.187 -0.6072 -0.7454  0.8513
17177TIP3   OH273021   1.408   4.623  16.994  0.1543  0.0644 -0.3316
17177TIP3    H173022   1.409   4.688  16.923  0.9531 -0.2395 -0.6100
17177TIP3    H273023   1.424   4.675  17.073 -0.6894  0.3988 -0.3719
17178TIP3   OH273024   1.293   3.741   1.601 -0.0110 -0.1510  0.0817
17178TIP3    H173025   1.262   3.654   1.573  0.8099 -0.7116  0.8812
17178TIP3    H273026   1.375   3.753   1.554 -0.4006  0.4383 -0.4533
17179TIP3   OH273027   3.543   5.524   5.624 -0.0606 -0.1434 -0.1401
17179TIP3    H173028   3.503   5.537   5.710  2.0304 -0.7301  0.9446
17179TIP3    H273029   3.471   5.538   5.562 -1.5970  0.2640  1.6887
17180TIP3   OH273030   0.946   1.236  12.727 -0.1063 -0.3207  0.2317
17180TIP3    H173031   0.931   1.181  12.650  0.5602  2.1845 -1.7340
17180TIP3    H273032   1.041   1.238  12.737 -0.1156  0.7353  0.0937
17181TIP3   OH273033   0.321   3.412  14.033  0.5787  0.5485 -0.3595
17181TIP3    H173034   0.343   3.500  14.064  1.5340 -0.0294  0.5936
17181TIP3    H273035   0.279   3.427  13.948  2.2977  1.8224 -1.0061
17182TIP3   OH273036   1.250   6.086  14.112 -0.5615  0.4805 -0.1929
17182TIP3    H173037   1.231   6.128  14.028  0.1509  2.2369  0.4909
17182TIP3    H273038   1.227   6.152  14.177  0.0885 -0.4014  0.9493
17183TIP3   OH273039   0.619   2.331   6.510 -0.0253  0.0906  0.5709
17183TIP3    H173040   0.641   2.418   6.475 -2.1655 -0.1891 -1.6206
17183TIP3    H273041   0.691   2.275   6.482  1.0781  1.0281  1.4946
17184TIP3   OH273042   4.708   5.910   6.641 -0.0154  0.0809 -0.5228
17184TIP3    H173043   4.713   5.865   6.557  0.5744 -2.2524  0.7404
17184TIP3    H273044   4.797   5.941   6.657 -0.3114  1.2940 -1.1463
17185TIP3   OH273045   2.941   2.190  14.539  0.8757 -0.1045  0.0981
17185TIP3    H173046   2.973   2.205  14.628 -0.0923  0.5496  0.3467
17185TIP3    H273047   3.011   2.142  14.495  2.5198  2.0447  0.3594
17186TIP3   OH273048   4.715   0.213  12.859  0.7546 -0.0135  0.0621
17186TIP3    H173049   4.679   0.201  12.947 -0.5176 -2.4786 -0.7553
17186TIP3    H273050   4.639   0.218  12.802  1.5841  0.9879 -0.9948
17187TIP3   OH273051   0.332   1.263  15.213  0.0802  0.3130  0.1093
17187TIP3    H173052   0.346   1.288  15.122 -0.7166  0.5688  0.0560
17187TIP3    H273053   0.265   1.323  15.245 -0.6809 -0.6974  0.4475
17188TIP3   OH273054   4.462   3.736  16.528  0.1040  0.0387 -0.0970
17188TIP3    H173055   4.387   3.789  16.553 -0.3484 -0.9124  0.5841
17188TIP3    H273056   4.450   3.719  16.434 -0.3430  0.1924 -0.0665
17189TIP3   OH273057   2.674   3.750   3.921  0.1401 -0.7510 -0.9312
17189TIP3    H173058   2.753   3.799   3.947 -0.4116  0.0984 -0.8388
17189TIP3    H273059   2.611   3.768   3.991 -0.6322 -0.2085 -1.7533
17190TIP3   OH273060   0.592   4.902   3.782  0.2281  0.3523  0.6160
17190TIP3    H173061   0.565   4.886   3.692 -2.0271  1.7796  1.0078
17190TIP3    H273062   0.643   4.983   3.778  2.2618 -0.8852  0.3020
17191TIP3   OH273063   2.316   5.962  14.600 -0.0024 -0.5879  0.1898
17191TIP3    H173064   2.299   6.051  14.569 -0.0423 -0.8320 -0.5141
17191TIP3    H273065   2.240   5.912  14.570 -0.9625 -0.4545  2.3589
17192TIP3   OH273066   5.249   1.592   3.019  0.0710 -0.1317 -0.5746
17192TIP3    H173067   5.158   1.565   3.008 -0.2636  0.7710 -0.0700
17192TIP3    H273068   5.300   1.517   2.989 -0.8372 -0.5937 -0.9781
17193TIP3   OH273069   2.321   3.104   4.056 -0.1769  0.6150 -0.2026
17193TIP3    H173070   2.290   3.155   4.131 -1.2230  1.0360 -0.9072
17193TIP3    H273071   2.320   3.013   4.087  0.1474  0.8607  0.5416
17194TIP3   OH273072   5.621   3.395   6.029 -0.4616  0.0390 -0.6330
17194TIP3    H173073   5.679   3.429   6.097  1.5062  0.9945 -2.7109
17194TIP3    H273074   5.576   3.322   6.070  0.3915  0.8285  1.8019
17195TIP3   OH273075   6.199   0.070  16.354  0.0746  0.5853  0.2544
17195TIP3    H173076   6.288   0.057  16.322 -0.2742 -3.0001  0.6326
17195TIP3    H273077   6.202   0.043  16.446 -1.7233 -0.8882 -0.1043
17196TIP3   OH273078   3.415   6.561   3.368 -0.6814 -0.1613 -0.1057
17196TIP3    H173079   3.463   6.514   3.300 -0.6220  1.5763 -1.3048
17196TIP3    H273080   3.332   6.514   3.375  0.2450 -1.7670  0.3042
17197TIP3   OH273081   1.907   2.085   0.539 -0.4323 -0.1726 -0.1658
17197TIP3    H173082   1.981   2.123   0.491 -0.9632  2.7937  1.2552
17197TIP3    H273083   1.871   2.020   0.478  1.7522  0.1516 -1.8997
17198TIP3   OH273084   6.729   2.203   5.276  0.3501  0.4470  0.9109
17198TIP3    H173085   6.774   2.276   5.319 -0.5460  1.6635 -0.1671
17198TIP3    H273086   6.637   2.231   5.272 -0.0880 -0.9764  0.9654
17199TIP3   OH273087   5.055   4.938  12.635 -0.5507  0.0333 -0.3987
17199TIP3    H173088   5.144   4.907  12.621  0.0262  0.8412  1.2884
17199TIP3    H273089   5.042   5.005  12.568  0.4540  0.5669 -0.0644
17200TIP3   OH273090   4.838   1.618   3.973  0.0144 -0.5054 -0.5275
17200TIP3    H173091   4.770   1.572   3.925 -0.3129 -0.5247 -0.0475
17200TIP3    H273092   4.852   1.698   3.922 -0.8136 -0.2019 -0.2930
17201TIP3   OH273093   5.881   4.158   6.248  0.0505 -0.4033 -0.8043
17201TIP3    H173094   5.955   4.110   6.286 -0.1626 -1.2455 -1.4391
17201TIP3    H273095   5.852   4.104   6.175 -1.3117 -0.1695 -0.4589
17202TIP3   OH273096   5.035   2.987   5.317 -0.0452  0.1939 -0.2702
17202TIP3    H173097   5.122   3.026   5.313  0.5263 -0.8544  1.3935
17202TIP3    H273098   4.977   3.053   5.279  1.5664  0.5542 -2.2053
17203TIP3   OH273099   4.060   1.707   4.416  0.4117 -0.3962 -0.1469
17203TIP3    H173100   4.027   1.771   4.353  1.1283  0.7937  0.6723
17203TIP3    H273101   3.981   1.663   4.449  0.0078 -0.7636 -1.5739
17204TIP3   OH273102   0.020   4.221  11.043  0.1705  0.4496  0.2929
17204TIP3    H173103   0.034   4.163  10.968 -0.4477  0.2620  0.3208
17204TIP3    H273104   0.050   4.307  11.013  1.7839 -0.0140  0.4931
17205TIP3   OH273105   3.653   1.390  12.848 -0.7776  0.2426  0.3896
17205TIP3    H173106   3.737   1.388  12.894 -0.4794  1.4122 -0.0680
17205TIP3    H273107   3.632   1.298  12.831  0.2640 -0.0726  0.7656
17206TIP3   OH273108   2.531   0.354   5.877 -0.0086  0.0821 -0.2701
17206TIP3    H173109   2.601   0.290   5.867 -0.5495 -0.3061 -1.8252
17206TIP3    H273110   2.568   0.436   5.843  0.1765  0.2190  0.2695
17207TIP3   OH273111   5.634   2.719   1.201  0.6876 -0.0419 -0.1810
17207TIP3    H173112   5.664   2.741   1.289 -0.4344  2.3903 -0.3756
17207TIP3    H273113   5.547   2.758   1.195  0.4236 -0.8620 -2.1126
17208TIP3   OH273114   2.789   6.328   2.231  0.1945  0.1492 -0.7123
17208TIP3    H173115   2.714   6.379   2.199 -1.3956 -1.5467  0.2124
17208TIP3    H273116   2.751   6.264   2.291  2.3566 -0.9979 -0.5072
17209TIP3   OH273117   3.492   2.455  14.513 -0.3486  0.3262 -0.5241
17209TIP3    H173118   3.533   2.383  14.465 -0.8258  0.6666 -1.4495
17209TIP3    H273119   3.538   2.456  14.597  0.6173 -0.1641 -1.0274
17210TIP3   OH273120   3.814   2.696   5.541 -0.3276 -0.2857 -0.3706
17210TIP3    H173121   3.879   2.629   5.521 -0.3503  0.0920 -1.7205
17210TIP3    H273122   3.820   2.759   5.469 -1.1087  0.5627  0.2883
17211TIP3   OH273123   0.395   0.635   0.248  0.4189  0.3567  0.3344
17211TIP3    H173124   0.356   0.713   0.209 -0.1096  0.7303  1.5718
17211TIP3    H273125   0.331   0.607   0.313  0.8939 -0.7491  0.3400
17212TIP3   OH273126   2.117   2.006  12.038 -0.3400  0.3115 -0.0993
17212TIP3    H173127   2.191   1.960  12.000 -0.7694 -1.3712  1.0319
17212TIP3    H273128   2.121   2.094  12.001  0.7000 -0.5332 -2.0279
17213TIP3   OH273129   0.328   4.375   4.866  0.2804 -0.1032  0.1837
17213TIP3    H173130   0.319   4.362   4.771  0.6811  1.2224 -0.0467
17213TIP3    H273131   0.296   4.464   4.881  1.9623  0.3959  1.0084
17214TIP3   OH273132   3.516   5.339  17.285  0.4576  0.5297 -0.1558
17214TIP3    H173133   3.476   5.420  17.253 -1.8212 -0.5440 -0.1561
17214TIP3    H273134   3.583   5.318  17.221 -1.3858  0.5100 -2.1076
17215TIP3   OH273135   2.285   6.045   0.320  0.7803  0.1161  0.0843
17215TIP3    H173136   2.248   6.068   0.235  1.2357 -0.4512 -0.2751
17215TIP3    H273137   2.289   6.127   0.368 -0.9727  0.1876  0.1456
17216TIP3   OH273138   2.418   2.562   0.434 -0.0301  0.2568  0.2082
17216TIP3    H173139   2.345   2.623   0.444 -0.7709 -0.5001 -0.5100
17216TIP3    H273140   2.439   2.535   0.524 -1.8504 -0.9343  0.2778
17217TIP3   OH273141   5.219   0.052   1.737  0.4874 -0.6683  0.0086
17217TIP3    H173142   5.125   0.039   1.728  0.3364 -0.0947  0.7091
17217TIP3    H273143   5.244  -0.002   1.812  0.2190  1.3311  1.5950
17218TIP3   OH273144   4.118   0.241   6.146 -0.1964  0.1491  0.1796
17218TIP3    H173145   4.204   0.200   6.154 -0.4904 -0.3515  0.7694
17218TIP3    H273146   4.098   0.271   6.235 -0.4664  0.6005 -0.0327
17219TIP3   OH273147   1.056   4.305   0.896 -0.0451  0.0120  0.4935
17219TIP3    H173148   1.058   4.357   0.976  0.3695  0.9856 -0.1419
17219TIP3    H273149   1.023   4.220   0.924 -0.3169  0.4767  1.6225
17220TIP3   OH273150   4.205   2.356  17.280 -0.0094 -0.7534  0.3075
17220TIP3    H173151   4.126   2.401  17.309  1.6521  2.1380  0.5767
17220TIP3    H273152   4.216   2.284  17.343 -0.7546  0.6737  2.1369
17221TIP3   OH273153   6.505   0.748   1.529  0.3684  0.4079  0.4742
17221TIP3    H173154   6.519   0.840   1.549 -0.3920  0.0578  2.8013
17221TIP3    H273155   6.544   0.701   1.603 -2.2246 -0.9739  1.0538
17222TIP3   OH273156   2.922   6.482  12.145  0.5069  0.2120  0.2228
17222TIP3    H173157   2.841   6.487  12.094 -0.1390  0.8846  1.3037
17222TIP3    H273158   2.917   6.397  12.189  0.3226  0.3262  0.4174
17223TIP3   OH273159   5.524   0.322  13.454  1.0608  0.4273  0.4114
17223TIP3    H173160   5.586   0.254  13.482 -1.5163 -1.9238  0.6824
17223TIP3    H273161   5.563   0.360  13.375  1.0711 -3.7531 -1.7541
17224TIP3   OH273162   5.680   5.229   5.589  0.8977 -0.0556 -0.1726
17224TIP3    H173163   5.688   5.133   5.589 -2.0099 -0.3497 -1.1626
17224TIP3    H273164   5.716   5.256   5.505  0.4472 -0.4167 -0.4836
17225TIP3   OH273165   2.610   3.977  11.744  0.3334  0.0938 -0.0537
17225TIP3    H173166   2.652   3.926  11.675 -0.2053 -1.3923  0.7081
17225TIP3    H273167   2.666   3.965  11.820  0.3020  0.7976  0.0819
17226TIP3   OH273168   2.878   4.030  15.115 -0.0113  0.5983  0.9574
17226TIP3    H173169   2.831   3.955  15.153  1.3684 -0.0764  1.3791
17226TIP3    H273170   2.962   3.994  15.086 -0.2140  1.5461 -0.8701
17227TIP3   OH273171   3.274   4.213  17.292  0.1334  0.1937 -0.1183
17227TIP3    H173172   3.201   4.201  17.352  1.7490 -0.9568  1.6663
17227TIP3    H273173   3.317   4.294  17.322 -1.5076  1.9682 -2.3800
17228TIP3   OH273174   5.210   6.004  12.845 -0.4376 -0.3774 -0.2890
17228TIP3    H173175   5.182   5.968  12.761  2.5087 -0.1836 -1.4065
17228TIP3    H273176   5.297   6.040  12.828  0.1547 -0.1975  2.8127
17229TIP3   OH273177   2.876   4.653   1.498  0.1469 -0.7003 -0.3640
17229TIP3    H173178   2.906   4.567   1.526 -0.0209 -0.3094  1.0325
17229TIP3    H273179   2.785   4.638   1.471  0.4386 -1.1556 -1.1219
17230TIP3   OH273180   1.909   6.579  11.721 -0.6236 -0.1512 -0.4388
17230TIP3    H173181   1.902   6.562  11.815 -1.8535 -0.5377 -0.5801
17230TIP3    H273182   1.997   6.614  11.709 -0.9925  1.3526  1.0681
17231TIP3   OH273183   0.519   5.980  15.699  0.3002  0.0666 -0.5146
17231TIP3    H173184   0.496   5.939  15.782  1.1972  2.0574  0.7455
17231TIP3    H273185   0.531   6.073  15.720  1.6758  0.4000 -2.6249
17232TIP3   OH273186   0.075   6.817  17.184 -0.0914  0.4340 -0.0635
17232TIP3    H173187   0.024   6.845  17.109  0.4764  0.8119 -0.3081
17232TIP3    H273188   0.012   6.771  17.240 -0.9221  1.7611  0.1138
17233TIP3   OH273189   0.699   0.421  11.831  0.1006 -0.0438 -0.2164
17233TIP3    H173190   0.650   0.415  11.913  1.7687  0.9232  0.8795
17233TIP3    H273191   0.764   0.351  11.836  0.2531  0.0641 -0.6833
17234TIP3   OH273192   2.680   5.217   4.079 -0.3442 -0.4253 -0.5009
17234TIP3    H173193   2.656   5.160   4.152  0.4198 -0.4192 -0.2444
17234TIP3    H273194   2.748   5.274   4.114  0.4262 -0.7895 -1.3721
17235TIP3   OH273195   3.206   4.914   5.225 -0.3071 -0.1197  0.2723
17235TIP3    H173196   3.210   5.007   5.204  0.0741 -0.1801  0.0755
17235TIP3    H273197   3.112   4.895   5.228 -0.3851  0.0850 -0.5312
17236TIP3   OH273198   0.339   6.396  14.424  0.3115  0.0355  0.0730
17236TIP3    H173199   0.318   6.465  14.361 -0.5893 -0.2920  0.0090
17236TIP3    H273200   0.385   6.441  14.495 -1.0066  0.8431  0.4227
17237TIP3   OH273201   1.921   1.528  12.697  0.7402  1.1319  0.0535
17237TIP3    H173202   1.983   1.523  12.624  0.6995  0.5671  0.0517
17237TIP3    H273203   1.836   1.537  12.655  0.4053 -2.0598 -0.0775
17238TIP3   OH273204   1.954   1.060  15.369 -0.5890  0.2240 -0.0888
17238TIP3    H173205   1.970   1.137  15.424  0.6354 -0.5460  0.6478
17238TIP3    H273206   1.870   1.025  15.399 -0.0604 -0.0263  1.1014
17239TIP3   OH273207   1.696   0.990  15.444 -0.3337  0.3933 -0.7037
17239TIP3    H173208   1.617   1.044  15.436 -0.1210  1.1242  1.8790
17239TIP3    H273209   1.667   0.910  15.487  0.5122  1.1085  1.2353
17240TIP3   OH273210   4.749   2.659   5.737 -0.6661 -0.0802  0.7415
17240TIP3    H173211   4.659   2.632   5.719  0.3112 -2.6476 -0.5216
17240TIP3    H273212   4.759   2.648   5.832 -1.0246 -1.9273  0.5751
17241TIP3   OH273213   2.658   3.710   5.204  0.4476  0.2955  0.2610
17241TIP3    H173214   2.638   3.616   5.207  0.4909  0.3127  1.1254
17241TIP3    H273215   2.578   3.750   5.169  0.4737 -0.0716 -0.2319
17242TIP3   OH273216   4.627   1.204   5.313 -0.0292 -0.3530  0.5057
17242TIP3    H173217   4.677   1.130   5.279  0.8808  0.2157  0.5813
17242TIP3    H273218   4.535   1.182   5.296  0.2159 -1.6596  0.8772
17243TIP3   OH273219   1.624   1.942   1.710 -0.5369 -0.5781 -0.0966
17243TIP3    H173220   1.621   1.909   1.799 -2.1696  0.0620  0.1099
17243TIP3    H273221   1.590   1.870   1.656  3.6331 -2.2739 -0.6780
17244TIP3   OH273222   2.174   5.205  13.714 -0.2148 -0.3119 -0.2075
17244TIP3    H173223   2.267   5.193  13.693 -0.1982 -0.4641 -0.0407
17244TIP3    H273224   2.129   5.194  13.630 -0.1656 -1.1325 -0.1279
17245TIP3   OH273225   5.895   1.673  15.517  0.0325 -0.9102  0.7651
17245TIP3    H173226   5.879   1.657  15.610  1.5142 -2.5389  0.7652
17245TIP3    H273227   5.990   1.677  15.509 -0.1208  2.7575 -0.1444
17246TIP3   OH273228   1.969   1.548   3.543 -0.1760  0.0578 -0.1955
17246TIP3    H173229   2.037   1.551   3.476 -0.3581  0.2408 -0.3703
17246TIP3    H273230   1.914   1.474   3.519  0.2809 -0.4399  0.2564
17247TIP3   OH273231   5.148   6.505   2.851  0.0979  0.2244  0.0142
17247TIP3    H173232   5.139   6.533   2.943  0.4652  0.8531 -0.1364
17247TIP3    H273233   5.183   6.416   2.857  0.5946  0.4457  0.4824
17248TIP3   OH273234   4.988   3.456   1.922 -0.3351  0.1819 -0.3921
17248TIP3    H173235   4.931   3.511   1.976 -2.5487 -0.3434 -2.1355
17248TIP3    H273236   4.958   3.470   1.833  2.9113  0.5963 -1.5076
17249TIP3   OH273237   2.286   3.697   2.737  0.2321 -0.0497  0.2843
17249TIP3    H173238   2.231   3.747   2.677  0.4510 -1.0302 -0.7395
17249TIP3    H273239   2.227   3.631   2.774  0.6783 -1.0378 -0.7393
17250TIP3   OH273240   2.379   1.053  17.173 -0.0489 -0.0779 -0.1445
17250TIP3    H173241   2.295   1.022  17.139 -0.2413  1.3167 -0.9791
17250TIP3    H273242   2.359   1.085  17.261 -0.7806  1.9397 -1.0123
17251TIP3   OH273243   2.572   6.393  14.007 -0.0346  0.0625  0.6072
17251TIP3    H173244   2.618   6.323  14.054  2.7134  1.6946  0.4190
17251TIP3    H273245   2.559   6.357  13.919  0.4886 -0.5860  0.7856
17252TIP3   OH273246   5.868   0.126  11.241  0.4283  0.0654  0.3826
17252TIP3    H173247   5.819   0.189  11.294  1.0657  1.3237 -0.5049
17252TIP3    H273248   5.959   0.138  11.266  0.5631 -0.4797  0.1759
17253TIP3   OH273249   1.971   4.133   0.907  0.0430  0.3369 -0.4885
17253TIP3    H173250   1.925   4.124   0.823 -1.2596  1.1001  0.1259
17253TIP3    H273251   1.914   4.189   0.960 -1.1408 -3.2666  2.3230
17254TIP3   OH273252   6.716   2.333   2.731  0.3031  0.1176 -0.1866
17254TIP3    H173253   6.746   2.299   2.815  1.2684  1.0485 -0.1481
17254TIP3    H273254   6.796   2.361   2.686 -0.2186 -0.2523 -1.3571
17255TIP3   OH273255   0.424   1.684  11.146  0.2141  0.1446 -0.2189
17255TIP3    H173256   0.455   1.729  11.067 -0.4120  0.0108 -0.5459
17255TIP3    H273257   0.342   1.642  11.119  0.7141 -1.0648  0.1220
17256TIP3   OH273258   6.777   1.989   5.471 -0.0338  0.2940 -0.1428
17256TIP3    H173259   6.796   2.082   5.457 -2.1212  0.3189 -3.2494
17256TIP3    H273260   6.855   1.944   5.438  0.0673  0.8740 -0.7118
17257TIP3   OH273261   5.548   3.327   4.144 -0.6339 -0.4015 -0.3761
17257TIP3    H173262   5.591   3.241   4.144 -0.5875 -0.3778 -0.5037
17257TIP3    H273263   5.616   3.387   4.176 -0.7726 -0.4668  0.0499
17258TIP3   OH273264   3.876   4.551   2.766 -0.3684 -0.0285 -0.3116
17258TIP3    H173265   3.815   4.606   2.815  0.9645 -0.1661  1.5244
17258TIP3    H273266   3.919   4.613   2.705 -0.5595  0.5249  0.1110
17259TIP3   OH273267   4.863   2.455   1.157 -0.0083 -0.0472  0.2488
17259TIP3    H173268   4.876   2.474   1.065  0.4112  0.8632  0.4985
17259TIP3    H273269   4.777   2.412   1.161 -0.0793  0.0271 -0.5408
17260TIP3   OH273270   2.123   2.284   4.070  0.5141 -0.2789  0.5835
17260TIP3    H173271   2.045   2.329   4.102 -0.7218 -1.5867 -0.5355
17260TIP3    H273272   2.126   2.303   3.977  2.7091  1.4534  0.9583
17261TIP3   OH273273   4.554   5.741  15.004 -0.5732  0.7007 -0.1497
17261TIP3    H173274   4.488   5.712  15.066 -0.3356  1.2849  0.3769
17261TIP3    H273275   4.541   5.685  14.927 -2.2794  1.4397 -0.4073
17262TIP3   OH273276   0.515   6.365  12.208  0.0629  0.6048  0.1969
17262TIP3    H173277   0.430   6.341  12.172  0.3719 -0.7829  0.3655
17262TIP3    H273278   0.499   6.447  12.255 -0.9437  0.9122 -0.6708
17263TIP3   OH273279   1.749   4.962   1.116  0.3790 -0.4068 -0.7176
17263TIP3    H173280   1.738   4.869   1.138  0.7390 -0.2460  0.1981
17263TIP3    H273281   1.690   4.977   1.043 -1.2955 -0.8548  0.5168
17264TIP3   OH273282   1.831   2.753   3.402 -0.2514 -0.5294 -0.2151
17264TIP3    H173283   1.787   2.680   3.446 -0.5472 -0.6466 -0.7000
17264TIP3    H273284   1.899   2.711   3.349  0.0200 -0.3985  0.0278
17265TIP3   OH273285   2.847   3.179  13.705  0.7350 -0.3233 -0.2890
17265TIP3    H173286   2.864   3.180  13.611 -0.1618  0.7729 -0.4530
17265TIP3    H273287   2.835   3.086  13.727 -0.1673 -0.4975 -1.4635
17266TIP3   OH273288   6.094   5.123  16.935  0.8099  0.2311 -0.1646
17266TIP3    H173289   6.010   5.153  16.971  0.3596 -0.9628 -0.1761
17266TIP3    H273290   6.153   5.197  16.945  0.1302  0.6030  1.1562
17267TIP3   OH273291   3.848   5.546  11.459 -0.1278 -0.4139 -0.1752
17267TIP3    H173292   3.771   5.507  11.502  0.7017  0.3074  1.9894
17267TIP3    H273293   3.842   5.639  11.479  0.9746 -0.2665 -0.5337
17268TIP3   OH273294   4.250   4.866   0.299 -0.3207  0.2371  0.3896
17268TIP3    H173295   4.173   4.858   0.242 -0.7238 -0.6769  1.0467
17268TIP3    H273296   4.316   4.810   0.258 -0.5067 -0.1737  0.6556
17269TIP3   OH273297   0.838   0.473  10.692 -0.4355  0.1573 -0.0040
17269TIP3    H173298   0.802   0.408  10.631  2.2725 -2.4855  1.0854
17269TIP3    H273299   0.923   0.497  10.653  0.3065  0.1207  1.5563
17270TIP3   OH273300   3.507   3.677  12.096 -0.1400  0.1722 -0.6579
17270TIP3    H173301   3.474   3.766  12.097 -0.6366  0.0538 -2.7860
17270TIP3    H273302   3.597   3.685  12.064  0.5780  0.1022  1.2700
17271TIP3   OH273303   5.419   0.722  12.438  0.2272 -0.3713  0.1470
17271TIP3    H173304   5.440   0.710  12.346  0.6016  0.9932  0.0381
17271TIP3    H273305   5.478   0.662  12.484 -1.6990 -2.8927 -0.6110
17272TIP3   OH273306   2.808   1.909  11.414  0.2282  0.5359 -0.1839
17272TIP3    H173307   2.899   1.938  11.421  0.0131  0.9441  0.9767
17272TIP3    H273308   2.793   1.899  11.320  1.2562  1.1529 -0.4129
17273TIP3   OH273309   1.827   1.268  12.479 -0.1022 -0.4106  0.0566
17273TIP3    H173310   1.917   1.238  12.470 -0.0863 -0.4519  0.3477
17273TIP3    H273311   1.783   1.197  12.527 -0.7197 -1.2090 -1.6527
17274TIP3   OH273312   3.877   5.244   4.479 -0.4384  0.5452 -0.1398
17274TIP3    H173313   3.803   5.247   4.419 -1.0516 -0.9124  0.5092
17274TIP3    H273314   3.874   5.156   4.516 -0.1973  1.4941  2.1991
17275TIP3   OH273315   5.903   3.966   2.364  0.0015 -0.9751 -0.1553
17275TIP3    H173316   5.814   3.981   2.334  0.3536  0.3039 -0.6193
17275TIP3    H273317   5.958   3.987   2.289  0.8053  0.6151  0.8362
17276TIP3   OH273318   2.041   0.141   2.803 -0.6758  0.5760  0.1632
17276TIP3    H173319   2.064   0.060   2.758 -2.0897 -0.3392  1.0386
17276TIP3    H273320   1.991   0.191   2.738  0.1458  0.7098 -0.3588
17277TIP3   OH273321   2.562   2.536   1.437  0.1981 -0.1782  0.6031
17277TIP3    H173322   2.598   2.456   1.477  0.6115 -0.0299  0.5328
17277TIP3    H273323   2.468   2.520   1.432  0.4815 -1.4547 -1.2146
17278TIP3   OH273324   5.812   4.070  11.352 -0.9385 -0.5820 -0.1720
17278TIP3    H173325   5.717   4.065  11.348 -0.9602 -1.5469  1.1882
17278TIP3    H273326   5.833   4.157  11.317 -2.3509 -0.1312  0.0837
17279TIP3   OH273327   0.822   1.148   5.579  0.6227 -0.5324 -0.2154
17279TIP3    H173328   0.840   1.094   5.502 -1.0406 -0.3128 -0.7956
17279TIP3    H273329   0.749   1.103   5.622 -0.4356  0.9427 -0.4171
17280TIP3   OH273330   1.980   1.528   1.752  0.0291 -0.3974 -0.3015
17280TIP3    H173331   2.006   1.482   1.672 -0.5269  1.3882 -1.5503
17280TIP3    H273332   2.061   1.535   1.803  0.8781  0.3233 -1.6911
17281TIP3   OH273333   5.798   2.261  17.250 -0.0210  0.1566  0.6344
17281TIP3    H173334   5.748   2.260  17.331 -1.9137 -1.0647 -0.5041
17281TIP3    H273335   5.738   2.225  17.184  2.3913 -1.4697 -0.7601
17282TIP3   OH273336   5.172   5.547   3.789  0.3951 -0.2879  0.0566
17282TIP3    H173337   5.144   5.545   3.697 -0.5645  1.8607  0.2647
17282TIP3    H273338   5.165   5.456   3.818 -1.4950 -0.6385 -1.3700
17283TIP3   OH273339   1.275   3.378  14.947 -0.3173  0.1849 -0.0542
17283TIP3    H173340   1.237   3.307  14.895  0.2870 -0.2786  0.1227
17283TIP3    H273341   1.279   3.452  14.887 -0.7913  0.0193 -0.2938
17284TIP3   OH273342   4.001   5.040  11.618 -0.1498 -0.5097 -0.0496
17284TIP3    H173343   4.080   5.044  11.671 -0.2968 -0.5189  0.1715
17284TIP3    H273344   3.983   5.130  11.593 -0.0455 -0.5135 -0.1345
17285TIP3   OH273345   0.798   0.224  12.121  0.7497 -0.1224 -0.4515
17285TIP3    H173346   0.829   0.312  12.142 -0.0840 -0.0704  0.6373
17285TIP3    H273347   0.709   0.238  12.088  0.7866 -0.5182 -0.7196
17286TIP3   OH273348   3.460   1.096  11.930 -0.4392  0.0123 -0.1005
17286TIP3    H173349   3.426   1.007  11.929  0.3644 -0.2951 -1.0138
17286TIP3    H273350   3.443   1.128  12.019  1.2566 -1.8235  0.9069
17287TIP3   OH273351   2.158   4.748  12.311  0.1251 -0.4746 -0.1556
17287TIP3    H173352   2.208   4.787  12.239 -0.4536 -0.0091 -0.3094
17287TIP3    H273353   2.180   4.803  12.387  1.4560 -1.5205  0.2358
17288TIP3   OH273354   6.033   1.991  12.468 -0.4210 -0.2814  0.2735
17288TIP3    H173355   6.102   2.012  12.530 -1.6469  1.1910  1.1941
17288TIP3    H273356   6.065   2.023  12.384 -0.1482  0.7743  0.7671
17289TIP3   OH273357   2.316   1.240  14.727 -0.5171 -0.1058  0.2287
17289TIP3    H173358   2.351   1.182  14.795  0.8393 -0.2237 -0.5442
17289TIP3    H273359   2.371   1.318  14.732 -0.8683  0.1707 -0.2622
17290TIP3   OH273360   5.496   5.972   5.692 -0.7832 -0.0665 -0.1260
17290TIP3    H173361   5.527   6.060   5.711  0.1581 -0.7970  1.9504
17290TIP3    H273362   5.563   5.914   5.731 -4.0951 -1.6884  3.5509
17291TIP3   OH273363   5.335   3.673  13.579 -0.1164 -0.1282  0.7863
17291TIP3    H173364   5.302   3.680  13.668 -0.5910  0.5075  0.5621
17291TIP3    H273365   5.401   3.604  13.583  0.0133  0.0462  1.6701
17292TIP3   OH273366   4.335   3.501   0.519  0.5875  0.0207  0.2459
17292TIP3    H173367   4.278   3.571   0.488 -1.8025 -1.8999  0.1306
17292TIP3    H273368   4.332   3.508   0.615  0.0474 -0.1459  0.2431
17293TIP3   OH273369   6.706   1.659   3.412  0.6547  0.2737 -0.3153
17293TIP3    H173370   6.762   1.642   3.336  1.2787 -0.8927  0.3877
17293TIP3    H273371   6.733   1.745   3.443  1.3249  0.1733 -0.6113
17294TIP3   OH273372   4.728   5.164   1.080 -0.1684  0.8771  0.0145
17294TIP3    H173373   4.661   5.221   1.042  0.8788  1.3693 -1.1048
17294TIP3    H273374   4.736   5.092   1.019 -3.4073 -1.9648  2.7141
17295TIP3   OH273375   4.921   5.629  13.869 -0.0146  0.3752 -0.1270
17295TIP3    H173376   4.957   5.572  13.801 -0.9396 -0.3886  0.0016
17295TIP3    H273377   4.970   5.605  13.948 -0.5039 -0.3494 -0.0421
17296TIP3   OH273378   1.168   3.580   5.643 -0.8083  0.2170 -0.6567
17296TIP3    H173379   1.093   3.609   5.592 -0.8297  0.9011 -0.2470
17296TIP3    H273380   1.136   3.504   5.692 -1.5170  1.0722  0.2307
17297TIP3   OH273381   4.113   6.393  12.012 -0.2280 -0.1225  0.0634
17297TIP3    H173382   4.029   6.389  12.057 -0.3805  0.4795 -0.1583
17297TIP3    H273383   4.152   6.475  12.042  0.4615 -0.6030  0.4873
17298TIP3   OH273384   5.374   5.143   3.895 -0.6916 -0.0946 -0.9475
17298TIP3    H173385   5.447   5.086   3.871 -0.5424  0.1055 -0.9683
17298TIP3    H273386   5.323   5.092   3.958 -1.4763 -0.8968 -2.2131
17299TIP3   OH273387   3.117   6.100   0.109  0.0012  0.4680 -0.2989
17299TIP3    H173388   3.063   6.118   0.185  0.0309  0.1607 -0.2045
17299TIP3    H273389   3.206   6.091   0.144  0.3130  2.2460 -0.6155
17300TIP3   OH273390   3.432   0.175  16.481  0.3321 -0.2790  0.1049
17300TIP3    H173391   3.367   0.132  16.426 -0.0895 -0.5252  0.7999
17300TIP3    H273392   3.496   0.107  16.501 -0.4750 -0.6698  1.4253
17301TIP3   OH273393   4.135   1.059   2.476  0.4082  0.3077 -0.3765
17301TIP3    H173394   4.220   1.087   2.442  0.3317  1.2568  0.2157
17301TIP3    H273395   4.119   0.976   2.432  2.3664 -0.6671  0.6341
17302TIP3   OH273396   5.187   3.600   5.564  0.2125  0.3350 -0.1767
17302TIP3    H173397   5.242   3.633   5.635  0.6671 -0.8646  0.0369
17302TIP3    H273398   5.099   3.634   5.584  0.4376  0.4231  0.6783
17303TIP3   OH273399   4.311   1.507   0.606 -0.4284  0.4948  0.1685
17303TIP3    H173400   4.403   1.494   0.582 -0.9246 -2.2207 -0.4039
17303TIP3    H273401   4.310   1.495   0.701 -0.3039 -0.2371  0.0801
17304TIP3   OH273402   4.487   4.391  11.149  0.1517 -0.7137  0.2577
17304TIP3    H173403   4.463   4.455  11.081  2.1353  0.2675  0.4479
17304TIP3    H273404   4.548   4.331  11.105  1.2081 -0.2496  1.0727
17305TIP3   OH273405   0.653   1.112  13.839  0.6359 -0.3984 -0.2241
17305TIP3    H173406   0.710   1.060  13.782 -0.1301 -0.9052 -0.5410
17305TIP3    H273407   0.602   1.046  13.887 -0.9604  0.0498 -1.2557
17306TIP3   OH273408   1.600   3.828   5.678  0.5392  0.5985 -0.6716
17306TIP3    H173409   1.527   3.792   5.729  0.3944 -0.1875 -1.4262
17306TIP3    H273410   1.560   3.896   5.623  0.6570  1.2905  0.0882
17307TIP3   OH273411   0.573   2.625  16.779 -0.4439  0.3883  0.0591
17307TIP3    H173412   0.524   2.690  16.728  0.2013 -0.8462 -2.1893
17307TIP3    H273413   0.657   2.619  16.735 -1.2252 -3.4663 -1.0450
17308TIP3   OH273414   3.174   3.424   5.473  0.2066  0.2098  0.1026
17308TIP3    H173415   3.231   3.426   5.396 -1.0494  0.9699 -0.8256
17308TIP3    H273416   3.228   3.460   5.543  1.5928 -1.1271 -0.2403
17309TIP3   OH273417   0.346   3.491   2.436  0.4847 -0.1386  0.1178
17309TIP3    H173418   0.390   3.415   2.400 -2.5962 -1.7931 -0.3383
17309TIP3    H273419   0.377   3.564   2.382  1.6573 -1.4371 -1.0061
17310TIP3   OH273420   1.680   5.081  11.170  0.4099  0.0020  0.3858
17310TIP3    H173421   1.665   5.018  11.240 -2.2361  1.2501  0.9831
17310TIP3    H273422   1.712   5.159  11.216 -0.7226  0.6126  0.1255
17311TIP3   OH273423   3.539   3.969   1.232  0.6488  0.1565 -0.6923
17311TIP3    H173424   3.501   3.989   1.147  2.6955 -1.7502 -2.1243
17311TIP3    H273425   3.634   3.970   1.217  1.0059 -2.2416  1.0330
17312TIP3   OH273426   2.844   1.832  12.767  0.1586  0.3952  0.2927
17312TIP3    H173427   2.887   1.752  12.734  0.3965  1.2805 -1.5939
17312TIP3    H273428   2.825   1.812  12.858  0.9065 -1.5539  0.0596
17313TIP3   OH273429   3.215   3.063   1.472  0.8401  0.2712  0.2573
17313TIP3    H173430   3.253   3.021   1.549 -1.1231 -0.1592  1.0413
17313TIP3    H273431   3.184   3.148   1.503 -3.1442 -1.2954  0.9095
17314TIP3   OH273432   1.394   1.765   6.246  0.3272 -0.0497 -0.2296
17314TIP3    H173433   1.429   1.745   6.333  0.7633  1.1907 -0.1130
17314TIP3    H273434   1.448   1.837   6.214  0.0319 -0.3450 -1.4504
17315TIP3   OH273435   1.975   1.165   2.881  0.1479  0.4183  0.4826
17315TIP3    H173436   1.971   1.256   2.850  0.8355 -0.3990 -2.1093
17315TIP3    H273437   2.044   1.166   2.948  1.6125  1.4256 -0.9905
17316TIP3   OH273438   6.478   1.583  15.729  0.5182  0.4542  0.0309
17316TIP3    H173439   6.434   1.620  15.806  0.5022 -0.2067  0.3481
17316TIP3    H273440   6.410   1.578  15.662  0.7734  1.9526 -0.3426
17317TIP3   OH273441   4.044   1.864   5.533 -1.1291  0.5059 -0.2274
17317TIP3    H173442   4.131   1.866   5.494 -1.3161 -0.5864 -0.7203
17317TIP3    H273443   4.007   1.780   5.505 -1.6556  0.1638  1.4622
17318TIP3   OH273444   5.498   4.346   6.318 -0.4837  0.5058 -0.0333
17318TIP3    H173445   5.542   4.427   6.345 -0.5624  1.0442 -1.4407
17318TIP3    H273446   5.551   4.276   6.357  1.9733  1.1164 -2.1027
17319TIP3   OH273447   5.295   3.110   3.892 -0.0687  0.6545  0.5449
17319TIP3    H173448   5.205   3.109   3.859  0.3713  1.1108 -0.6779
17319TIP3    H273449   5.290   3.160   3.974 -1.1627 -0.5009  1.2103
17320TIP3   OH273450   5.595   4.754   0.876  0.0796  0.3151  0.1103
17320TIP3    H173451   5.592   4.696   0.952 -0.7452  0.9686  0.5940
17320TIP3    H273452   5.669   4.812   0.892  1.3268 -1.0410 -0.7073
17321TIP3   OH273453   0.064   3.183   3.420  0.4024 -0.8241  0.2549
17321TIP3    H173454   0.001   3.211   3.487 -0.9134  0.7152 -1.5522
17321TIP3    H273455   0.036   3.095   3.395  0.0186 -0.8287  0.7033
17322TIP3   OH273456   6.110   0.649   3.824  0.0881 -0.2528  0.7290
17322TIP3    H173457   6.138   0.708   3.754 -0.0031  0.3923  1.2305
17322TIP3    H273458   6.190   0.605   3.852 -0.3248 -2.6876 -1.7586
17323TIP3   OH273459   3.269   2.370  11.385  0.2002  0.4625 -0.0373
17323TIP3    H173460   3.231   2.288  11.417 -0.3533 -0.0200 -1.8974
17323TIP3    H273461   3.347   2.382  11.439 -0.7684 -0.2451  1.5974
17324TIP3   OH273462   1.600   1.057   4.669  0.1239 -0.2825  0.4156
17324TIP3    H173463   1.656   1.064   4.747  1.2557  0.6093 -0.4569
17324TIP3    H273464   1.640   0.987   4.617 -0.5256 -0.7502  0.5386
17325TIP3   OH273465   4.681   0.442   6.641  0.4635  0.1972 -0.1125
17325TIP3    H173466   4.612   0.507   6.655 -0.3488 -0.6762 -0.0019
17325TIP3    H273467   4.759   0.482   6.678 -0.6212 -0.0425  2.5088
17326TIP3   OH273468   6.387   4.924  10.606 -0.2616  0.7070  0.2850
17326TIP3    H173469   6.368   5.005  10.653 -0.5653  0.6052  0.3422
17326TIP3    H273470   6.303   4.878  10.602  0.1090 -0.0853  1.1783
17327TIP3   OH273471   6.574   4.834   5.287  0.1073 -0.4485 -0.2656
17327TIP3    H173472   6.569   4.794   5.200  1.8357 -2.4041  0.5239
17327TIP3    H273473   6.487   4.819   5.325 -1.0629  1.4522 -2.0461
17328TIP3   OH273474   6.110   1.795  11.162  0.6456  0.3531  0.8479
17328TIP3    H173475   6.034   1.751  11.124  0.8570 -1.4691  2.4210
17328TIP3    H273476   6.185   1.757  11.117  0.7882 -0.3930  1.6914
17329TIP3   OH273477   1.119   3.063  11.286 -0.2099 -0.2505  0.2279
17329TIP3    H173478   1.074   2.982  11.261 -1.3677  0.2070  0.7718
17329TIP3    H273479   1.082   3.129  11.228  0.1527  0.0392  0.3281
17330TIP3   OH273480   0.088   1.708   3.685  0.0111  0.4919 -0.3505
17330TIP3    H173481  -0.002   1.741   3.685  0.2390  1.1230 -1.1329
17330TIP3    H273482   0.080   1.614   3.674 -0.7023  0.1188  2.8140
17331TIP3   OH273483   1.301   4.124   0.555  0.5910  0.2963  0.7572
17331TIP3    H173484   1.386   4.168   0.549  0.5135  0.7018  2.4590
17331TIP3    H273485   1.318   4.045   0.605  0.6983 -1.6142 -2.1942
17332TIP3   OH273486   4.857   1.826  14.694 -0.4558  0.3143  0.0955
17332TIP3    H173487   4.793   1.822  14.764  0.5655  0.8172  1.0700
17332TIP3    H273488   4.929   1.878  14.729  1.0025 -1.1951 -0.5441
17333TIP3   OH273489   1.556   2.692   4.856  0.2460  0.2658  0.1939
17333TIP3    H173490   1.480   2.676   4.799 -0.0819  3.0870 -0.1968
17333TIP3    H273491   1.631   2.687   4.796 -0.0117  2.1059 -0.3051
17334TIP3   OH273492   2.074   0.983  16.891 -0.5170  0.4673  0.3187
17334TIP3    H173493   2.129   0.955  16.965  1.7444  0.8573 -1.1527
17334TIP3    H273494   2.034   1.064  16.921  0.8400  0.9338  0.9118
17335TIP3   OH273495   5.251   2.852  16.183 -0.4123  0.2212 -0.0791
17335TIP3    H173496   5.173   2.816  16.225 -1.2502  1.0250 -0.9092
17335TIP3    H273497   5.264   2.797  16.105 -0.1747  0.1066  0.0426
17336TIP3   OH273498   4.565   3.358   5.371 -0.2878 -0.2927  0.2331
17336TIP3    H173499   4.579   3.450   5.393  2.4786 -1.0721  2.0271
17336TIP3    H273500   4.653   3.325   5.351 -1.2336 -2.5725 -0.3176
17337TIP3   OH273501   1.480   3.614  15.977  0.1554 -0.3629 -0.4320
17337TIP3    H173502   1.543   3.676  16.015  0.1018  0.4778 -1.7010
17337TIP3    H273503   1.422   3.592  16.050  0.5263  0.6396  0.1822
17338TIP3   OH273504   6.001   2.648   1.655  0.1344  0.1779  0.5409
17338TIP3    H173505   6.020   2.555   1.671  0.5885  0.1516 -0.1159
17338TIP3    H273506   5.912   2.660   1.687  0.1376 -0.4465  0.7978
17339TIP3   OH273507   3.865   2.735   2.028 -0.7546 -0.8494 -0.3838
17339TIP3    H173508   3.860   2.764   2.120  0.6775 -1.3007 -0.1474
17339TIP3    H273509   3.848   2.641   2.031 -1.4288 -0.7381 -0.6733
17340TIP3   OH273510   5.402   1.070  16.327  0.8122  0.0729  0.2048
17340TIP3    H173511   5.357   1.047  16.246  1.5843 -0.8526  0.0311
17340TIP3    H273512   5.371   1.159  16.347  1.3269  0.6955 -1.6121
17341TIP3   OH273513   1.430   4.365  16.176  0.2829  0.2734 -0.1555
17341TIP3    H173514   1.486   4.423  16.124  0.3817 -0.1701 -0.5530
17341TIP3    H273515   1.341   4.399  16.163  0.4499  0.9439  0.4297
17342TIP3   OH273516   0.489   6.752   4.265  0.5707  0.1242 -0.0191
17342TIP3    H173517   0.432   6.720   4.334  0.9426 -0.6523 -0.0669
17342TIP3    H273518   0.435   6.749   4.186  0.3003  0.5493  0.1477
17343TIP3   OH273519   1.428   6.582  14.202  0.0528 -0.3815  0.2315
17343TIP3    H173520   1.456   6.507  14.149 -0.8298 -1.3962  1.1639
17343TIP3    H273521   1.456   6.560  14.291  0.0144  0.5145  0.4700
17344TIP3   OH273522   2.608   1.188   6.674  0.0820 -0.3190 -0.3186
17344TIP3    H173523   2.569   1.274   6.688 -1.2367 -1.0910  0.9109
17344TIP3    H273524   2.652   1.168   6.757 -0.5602 -1.3082 -0.2167
17345TIP3   OH273525   4.271   2.113  12.878  0.1919 -0.4435  0.2578
17345TIP3    H173526   4.180   2.137  12.859 -0.5281 -2.5199  0.8518
17345TIP3    H273527   4.299   2.177  12.943 -1.2774 -0.5163  0.9930
17346TIP3   OH273528   1.436   1.782   5.285  0.2595  0.1621 -0.2597
17346TIP3    H173529   1.430   1.876   5.265  0.5017 -0.0452 -1.3258
17346TIP3    H273530   1.476   1.743   5.207  0.6503 -0.7581  0.3924
17347TIP3   OH273531   6.263   6.046  15.052  0.9173  0.1492 -0.3885
17347TIP3    H173532   6.341   6.035  14.998  2.2358  0.0059  1.4922
17347TIP3    H273533   6.283   5.999  15.133 -0.7854  0.8266  0.4533
17348TIP3   OH273534   3.399   5.438  12.019 -0.0252  0.2984  0.2312
17348TIP3    H173535   3.409   5.417  11.926 -0.4183  2.8074 -0.4244
17348TIP3    H273536   3.487   5.435  12.055  0.1264 -0.6988 -0.2225
17349TIP3   OH273537   1.554   1.727  17.003  0.2103  0.6879 -0.2148
17349TIP3    H173538   1.569   1.665  17.074 -1.9757 -0.2267 -0.5075
17349TIP3    H273539   1.475   1.774  17.029  1.4210  2.8641 -0.3578
17350TIP3   OH273540   6.641   3.745  15.605 -0.3075  0.2661  0.1472
17350TIP3    H173541   6.724   3.773  15.566 -0.2756 -1.3162 -0.9867
17350TIP3    H273542   6.577   3.760  15.536 -0.6016 -0.5691  0.2326
17351TIP3   OH273543   0.578   0.059  13.204 -0.2701  0.4969 -0.6744
17351TIP3    H173544   0.502   0.031  13.255 -0.4983 -1.6272 -2.1232
17351TIP3    H273545   0.542   0.088  13.120  0.5209 -0.9798 -1.5566
17352TIP3   OH273546   4.730   5.841   6.397 -0.1301  0.1128  0.2550
17352TIP3    H173547   4.822   5.829   6.370 -0.2464  2.6236 -1.4076
17352TIP3    H273548   4.680   5.811   6.321 -0.5660  2.7156 -0.5258
17353TIP3   OH273549   3.955   6.510  12.539  0.0997  0.6040 -0.4732
17353TIP3    H173550   4.022   6.446  12.565  0.9341  1.5204 -0.3417
17353TIP3    H273551   3.963   6.581  12.603 -0.3429  1.1643 -1.0313
17354TIP3   OH273552   0.270   4.109   3.461  0.1702  0.4190  0.7377
17354TIP3    H173553   0.220   4.046   3.513  0.2239  0.1851  0.5092
17354TIP3    H273554   0.255   4.082   3.370  1.0899  0.0558  0.6844
17355TIP3   OH273555   1.813   2.203  13.363 -0.4236 -0.2741 -0.4013
17355TIP3    H173556   1.864   2.277  13.396 -2.3335  1.8643 -2.0563
17355TIP3    H273557   1.846   2.188  13.275 -1.9128  0.4715 -1.1081
17356TIP3   OH273558   4.742   0.090   3.715  0.4375 -0.1814 -0.4883
17356TIP3    H173559   4.772   0.114   3.803  0.3826 -2.6932  0.2668
17356TIP3    H273560   4.690   0.165   3.686  0.2654  0.6067  1.7351
17357TIP3   OH273561   0.570   6.730   6.065 -0.0360  0.0136 -0.1097
17357TIP3    H173562   0.484   6.769   6.050  0.4375  0.4645 -1.7739
17357TIP3    H273563   0.578   6.663   5.997  1.9562  1.7568 -1.6768
17358TIP3   OH273564   1.773   3.114   2.985  0.0083 -0.5418 -0.2115
17358TIP3    H173565   1.772   3.019   2.987 -2.3193 -0.5788 -1.0075
17358TIP3    H273566   1.863   3.137   2.960  0.2247 -2.5592 -1.3923
17359TIP3   OH273567   4.367   5.124   0.359 -0.0503  0.2180  0.0455
17359TIP3    H173568   4.332   5.035   0.357 -1.1118  0.6396 -0.1773
17359TIP3    H273569   4.436   5.123   0.292  1.1285 -0.9004  1.2163
17360TIP3   OH273570   0.847   5.596   3.722  0.0934  0.1157 -0.2971
17360TIP3    H173571   0.863   5.628   3.811 -1.1310 -1.6600  0.6087
17360TIP3    H273572   0.919   5.536   3.704 -1.4422 -2.1606  0.8772
17361TIP3   OH273573   6.770   3.277  12.635  0.1671 -0.0432  0.0501
17361TIP3    H173574   6.777   3.350  12.697 -1.5717  0.0709  0.1428
17361TIP3    H273575   6.718   3.313  12.563  0.3753 -0.8230 -0.4882
17362TIP3   OH273576   6.300   0.251   6.601 -0.4532  0.0230 -0.1035
17362TIP3    H173577   6.230   0.291   6.653 -0.4619  0.1331 -0.1990
17362TIP3    H273578   6.306   0.306   6.523 -1.7603 -1.2545 -1.1252
17363TIP3   OH273579   4.434   1.195  16.557 -0.5231 -0.2932  0.2947
17363TIP3    H173580   4.348   1.235  16.544 -0.1089 -0.2132 -2.6043
17363TIP3    H273581   4.497   1.263  16.532  0.2504 -1.5949 -1.4480
17364TIP3   OH273582   3.283   3.137  17.150 -0.8194  0.1143  0.2455
17364TIP3    H173583   3.286   3.163  17.058  3.3592 -0.5246  0.0991
17364TIP3    H273584   3.265   3.218  17.198 -0.1945  1.0095 -0.9951
17365TIP3   OH273585   3.185   3.062  14.834  0.0679  0.0968  0.4004
17365TIP3    H173586   3.253   3.004  14.801  0.1267  0.7128 -0.5692
17365TIP3    H273587   3.229   3.115  14.901  0.5690  0.5730 -0.3076
17366TIP3   OH273588   0.627   5.594  12.563 -0.9821 -0.7134 -0.6926
17366TIP3    H173589   0.647   5.574  12.471 -2.2770 -0.5347 -1.0298
17366TIP3    H273590   0.602   5.686  12.563  1.7903  0.0734  0.3287
17367TIP3   OH273591   0.313   1.256   5.739  0.2018  0.2789  0.5042
17367TIP3    H173592   0.255   1.189   5.776  1.2685 -1.0536 -0.1921
17367TIP3    H273593   0.257   1.333   5.730 -1.3076 -0.8013  0.4025
17368TIP3   OH273594   2.794   2.784   2.145 -0.7086  0.3169  0.5220
17368TIP3    H173595   2.879   2.746   2.122 -0.2836  0.7940  1.2658
17368TIP3    H273596   2.780   2.853   2.080 -0.9816 -0.3956 -0.1816
17369TIP3   OH273597   4.562   2.681  17.119  0.5290 -0.0303  0.1315
17369TIP3    H173598   4.618   2.686  17.041 -0.7511  0.0018 -0.8066
17369TIP3    H273599   4.515   2.598  17.110  1.1376 -0.5318  1.4199
17370TIP3   OH273600   6.266   2.287  10.730 -0.3111  0.0888 -0.3310
17370TIP3    H173601   6.183   2.313  10.690 -0.2792  0.8843  0.0909
17370TIP3    H273602   6.293   2.365  10.779  0.5351 -0.2708 -0.2297
17371TIP3   OH273603   5.258   0.702  10.654  0.6042  0.2173  0.3906
17371TIP3    H173604   5.240   0.780  10.706 -0.7983 -0.9263  1.6700
17371TIP3    H273605   5.172   0.666  10.634  1.1554  0.0557 -1.8773
17372TIP3   OH273606   1.288   1.503   1.867 -0.9329  0.1957 -0.1794
17372TIP3    H173607   1.286   1.567   1.797 -2.0262 -0.3302 -0.6484
17372TIP3    H273608   1.379   1.502   1.897 -0.8111  1.5877 -0.4998
17373TIP3   OH273609   3.989   2.729   4.653  0.4372 -0.2254 -0.1461
17373TIP3    H173610   4.026   2.658   4.705 -1.0842 -0.3949  0.7137
17373TIP3    H273611   4.061   2.792   4.645  1.0136 -0.6911  1.2563
17374TIP3   OH273612   3.531   5.474   2.395 -0.3075  0.3673 -0.1367
17374TIP3    H173613   3.446   5.512   2.373 -0.3703  0.5948  0.4980
17374TIP3    H273614   3.524   5.449   2.487 -0.0027 -0.4813 -0.3431
17375TIP3   OH273615   2.662   0.376   2.384  0.9127  0.3014 -0.3082
17375TIP3    H173616   2.734   0.313   2.384  0.4559 -0.2319  0.0071
17375TIP3    H273617   2.607   0.349   2.310  0.3844 -0.0699  0.2067
17376TIP3   OH273618   2.514   0.541   5.155 -0.1252 -0.4201 -0.3842
17376TIP3    H173619   2.536   0.614   5.213  0.7517 -0.3930 -0.7534
17376TIP3    H273620   2.425   0.517   5.180 -1.1547  1.9812 -1.4713
17377TIP3   OH273621   3.379   4.517  15.026  0.0046 -0.2287 -0.1800
17377TIP3    H173622   3.425   4.442  15.063 -0.4137  0.0936  1.0305
17377TIP3    H273623   3.447   4.565  14.977  0.8644 -0.0336  1.1623
17378TIP3   OH273624   1.066   1.940  11.170 -0.1530  0.1428 -0.0185
17378TIP3    H173625   1.033   1.988  11.246 -2.8582 -3.4404  1.2520
17378TIP3    H273626   1.157   1.920  11.191 -0.1887  1.2318  1.2082
17379TIP3   OH273627   4.532   6.540   6.352 -0.4387 -0.3621 -0.0515
17379TIP3    H173628   4.588   6.475   6.395 -1.0056 -0.6661  0.2348
17379TIP3    H273629   4.583   6.621   6.354  0.1854 -0.7430 -0.2180
17380TIP3   OH273630   6.081   3.379  12.282 -0.3678 -0.2189 -0.1618
17380TIP3    H173631   6.046   3.402  12.368 -1.2541 -0.2426 -0.5164
17380TIP3    H273632   6.027   3.306  12.251  1.3856 -1.7228  0.2288
17381TIP3   OH273633   3.625   2.615  14.277 -0.3258  0.6541  0.1792
17381TIP3    H173634   3.709   2.592  14.236  0.3299  1.7354  0.8804
17381TIP3    H273635   3.575   2.534  14.276  1.1809 -0.2994  0.8111
17382TIP3   OH273636   3.644   5.092  13.346  0.2263 -0.2023  0.7663
17382TIP3    H173637   3.621   5.179  13.314 -1.6361 -1.1283 -0.5551
17382TIP3    H273638   3.739   5.095  13.359  0.2162  1.9398  0.5346
17383TIP3   OH273639   5.552   4.652   0.051 -0.0708  0.5776  0.1353
17383TIP3    H173640   5.557   4.592   0.125  0.6655  1.7284  1.0431
17383TIP3    H273641   5.478   4.620  -0.001 -0.1075 -0.6990  0.9580
17384TIP3   OH273642   2.153   5.406  12.805  0.1865 -0.0081 -0.2503
17384TIP3    H173643   2.140   5.324  12.759 -0.6504 -0.3072  0.5024
17384TIP3    H273644   2.247   5.424  12.797  0.6197 -1.7604  0.7981
17385TIP3   OH273645   5.217   2.740   3.921  0.2040  0.6231 -0.0746
17385TIP3    H173646   5.135   2.691   3.927 -0.1667  1.1390 -0.8568
17385TIP3    H273647   5.247   2.727   3.831  0.8881  0.5875  0.1559
17386TIP3   OH273648   0.827   5.845  14.068 -0.6272  0.4698  0.0547
17386TIP3    H173649   0.890   5.873  14.001 -1.2871  0.8305 -0.4242
17386TIP3    H273650   0.741   5.864  14.029 -1.1221 -2.3979 -0.3586
17387TIP3   OH273651   6.278   3.680   4.539  0.1282 -0.2466  0.4887
17387TIP3    H173652   6.336   3.742   4.494 -0.6340 -0.6024 -0.9911
17387TIP3    H273653   6.335   3.606   4.560  0.8991  0.6727  1.7086
17388TIP3   OH273654   5.449   3.555  16.929  0.0449  0.1408  0.1567
17388TIP3    H173655   5.389   3.486  16.899  2.2865 -1.6581 -0.2873
17388TIP3    H273656   5.423   3.570  17.020 -1.6679  0.0346 -0.2850
17389TIP3   OH273657   4.850   2.249  15.794  0.0173  0.2237  0.0552
17389TIP3    H173658   4.844   2.175  15.733  1.7040 -0.0893  0.2343
17389TIP3    H273659   4.831   2.210  15.880  0.9249 -0.0154  0.1526
17390TIP3   OH273660   4.113   4.990   3.128 -0.1180 -0.8773  0.4030
17390TIP3    H173661   4.036   5.029   3.087  0.5516 -1.0153 -0.9887
17390TIP3    H273662   4.096   4.896   3.126 -0.4409 -0.8407  1.1745
17391TIP3   OH273663   5.464   1.583  12.763  0.5010  0.5818  0.0750
17391TIP3    H173664   5.409   1.506  12.776  0.5103  0.0419 -2.6887
17391TIP3    H273665   5.544   1.565  12.811  0.0300 -0.6069  0.4227
17392TIP3   OH273666   4.135   1.776   4.943 -0.3105 -0.2294  0.6135
17392TIP3    H173667   4.216   1.747   4.901  0.0713 -1.0996  1.9253
17392TIP3    H273668   4.073   1.705   4.926 -0.8390  0.4608 -0.4395
17393TIP3   OH273669   2.254   0.415  13.482 -0.1744  0.6068 -0.1304
17393TIP3    H173670   2.270   0.325  13.453 -0.4147  0.4752  0.1456
17393TIP3    H273671   2.275   0.469  13.406 -1.1890  0.2328 -0.6797
17394TIP3   OH273672   6.558   2.480  15.095 -0.2716  0.0479 -0.1121
17394TIP3    H173673   6.623   2.436  15.150 -1.0764  0.8246  1.5204
17394TIP3    H273674   6.544   2.421  15.022  0.8685 -1.0061  0.5033
17395TIP3   OH273675   3.077   6.293  13.941 -0.4610 -0.0680  0.0023
17395TIP3    H173676   3.105   6.344  13.865  0.3616  1.4196  1.2877
17395TIP3    H273677   3.063   6.204  13.906  3.3504 -0.2779 -1.2052
17396TIP3   OH273678   4.453   3.085  14.695  0.0112 -0.2394  0.3745
17396TIP3    H173679   4.530   3.138  14.676  0.5607 -0.9271  0.6658
17396TIP3    H273680   4.453   3.077  14.791 -0.6155  0.0414  0.4022
17397TIP3   OH273681   4.772   0.786   2.021  0.7133  0.1833 -0.6430
17397TIP3    H173682   4.772   0.751   1.931 -1.6358 -1.8259  0.0798
17397TIP3    H273683   4.682   0.816   2.034  0.7830 -0.4346  1.3685
17398TIP3   OH273684   6.734   3.908   0.335  0.4782 -0.1338 -0.0241
17398TIP3    H173685   6.757   3.816   0.325 -1.3034 -0.6905  0.7345
17398TIP3    H273686   6.730   3.922   0.430  2.3938  1.1726 -0.1116
17399TIP3   OH273687   3.447   3.555  14.776  0.0202  0.1151 -0.4671
17399TIP3    H173688   3.391   3.554  14.854  0.2444  0.8730 -0.2901
17399TIP3    H273689   3.510   3.485  14.790 -0.1237  0.0583 -0.1035
17400TIP3   OH273690   3.087   2.769   1.607  0.2331  0.0336 -0.5411
17400TIP3    H173691   3.043   2.829   1.547  2.0278  1.5061 -0.4489
17400TIP3    H273692   3.141   2.714   1.550  1.0368  0.6469 -0.3730
17401TIP3   OH273693   0.005   3.044   4.927 -0.6762 -0.1578 -0.3603
17401TIP3    H173694   0.096   3.021   4.908 -0.4659  1.0251 -0.8362
17401TIP3    H273695  -0.038   3.039   4.841 -0.4630  1.9288 -0.5969
17402TIP3   OH273696   5.573   2.887   2.632 -0.1332 -0.1806 -0.4076
17402TIP3    H173697   5.483   2.863   2.653 -0.3028  1.0001  0.2598
17402TIP3    H273698   5.625   2.845   2.700 -0.2987  0.1901 -0.0518
17403TIP3   OH273699   1.823   4.085  15.710 -0.4992  0.0105  0.0188
17403TIP3    H173700   1.821   4.111  15.803  0.1537 -0.6957  0.2295
17403TIP3    H273701   1.740   4.117  15.675 -0.4862  0.8184  0.7040
17404TIP3   OH273702   1.680   4.854   2.470  0.2793 -0.0166 -0.0002
17404TIP3    H173703   1.602   4.859   2.414  1.0109  0.0748 -1.0144
17404TIP3    H273704   1.753   4.842   2.410  1.0944  0.2009  0.9240
17405TIP3   OH273705   5.632   0.551  12.518 -0.1383  0.8583 -0.3267
17405TIP3    H173706   5.723   0.539  12.492  0.2161  2.7934 -0.0573
17405TIP3    H273707   5.632   0.542  12.613 -0.6556 -1.5764 -0.5343
17406TIP3   OH273708   5.892   4.331  11.283 -0.1874 -0.3793 -0.3478
17406TIP3    H173709   5.849   4.415  11.299 -0.8144 -0.6740 -0.4393
17406TIP3    H273710   5.964   4.352  11.223  0.3743  0.2634  0.5405
17407TIP3   OH273711   3.017   4.161   4.182 -1.2186  0.0341 -0.0618
17407TIP3    H173712   2.969   4.243   4.170 -1.8228 -0.3281 -0.1223
17407TIP3    H273713   3.077   4.157   4.107 -0.4274  0.9337  0.4979
17408TIP3   OH273714   4.004   0.399   1.297  0.3354  0.5549 -0.1795
17408TIP3    H173715   3.977   0.397   1.389  0.8375  2.0550  0.0147
17408TIP3    H273716   3.980   0.487   1.267  0.1344  0.0630 -1.4993
17409TIP3   OH273717   3.339   0.273  14.911 -0.4106  0.7108  0.2876
17409TIP3    H173718   3.381   0.335  14.970 -0.6147  1.4199 -0.3081
17409TIP3    H273719   3.374   0.188  14.936  1.5940  1.3182 -0.3896
17410TIP3   OH273720   2.172   0.421   1.217  0.2572 -0.1702 -0.4355
17410TIP3    H173721   2.196   0.503   1.173  0.5285 -0.0859 -0.1356
17410TIP3    H273722   2.133   0.367   1.149 -0.0525  0.2660 -0.6091
17411TIP3   OH273723   1.593   2.056   2.698  0.6080 -0.4622 -0.3628
17411TIP3    H173724   1.541   1.977   2.687 -0.1369 -0.1589  0.8295
17411TIP3    H273725   1.605   2.090   2.610  1.0239 -1.9600 -0.8828
17412TIP3   OH273726   2.861   0.314   6.698  0.1684  0.2206  0.0282
17412TIP3    H173727   2.955   0.331   6.696  0.3349 -0.5956  0.5550
17412TIP3    H273728   2.821   0.401   6.694  0.9775  0.7378  2.0493
17413TIP3   OH273729   6.365   6.415  15.406 -0.5900 -0.4786 -0.5678
17413TIP3    H173730   6.316   6.488  15.370 -0.6564 -0.0427  0.3824
17413TIP3    H273731   6.424   6.388  15.336 -1.7056 -0.5656 -1.4875
17414TIP3   OH273732   5.099   4.904   4.416 -0.3989 -0.3138  0.2449
17414TIP3    H173733   5.037   4.969   4.384 -0.4166  0.1604  1.2259
17414TIP3    H273734   5.157   4.887   4.342  0.1349  1.4441  0.2512
17415TIP3   OH273735   0.247   5.236  16.097 -0.0118  0.8156  0.0977
17415TIP3    H173736   0.238   5.167  16.162 -1.3192  2.2399  1.4793
17415TIP3    H273737   0.335   5.224  16.060  0.1556 -0.9372  1.0374
17416TIP3   OH273738   5.645   2.367   2.140 -0.3914 -0.1689 -0.0423
17416TIP3    H173739   5.595   2.291   2.111 -1.1862  0.7080 -1.0120
17416TIP3    H273740   5.585   2.413   2.199 -0.4350  0.4619 -0.5789
17417TIP3   OH273741   6.406   0.928   3.943  0.4015 -0.3088 -0.0595
17417TIP3    H173742   6.422   0.853   3.887  0.7289  0.2432 -0.7087
17417TIP3    H273743   6.457   0.999   3.904 -0.6325  0.4888  0.0160
17418TIP3   OH273744   4.645   3.172   5.723  0.2016 -0.0328 -0.0195
17418TIP3    H173745   4.579   3.168   5.653 -0.9946 -0.5418  1.1134
17418TIP3    H273746   4.685   3.085   5.722 -1.0428 -0.6365  1.0732
17419TIP3   OH273747   4.060   2.757   6.620 -0.8497 -0.3173  0.3804
17419TIP3    H173748   3.995   2.822   6.592 -0.5527  0.3912  1.3177
17419TIP3    H273749   4.009   2.681   6.645 -1.3411  0.3455  1.4112
17420TIP3   OH273750   3.577   6.321   5.064 -0.4969  0.3359 -0.4774
17420TIP3    H173751   3.548   6.261   5.133 -0.8244 -0.7311 -1.5259
17420TIP3    H273752   3.672   6.325   5.074 -0.5441  0.2147  0.0520
17421TIP3   OH273753   6.132   0.328   1.271 -0.2079 -0.1378 -0.2953
17421TIP3    H173754   6.195   0.342   1.341 -2.0702 -0.5696  1.5089
17421TIP3    H273755   6.106   0.416   1.243  0.3182  0.0327 -0.2482
17422TIP3   OH273756   1.890   1.112   1.234 -0.9621  0.2078  0.2796
17422TIP3    H173757   1.897   1.019   1.212 -1.1373  0.0518  0.8693
17422TIP3    H273758   1.933   1.158   1.162 -1.0262 -0.3243 -0.0945
17423TIP3   OH273759   3.389   5.091   5.552 -0.1396 -0.2497 -0.0711
17423TIP3    H173760   3.373   5.011   5.604  1.3064 -1.0175 -0.7613
17423TIP3    H273761   3.423   5.154   5.616 -1.3880 -0.1364  0.4988
17424TIP3   OH273762   1.268   6.406  14.591  0.6097  0.0061  0.2364
17424TIP3    H173763   1.294   6.489  14.630  1.1901  1.4119 -3.0225
17424TIP3    H273764   1.337   6.345  14.618  1.6824  1.2304  0.3112
17425TIP3   OH273765   4.280   2.983  16.029 -0.2184 -0.6852  0.1115
17425TIP3    H173766   4.320   2.901  16.003  0.6682 -0.3636  0.4153
17425TIP3    H273767   4.349   3.029  16.076 -0.4715  0.5486 -0.6973
17426TIP3   OH273768   6.194   0.140  12.561  0.1145  0.3321 -0.3015
17426TIP3    H173769   6.206   0.069  12.499 -0.2590  0.6948 -0.7891
17426TIP3    H273770   6.101   0.160  12.558  0.1236  0.4607  0.2530
17427TIP3   OH273771   1.568   5.937  13.502  0.4269  0.7111  0.0754
17427TIP3    H173772   1.564   6.018  13.552  0.0610  0.9785 -0.3810
17427TIP3    H273773   1.502   5.948  13.433  1.4927  0.6817 -0.9729
17428TIP3   OH273774   5.441   6.269  12.295  0.4745 -0.1018  0.2103
17428TIP3    H173775   5.390   6.217  12.232 -0.7495  0.5230  0.6632
17428TIP3    H273776   5.530   6.268  12.260  0.1064 -0.9914 -0.7478
17429TIP3   OH273777   5.172   6.748  13.067 -0.0151  0.4282 -0.2838
17429TIP3    H173778   5.237   6.715  13.129 -0.7374  1.3785  1.0131
17429TIP3    H273779   5.091   6.702  13.089 -0.3701  1.0497 -0.2728
17430TIP3   OH273780   4.100   1.467   3.632  0.3247  0.1726  0.2839
17430TIP3    H173781   4.066   1.516   3.707 -0.0456  1.1459 -0.5154
17430TIP3    H273782   4.048   1.387   3.630 -1.3408  1.2376 -0.3814
17431TIP3   OH273783   5.080   5.112   0.452 -0.3172  0.0227 -0.4471
17431TIP3    H173784   5.149   5.172   0.423 -0.9126  0.2265 -1.4559
17431TIP3    H273785   5.118   5.025   0.440 -0.7507  0.0856 -2.3666
17432TIP3   OH273786   6.094   0.412  13.845 -0.1276 -0.5195 -0.6511
17432TIP3    H173787   6.152   0.338  13.863  0.0268 -0.3262 -0.3535
17432TIP3    H273788   6.034   0.414  13.920  1.1750  0.9327  0.3931
17433TIP3   OH273789   5.933   5.293   2.963  0.2848 -0.4183 -0.0914
17433TIP3    H173790   5.895   5.327   2.882  3.2203  2.7296 -0.2488
17433TIP3    H273791   6.027   5.298   2.950  0.8248 -2.3754  2.5403
17434TIP3   OH273792   3.052   1.784   3.131 -0.0611  0.3177  0.1379
17434TIP3    H173793   3.063   1.873   3.098 -1.2537 -0.0259 -1.2650
17434TIP3    H273794   2.969   1.786   3.178  0.9379  0.4446  1.9324
17435TIP3   OH273795   6.440   2.848   2.415 -0.4390 -0.3256 -0.1319
17435TIP3    H173796   6.494   2.788   2.364 -0.5767 -2.4927  2.1637
17435TIP3    H273797   6.498   2.880   2.484 -0.8246  0.9504 -0.3773
17436TIP3   OH273798   5.111   5.477  12.787 -0.9621  0.2101 -0.1435
17436TIP3    H173799   5.028   5.517  12.812 -0.7022  0.4546  0.3412
17436TIP3    H273800   5.087   5.402  12.734 -1.4928  0.3037 -0.0338
17437TIP3   OH273801   4.458   6.087   4.799 -0.0811  0.2374 -0.4330
17437TIP3    H173802   4.417   6.003   4.780 -0.9630  0.5229  0.1996
17437TIP3    H273803   4.483   6.080   4.892 -0.3501  0.7530 -0.3217
17438TIP3   OH273804   3.136   2.607   5.060 -0.3558  0.4935  0.3882
17438TIP3    H173805   3.201   2.539   5.042 -1.6026 -0.6838  0.3040
17438TIP3    H273806   3.176   2.687   5.026  0.5708 -0.4126 -0.7150
17439TIP3   OH273807   4.576   2.691   3.952 -1.1790  0.0513 -0.5992
17439TIP3    H173808   4.645   2.648   3.902 -0.6245  0.2924 -0.0530
17439TIP3    H273809   4.554   2.769   3.901  0.0698  0.8179  0.0071
17440TIP3   OH273810   1.048   0.587  15.652 -1.1612 -0.3372  0.2638
17440TIP3    H173811   1.079   0.571  15.563  0.3142  1.1352  0.4875
17440TIP3    H273812   1.113   0.547  15.708 -0.0118  2.0845  0.7270
17441TIP3   OH273813   5.499   5.241  11.736 -0.0702 -0.1492  0.3352
17441TIP3    H173814   5.527   5.156  11.702  0.7552  0.0126  0.6215
17441TIP3    H273815   5.506   5.232  11.832  1.1146  0.6267  0.3209
17442TIP3   OH273816   6.361   5.677   2.559 -0.2592 -0.0757 -0.2072
17442TIP3    H173817   6.393   5.765   2.539 -1.4649 -0.1610 -2.6782
17442TIP3    H273818   6.276   5.691   2.601 -0.6774 -0.0580 -1.0490
17443TIP3   OH273819   6.028   5.084  14.416 -0.2526  0.0108 -0.4157
17443TIP3    H173820   6.095   5.029  14.457  1.0780 -0.1918 -2.7318
17443TIP3    H273821   6.000   5.144  14.484  0.5451 -1.5179  1.2854
17444TIP3   OH273822   5.424   3.314   5.396 -0.0804 -0.1011 -0.3438
17444TIP3    H173823   5.381   3.230   5.380 -1.3085  0.3872  0.3324
17444TIP3    H273824   5.376   3.352   5.469  0.7179  1.0196 -0.3927
17445TIP3   OH273825   1.673   3.324   2.628 -0.0305 -0.0304 -0.0795
17445TIP3    H173826   1.615   3.341   2.703 -0.0578  0.5920 -0.2393
17445TIP3    H273827   1.697   3.232   2.637 -1.4511 -0.4452 -0.2799
17446TIP3   OH273828   4.303   1.348   6.438  0.0865  0.0224 -0.0951
17446TIP3    H173829   4.273   1.421   6.491 -2.4367 -0.0833 -1.3100
17446TIP3    H273830   4.363   1.300   6.495 -1.8558  0.4070  2.3527
17447TIP3   OH273831   2.017   1.846  15.718  0.0224  0.2324  0.6168
17447TIP3    H173832   2.095   1.824  15.666 -0.4238 -1.2018  0.5414
17447TIP3    H273833   2.041   1.825  15.808  0.9430  3.1081  1.1109
17448TIP3   OH273834   0.059   0.484  15.867 -0.2906  0.1091 -0.0988
17448TIP3    H173835   0.019   0.513  15.784 -2.5730  0.8823  1.2352
17448TIP3    H273836   0.117   0.556  15.891 -2.9633  1.9453  1.1706
17449TIP3   OH273837   2.850   5.418   4.176 -0.1023 -0.1448 -0.1215
17449TIP3    H173838   2.794   5.468   4.116 -0.7185 -0.2531  0.3619
17449TIP3    H273839   2.856   5.473   4.254  0.7717  0.0361 -0.3097
17450TIP3   OH273840   3.212   3.650  11.914 -0.2793  0.1261  0.0583
17450TIP3    H173841   3.186   3.564  11.880  0.0583 -0.5512  1.4800
17450TIP3    H273842   3.263   3.689  11.843  1.0328 -1.5698  0.0426
17451TIP3   OH273843   2.518   1.222   2.464  0.4369  0.4000 -0.0957
17451TIP3    H173844   2.559   1.136   2.453  0.7509  0.9371 -3.7189
17451TIP3    H273845   2.447   1.207   2.527  0.2394 -2.5808 -0.9459
17452TIP3   OH273846   4.189   1.739  12.439 -0.2065 -0.3235 -0.3030
17452TIP3    H173847   4.116   1.730  12.501 -0.5892  0.3667 -0.6568
17452TIP3    H273848   4.223   1.827  12.454  0.1545 -0.4157 -0.5838
17453TIP3   OH273849   0.816   2.070  11.294  0.0254  0.0386  0.6000
17453TIP3    H173850   0.793   2.078  11.201 -1.1064  1.0117  0.9597
17453TIP3    H273851   0.736   2.091  11.341  1.0836  1.3827  1.8351
17454TIP3   OH273852   4.042   1.728   2.323 -0.2583 -0.5621 -0.3095
17454TIP3    H173853   4.135   1.749   2.334 -0.6116  0.2129  1.4771
17454TIP3    H273854   4.027   1.730   2.229  1.2238  0.6877 -0.5311
17455TIP3   OH273855   3.673   0.207   6.265  0.1469  0.1481 -0.0324
17455TIP3    H173856   3.646   0.128   6.311  1.1526  0.0427  0.4150
17455TIP3    H273857   3.699   0.177   6.178 -0.8642  0.2064 -0.3562
17456TIP3   OH273858   2.237   5.383   4.414  0.1418 -0.2255  0.0136
17456TIP3    H173859   2.142   5.388   4.425  0.1692 -0.8628  0.5482
17456TIP3    H273860   2.255   5.442   4.340 -0.5860  0.4240  0.3419
17457TIP3   OH273861   1.448   2.947  15.381 -0.3726  0.3637  0.5068
17457TIP3    H173862   1.434   2.925  15.289  0.1177  0.9006  0.3086
17457TIP3    H273863   1.387   3.018  15.398 -0.4111  0.3133  0.5796
17458TIP3   OH273864   4.796   3.081   3.560 -0.4388 -0.4037 -1.2785
17458TIP3    H173865   4.777   3.161   3.608  0.7837 -0.2508 -1.0191
17458TIP3    H273866   4.741   3.014   3.601 -1.6454  0.3446 -1.6594
17459TIP3   OH273867   4.373   5.932   0.690 -0.3134 -0.9947 -0.2382
17459TIP3    H173868   4.336   6.018   0.711  0.4340 -0.5358 -0.8038
17459TIP3    H273869   4.331   5.907   0.608  0.4119 -0.6111 -0.7224
17460TIP3   OH273870   4.124   0.088  15.422 -0.1867 -0.3613  0.7496
17460TIP3    H173871   4.077   0.117  15.501 -1.5352  0.2311 -0.2666
17460TIP3    H273872   4.130   0.166  15.367  0.4583 -0.8523  0.1177
17461TIP3   OH273873   6.800   0.881   0.609  0.1022 -0.0361 -0.2787
17461TIP3    H173874   6.868   0.943   0.631  1.4353 -1.2217 -0.9490
17461TIP3    H273875   6.755   0.864   0.692 -0.7118  2.2754 -0.2085
17462TIP3   OH273876   5.807   2.347  12.523 -0.2157 -0.4095 -0.1156
17462TIP3    H173877   5.813   2.260  12.563 -1.1708  0.1723  1.3253
17462TIP3    H273878   5.749   2.396  12.581 -0.1147  1.0365 -1.2120
17463TIP3   OH273879   2.755   3.307  12.124  0.1887 -0.1432  0.1058
17463TIP3    H173880   2.688   3.322  12.190 -1.5154  3.2871 -2.2835
17463TIP3    H273881   2.832   3.354  12.156 -0.0484 -0.0682  0.5623
17464TIP3   OH273882   5.606   4.924  16.667  0.4090 -0.4270  0.1570
17464TIP3    H173883   5.688   4.875  16.672  1.0645  0.6852  0.3131
17464TIP3    H273884   5.560   4.886  16.592  1.9539  0.2839 -1.1891
17465TIP3   OH273885   2.324   5.990   5.009 -0.2496  0.3923  0.0115
17465TIP3    H173886   2.244   5.945   4.982  0.3817 -0.4756 -0.4385
17465TIP3    H273887   2.392   5.953   4.953  0.1534  2.5302 -0.9521
17466TIP3   OH273888   5.329   5.858  12.323  0.4348 -0.6011 -0.6709
17466TIP3    H173889   5.238   5.850  12.295  0.7124 -0.2551 -1.6973
17466TIP3    H273890   5.340   5.792  12.392 -0.8597  0.0363  0.1528
17467TIP3   OH273891   0.641   6.633  13.019 -0.1767 -0.5166 -0.4744
17467TIP3    H173892   0.623   6.614  12.926  1.9609 -0.1273 -1.0033
17467TIP3    H273893   0.638   6.547  13.061 -0.6925 -0.7601 -0.9935
17468TIP3   OH273894   0.552   5.511  14.363 -0.2870  0.1127  0.1698
17468TIP3    H173895   0.487   5.574  14.394 -0.2826  0.7424 -1.0495
17468TIP3    H273896   0.621   5.565  14.323 -0.5162 -0.6613 -1.3249
17469TIP3   OH273897   6.535   6.175   5.660  0.1763  0.2833 -0.0997
17469TIP3    H173898   6.543   6.170   5.755  1.2921  1.8189 -0.0890
17469TIP3    H273899   6.445   6.204   5.644  0.3791  1.2612  0.5380
17470TIP3   OH273900   5.770   2.287  14.762  0.3687 -1.0289  0.2887
17470TIP3    H173901   5.726   2.226  14.822 -0.7851 -1.7498 -1.2298
17470TIP3    H273902   5.771   2.240  14.678 -0.0913  0.8415 -0.7938
17471TIP3   OH273903   2.105   2.727  17.107 -0.0676  0.1855  0.2165
17471TIP3    H173904   2.183   2.738  17.163 -0.1398  0.2904  0.2946
17471TIP3    H273905   2.089   2.632  17.109 -0.6123  0.2869  1.1104
17472TIP3   OH273906   6.472   5.906   0.356 -0.3152  0.2203  0.0953
17472TIP3    H173907   6.446   5.991   0.320 -1.9644  0.5056  1.9168
17472TIP3    H273908   6.502   5.925   0.444  1.4854 -0.8028 -0.2614
17473TIP3   OH273909   3.267   4.733   3.323 -0.1899 -0.6140 -0.7716
17473TIP3    H173910   3.254   4.786   3.245 -1.0738 -0.5278 -0.5770
17473TIP3    H273911   3.321   4.787   3.381  0.9758 -0.9178 -1.5542
17474TIP3   OH273912   3.471   6.067  16.505  0.0820 -0.9377 -0.7393
17474TIP3    H173913   3.409   6.125  16.462 -0.1084 -0.0918  0.6319
17474TIP3    H273914   3.429   5.981  16.505 -0.8149 -0.4986 -0.3645
17475TIP3   OH273915   3.263   2.104  17.229  0.3393  0.1474 -0.2440
17475TIP3    H173916   3.337   2.101  17.167  0.9059  0.5890  0.4022
17475TIP3    H273917   3.303   2.095  17.315 -0.4375 -0.3055  0.0723
17476TIP3   OH273918   3.230   3.701   2.214 -0.2296 -0.4439 -0.2018
17476TIP3    H173919   3.164   3.632   2.207 -0.8752  0.0535  1.0027
17476TIP3    H273920   3.305   3.657   2.255 -0.5557 -0.4909  0.3477
17477TIP3   OH273921   1.591   1.816   2.028  0.5535  0.1617 -0.4143
17477TIP3    H173922   1.593   1.720   2.021 -0.7678 -0.1894  3.0591
17477TIP3    H273923   1.650   1.835   2.101 -2.4167  1.6446  1.6435
17478TIP3   OH273924   0.876   5.351  14.712  0.4382 -0.1291 -0.2296
17478TIP3    H173925   0.783   5.336  14.725  0.4606 -0.4844 -0.4859
17478TIP3    H273926   0.883   5.390  14.625  0.5903 -0.7552 -0.5037
17479TIP3   OH273927   5.342   4.089   0.555  0.6252 -0.0382  0.2111
17479TIP3    H173928   5.418   4.081   0.612 -0.7246 -0.8696  1.9635
17479TIP3    H273929   5.324   3.999   0.527 -0.3142  0.0179  0.6248
17480TIP3   OH273930   5.715   3.975   1.679  0.2525  0.9400 -0.0232
17480TIP3    H173931   5.766   4.046   1.639  0.0627  0.3803 -1.3079
17480TIP3    H273932   5.781   3.910   1.705  0.1723 -0.5868 -3.2869
17481TIP3   OH273933   0.080   3.375   4.919  0.2755 -0.5836  0.1199
17481TIP3    H173934   0.126   3.316   4.978 -0.5795 -2.2741 -0.8620
17481TIP3    H273935   0.132   3.374   4.839 -1.9927 -3.4400 -1.4237
17482TIP3   OH273936   3.194   4.602  17.016 -0.0377 -0.1082 -0.1399
17482TIP3    H173937   3.100   4.610  17.029 -0.1632  0.0587 -1.1229
17482TIP3    H273938   3.225   4.693  17.011 -0.1426 -0.1594 -2.0007
17483TIP3   OH273939   0.593   1.388  11.697  0.1189  0.4803 -0.4545
17483TIP3    H173940   0.666   1.427  11.648 -0.0223  0.4065 -0.7208
17483TIP3    H273941   0.631   1.366  11.782  0.9064 -1.3351 -1.2601
17484TIP3   OH273942   4.600   2.885   0.212 -1.1286 -0.1553  0.2018
17484TIP3    H173943   4.615   2.868   0.305  0.4064  0.7773  0.1480
17484TIP3    H273944   4.507   2.865   0.198 -1.5278  0.3033  2.0714
17485TIP3   OH273945   5.854   2.467  15.756 -0.3821  0.1838  0.2160
17485TIP3    H173946   5.761   2.479  15.779 -0.1360 -0.1331  1.4357
17485TIP3    H273947   5.874   2.378  15.786 -0.1372 -0.4047 -1.6398
17486TIP3   OH273948   4.942   3.062   3.078  0.1176  0.4185 -0.2166
17486TIP3    H173949   4.919   3.031   3.165 -0.5624 -0.6321 -0.7622
17486TIP3    H273950   4.872   3.028   3.021  0.5840  1.0394 -1.1795
17487TIP3   OH273951   6.148   6.432   1.122 -0.6893  0.1809 -0.5261
17487TIP3    H173952   6.175   6.347   1.087  0.3407  0.6226 -0.8017
17487TIP3    H273953   6.056   6.419   1.147 -1.1906 -0.3874 -2.6029
17488TIP3   OH273954   6.621   3.370   1.032  0.2900  0.0121  0.2274
17488TIP3    H173955   6.618   3.412   1.118  1.7404 -0.2830  0.4310
17488TIP3    H273956   6.672   3.430   0.978  0.5098 -0.4462 -0.0690
17489TIP3   OH273957   3.030   4.520  15.846 -0.1601  0.0413  0.0723
17489TIP3    H173958   2.939   4.549  15.847 -0.6649 -1.4908  0.0819
17489TIP3    H273959   3.075   4.579  15.905 -1.2009  0.6714  0.2414
17490TIP3   OH273960   2.961   1.749  14.128  0.0047 -0.3252  0.2346
17490TIP3    H173961   2.916   1.718  14.050 -0.5235 -2.2702  1.2698
17490TIP3    H273962   3.053   1.751  14.103 -0.4111  1.4821 -1.1966
17491TIP3   OH273963   0.277   2.609  11.058  0.7385 -0.4736  0.3591
17491TIP3    H173964   0.328   2.587  11.136  0.1129 -1.0934  0.6007
17491TIP3    H273965   0.185   2.601  11.086  0.5059  0.0731 -0.2213
17492TIP3   OH273966   4.691   0.913  10.654  0.2071  0.1882 -0.0059
17492TIP3    H173967   4.731   0.978  10.712  0.9933  2.0979 -2.5902
17492TIP3    H273968   4.764   0.878  10.603 -0.8569  0.7394 -1.9411
17493TIP3   OH273969   1.877   5.980  15.703  0.4360 -0.3563  0.0055
17493TIP3    H173970   1.799   6.008  15.752  0.8144 -0.0202  0.4104
17493TIP3    H273971   1.931   5.935  15.768  1.5936  1.3266  0.2305
17494TIP3   OH273972   0.520   3.324  13.280  0.5335 -0.2275  0.5659
17494TIP3    H173973   0.552   3.339  13.369  0.4521 -0.4827  0.6367
17494TIP3    H273974   0.516   3.412  13.241  1.2574 -0.1853  0.5749
17495TIP3   OH273975   2.105   5.580   5.838  0.0315 -0.1130 -0.0634
17495TIP3    H173976   2.150   5.665   5.839  0.7554 -0.5030  0.6674
17495TIP3    H273977   2.176   5.515   5.833 -0.5423 -0.6576 -1.5376
17496TIP3   OH273978   0.441   6.652  16.705 -0.5473 -0.0102  0.5376
17496TIP3    H173979   0.396   6.568  16.713 -1.5214  0.4460 -0.0608
17496TIP3    H273980   0.373   6.717  16.719  0.4695  0.6846  2.3560
17497TIP3   OH273981   6.128   1.570   3.699 -0.1719 -0.6643  0.0817
17497TIP3    H173982   6.197   1.564   3.633  0.4613 -2.2172  0.8578
17497TIP3    H273983   6.127   1.484   3.741 -2.5837 -0.6828  0.0866
17498TIP3   OH273984   5.707   3.799   1.384  0.1000  0.1022  0.2026
17498TIP3    H173985   5.663   3.744   1.448  0.6836 -0.7022 -0.0822
17498TIP3    H273986   5.696   3.752   1.301  1.1555  0.0814  0.0622
17499TIP3   OH273987   1.357   0.985   0.649 -0.6699  0.0422  0.3971
17499TIP3    H173988   1.323   0.948   0.567 -3.0211  1.3320  0.7359
17499TIP3    H273989   1.437   1.031   0.624 -1.9977  1.4299 -1.4151
17500TIP3   OH273990   1.493   1.153  15.424  0.2663  0.1769  0.3592
17500TIP3    H173991   1.451   1.220  15.478  0.0633  0.4856 -0.1751
17500TIP3    H273992   1.424   1.125  15.363 -0.0389 -1.4518  1.4196
17501TIP3   OH273993   2.918   0.616   0.507 -0.0204 -0.5372  0.5346
17501TIP3    H173994   2.904   0.665   0.426  0.3335 -0.1867  0.6852
17501TIP3    H273995   2.935   0.526   0.478  0.4042 -0.3521  0.2010
17502TIP3   OH273996   5.356   0.456   6.492 -0.8280  0.1574 -0.6059
17502TIP3    H173997   5.314   0.520   6.435  0.8525  0.1565 -1.9118
17502TIP3    H273998   5.319   0.372   6.465 -1.3118  0.3378 -0.5052
17503TIP3   OH273999   2.650   3.126  15.006 -0.5214  0.6041 -0.3048
17503TIP3    H174000   2.648   3.159  14.916  0.6853  1.5078 -0.0264
17503TIP3    H274001   2.652   3.031  14.997  0.4702  0.7023 -1.2716
17504TIP3   OH274002   5.561   3.727   2.986  0.1357 -0.0332 -0.0636
17504TIP3    H174003   5.514   3.805   3.015  1.0319 -0.4223  2.5309
17504TIP3    H274004   5.603   3.693   3.065  3.8924 -0.3314 -2.1050
17505TIP3   OH274005   3.433   2.101  13.297 -0.2236 -0.1339 -0.5295
17505TIP3    H174006   3.393   2.045  13.231 -1.5609  0.8150 -0.5540
17505TIP3    H274007   3.379   2.088  13.375  1.3235 -1.2201  0.3759
17506TIP3   OH274008   5.948   1.522   5.527 -0.1918  0.2736  0.4797
17506TIP3    H174009   5.911   1.434   5.532  1.1563 -0.3463 -0.1886
17506TIP3    H274010   5.889   1.569   5.469 -0.2039 -0.5573 -0.1896
17507TIP3   OH274011   2.355   1.590   2.592 -0.0788  0.1895 -0.1000
17507TIP3    H174012   2.284   1.526   2.593  0.1564 -0.0757 -0.2718
17507TIP3    H274013   2.422   1.551   2.536  0.4143  0.2110  0.4636
17508TIP3   OH274014   0.778   2.052  14.588  0.5204  0.2083  0.8742
17508TIP3    H174015   0.779   1.991  14.514  1.8967  0.9531  0.2587
17508TIP3    H274016   0.709   2.019  14.645  0.0746 -0.9247 -0.2888
17509TIP3   OH274017   1.605   4.957  12.133 -0.0447  0.1845 -0.2107
17509TIP3    H174018   1.698   4.944  12.147  0.1278  0.9437 -0.6295
17509TIP3    H274019   1.593   5.052  12.131 -0.2808  0.1487 -3.5524
17510TIP3   OH274020   5.614   3.039   2.940 -0.4483  0.1766 -0.0854
17510TIP3    H174021   5.644   3.123   2.904  0.7197 -0.7234 -1.2399
17510TIP3    H274022   5.645   3.040   3.031  0.2683  0.6376 -0.3319
17511TIP3   OH274023   5.918   0.814  15.336 -0.4198 -0.0040  0.4309
17511TIP3    H174024   5.823   0.805  15.343 -0.3842 -1.1250 -0.2281
17511TIP3    H274025   5.944   0.867  15.411 -1.6774  1.1385  0.0757
17512TIP3   OH274026   4.695   2.677  12.015  0.7543  0.0035  0.5828
17512TIP3    H174027   4.622   2.691  12.076  2.9882  4.2070  2.4275
17512TIP3    H274028   4.667   2.722  11.935  0.3713 -0.3462  0.5167
17513TIP3   OH274029   0.456   5.741  15.463 -0.4989 -0.3942 -0.5452
17513TIP3    H174030   0.474   5.665  15.407  2.4233 -0.2548  0.1033
17513TIP3    H274031   0.422   5.703  15.544 -1.1976 -0.8582 -1.0500
17514TIP3   OH274032   5.722   0.477   5.540  0.2118  0.0445 -0.0384
17514TIP3    H174033   5.642   0.467   5.488 -0.8912  0.2360  1.5806
17514TIP3    H274034   5.716   0.565   5.576  1.5588  0.3546 -0.5266
17515TIP3   OH274035   0.925   5.312   3.388  0.0197 -0.2763  0.4781
17515TIP3    H174036   0.995   5.334   3.450 -0.1553  0.8536  0.2744
17515TIP3    H274037   0.903   5.221   3.409  1.9198 -0.8278  0.1773
17516TIP3   OH274038   2.479   0.952   3.744 -0.3980 -0.4958  0.0962
17516TIP3    H174039   2.490   0.982   3.654 -1.6644  0.0609  0.1158
17516TIP3    H274040   2.479   0.856   3.738 -1.5569 -0.4538 -0.6305
17517TIP3   OH274041   0.278   0.426  11.569 -0.1316 -0.1311 -0.2753
17517TIP3    H174042   0.249   0.518  11.566 -0.5771 -0.2922 -1.0938
17517TIP3    H274043   0.326   0.419  11.651 -0.2628  0.7909 -0.1100
17518TIP3   OH274044   3.166   3.005   2.899  0.3484 -0.3514  0.3286
17518TIP3    H174045   3.207   3.080   2.942  2.6304 -0.1111 -2.1555
17518TIP3    H274046   3.088   3.041   2.857  0.1030  0.1272  1.1850
17519TIP3   OH274047   6.171   1.564  14.939 -0.1252 -0.0571 -0.0460
17519TIP3    H174048   6.210   1.648  14.916 -0.3547  0.5962  1.8514
17519TIP3    H274049   6.234   1.524  14.999 -0.2606 -1.0147 -0.5304
17520TIP3   OH274050   1.885   1.355  14.347 -0.0233  0.1170 -0.0855
17520TIP3    H174051   1.802   1.392  14.377 -1.2729 -1.1411 -1.8907
17520TIP3    H274052   1.908   1.289  14.413 -1.1399 -0.4280 -0.2357
17521TIP3   OH274053   6.569   4.151  13.747  0.1677  0.4480  0.0405
17521TIP3    H174054   6.586   4.210  13.820 -3.2647  3.1094 -1.1750
17521TIP3    H274055   6.600   4.199  13.670  0.9275 -1.0354 -0.6049
17522TIP3   OH274056   0.415   4.046   5.864 -0.4983 -0.4105 -0.7918
17522TIP3    H174057   0.474   4.115   5.833  0.4522 -0.2425  1.3121
17522TIP3    H274058   0.443   3.968   5.815  0.9427 -0.1539 -0.4167
17523TIP3   OH274059   3.409   3.348   0.997 -0.3405  0.3939 -0.8866
17523TIP3    H174060   3.468   3.416   1.031 -0.8232  1.5678 -2.3513
17523TIP3    H274061   3.464   3.297   0.938  0.1535 -0.8233  0.6014
17524TIP3   OH274062   5.588   4.768  11.176  0.2215 -0.3787  0.1026
17524TIP3    H174063   5.505   4.813  11.162  0.6277  0.6970  1.1310
17524TIP3    H274064   5.612   4.734  11.089 -0.7201  0.2745 -0.4122
17525TIP3   OH274065   0.145   3.859  15.172  0.3574  0.1849  0.2222
17525TIP3    H174066   0.188   3.882  15.255 -0.7188 -0.3670  0.9491
17525TIP3    H274067   0.052   3.873  15.189 -0.0599 -1.8708 -0.2366
17526TIP3   OH274068   1.429   5.912  11.485 -0.3081 -0.4192 -0.4161
17526TIP3    H174069   1.517   5.891  11.515 -0.5948  0.1901  0.8887
17526TIP3    H274070   1.435   5.912  11.389  1.2702  0.3361 -0.3251
17527TIP3   OH274071   1.523   4.642   4.118  0.5437 -0.1600  0.0537
17527TIP3    H174072   1.580   4.681   4.052  0.9105  1.0952  1.0967
17527TIP3    H274073   1.434   4.667   4.091  0.7747  1.4980  0.7392
17528TIP3   OH274074   2.600   5.385   1.978  0.3724 -0.2881 -0.3084
17528TIP3    H174075   2.608   5.307   2.033  2.4004  0.2529  0.1805
17528TIP3    H274076   2.690   5.412   1.960 -0.3046  1.7748 -0.7302
17529TIP3   OH274077   2.952   2.430   5.145  0.0079  0.1619 -0.4738
17529TIP3    H174078   2.970   2.502   5.085  2.5720 -1.3101 -1.4886
17529TIP3    H274079   2.995   2.456   5.227 -0.4590  0.4964 -0.3257
17530TIP3   OH274080   0.614   5.869  13.898  0.1466  0.4120 -0.2739
17530TIP3    H174081   0.612   5.821  13.815  0.1635  1.1664 -0.7165
17530TIP3    H274082   0.526   5.905  13.907 -0.5620 -1.6251  1.2130
17531TIP3   OH274083   2.648   4.912   1.491 -0.4421  0.3669 -0.4106
17531TIP3    H174084   2.704   4.856   1.437 -0.1136  0.7870 -0.5139
17531TIP3    H274085   2.637   4.992   1.439 -0.6560  0.5187 -0.1339
17532TIP3   OH274086   4.998   5.995  11.999 -0.5466  0.2779  0.0036
17532TIP3    H174087   4.943   5.936  12.051 -0.1245  0.5489  0.7739
17532TIP3    H274088   4.945   6.073  11.986 -0.0692  0.8662  1.4408
17533TIP3   OH274089   3.696   6.092   4.614  0.3593 -0.4889  0.6394
17533TIP3    H174090   3.678   6.185   4.626  0.2260 -0.7675  2.7123
17533TIP3    H274091   3.722   6.085   4.522 -0.3567  1.4685  0.2475
17534TIP3   OH274092   1.647   2.908  11.144 -0.4760  0.1606  0.3091
17534TIP3    H174093   1.568   2.918  11.198 -1.7828  0.0265 -1.5121
17534TIP3    H274094   1.636   2.824  11.101 -0.4279  1.1349 -1.6576
17535TIP3   OH274095   6.531   5.797   5.385  0.3796 -0.0858  0.3226
17535TIP3    H174096   6.507   5.803   5.477  0.3602  1.9538  0.2100
17535TIP3    H274097   6.562   5.707   5.374  1.4684 -0.0360  2.5938
17536TIP3   OH274098   3.381   6.531  12.779 -1.0051 -0.3769  0.1912
17536TIP3    H174099   3.297   6.539  12.733  1.1838 -0.1125 -3.9823
17536TIP3    H274100   3.425   6.457  12.737  1.6527  0.7052  0.9496
17537TIP3   OH274101   1.308   4.852  16.228  0.1326 -0.2536 -1.0798
17537TIP3    H174102   1.391   4.816  16.260  0.2195 -0.6350 -1.7343
17537TIP3    H274103   1.334   4.916  16.161 -0.1082 -0.4856 -1.3949
17538TIP3   OH274104   2.370   0.730  14.936  0.3265  0.3895  0.0425
17538TIP3    H174105   2.309   0.674  14.888  0.2354 -1.6501  2.4185
17538TIP3    H274106   2.449   0.731  14.882 -0.9914  1.1014 -1.8899
17539TIP3   OH274107   2.156   5.929   1.540 -0.9679  0.0319  0.2693
17539TIP3    H174108   2.215   5.923   1.615 -1.7022 -1.2157  0.7592
17539TIP3    H274109   2.113   6.014   1.549  1.7844  1.6082 -0.8822
17540TIP3   OH274110   4.119   0.311   3.317 -0.0053  0.2550 -0.0213
17540TIP3    H174111   4.186   0.339   3.380 -0.4462 -3.2232  2.0844
17540TIP3    H274112   4.165   0.250   3.260 -1.0021 -1.0484  0.5493
17541TIP3   OH274113   4.823   5.830   0.709 -0.4525  0.2785 -0.0347
17541TIP3    H174114   4.761   5.757   0.706 -0.2355  0.0706  0.6359
17541TIP3    H274115   4.844   5.840   0.802 -1.8566  2.3432  0.0855
17542TIP3   OH274116   0.147   6.495   1.634 -0.6857  0.2687 -0.0568
17542TIP3    H174117   0.147   6.419   1.577  0.9493  1.0817 -1.1599
17542TIP3    H274118   0.159   6.459   1.722  0.3999 -0.7210 -0.5984
17543TIP3   OH274119   1.729   2.808   0.974 -0.3966 -0.1920 -0.3226
17543TIP3    H174120   1.821   2.833   0.975 -0.3042 -0.4930 -1.5907
17543TIP3    H274121   1.727   2.722   0.934 -1.1502 -0.5537  0.4678
17544TIP3   OH274122   3.515   4.486   0.365  0.1496 -0.2989  0.1997
17544TIP3    H174123   3.506   4.563   0.422  0.4916 -0.4011  0.3925
17544TIP3    H274124   3.607   4.486   0.339  0.0406 -0.3715 -0.1907
17545TIP3   OH274125   2.021   1.646  14.927  0.3138 -0.0441  0.7118
17545TIP3    H174126   2.041   1.597  15.006  0.7955  0.9708  1.2224
17545TIP3    H274127   1.996   1.579  14.863  0.5928 -0.9180  1.5124
17546TIP3   OH274128   6.129   0.812  11.698 -0.3927 -0.0196 -0.2701
17546TIP3    H174129   6.033   0.817  11.694 -0.4287 -1.4541 -1.7941
17546TIP3    H274130   6.157   0.901  11.718 -1.9590  0.8648 -1.8705
17547TIP3   OH274131   0.688   1.311   3.908 -0.1677 -0.1332 -0.1819
17547TIP3    H174132   0.629   1.346   3.974  1.3729  1.4139  0.3925
17547TIP3    H274133   0.751   1.381   3.891  1.3375 -1.6288 -0.9873
17548TIP3   OH274134   1.673   2.465  13.422  0.0159 -0.1735 -0.0260
17548TIP3    H174135   1.765   2.450  13.400 -0.1539  0.8847 -1.5654
17548TIP3    H274136   1.665   2.561  13.426 -1.0540 -0.2574 -0.0394
17549TIP3   OH274137   2.305   1.491  13.285 -0.1876 -0.4612 -0.6732
17549TIP3    H174138   2.262   1.576  13.295 -1.8662 -1.2008 -1.3226
17549TIP3    H274139   2.363   1.484  13.360 -0.7180  0.8608 -0.1205
17550TIP3   OH274140   1.686   0.019   3.703 -0.4783 -0.3077  0.6295
17550TIP3    H174141   1.595  -0.012   3.694 -0.0231 -1.2371 -0.9676
17550TIP3    H274142   1.679   0.114   3.709 -1.5855 -0.4034  1.0189
17551TIP3   OH274143   6.044   4.929   2.338 -0.6578 -0.1882 -0.1309
17551TIP3    H174144   6.098   4.919   2.416  0.0239  0.2794 -0.5394
17551TIP3    H274145   5.974   4.866   2.349 -0.4037 -0.3202  0.7286
17552TIP3   OH274146   3.876   4.115   2.425  0.4135 -0.1287 -0.5457
17552TIP3    H174147   3.794   4.162   2.440  0.7158  0.0713  0.5171
17552TIP3    H274148   3.874   4.043   2.488  1.0668 -0.1138 -0.5119
17553TIP3   OH274149   0.971   6.088   5.755  0.1598 -0.4001 -0.4700
17553TIP3    H174150   0.897   6.116   5.701  0.6749  0.4985 -0.7163
17553TIP3    H274151   0.956   6.128   5.840  1.6376  1.8673 -1.2312
17554TIP3   OH274152   3.708   5.668   2.680  0.0797 -0.5690 -0.5716
17554TIP3    H174153   3.707   5.752   2.634  0.9038 -0.8419 -1.1092
17554TIP3    H274154   3.665   5.685   2.764 -0.1025  0.2932 -0.8403
17555TIP3   OH274155   0.236   4.668   0.847 -0.2148 -0.3095 -0.2766
17555TIP3    H174156   0.205   4.758   0.860  1.0978 -0.0170  0.8748
17555TIP3    H274157   0.245   4.659   0.752  1.3000  1.3280 -0.2928
17556TIP3   OH274158   1.046   2.527  12.781  0.2684 -0.5864  0.0251
17556TIP3    H174159   0.984   2.492  12.718  0.0397  2.3887 -1.4918
17556TIP3    H274160   0.993   2.577  12.843  0.8183 -0.9312  0.7985
17557TIP3   OH274161   0.299   3.809  14.386 -0.0757  0.2672  0.1933
17557TIP3    H174162   0.246   3.861  14.326  0.0617  0.3075  0.1074
17557TIP3    H274163   0.342   3.744  14.331  0.1388  0.3764  0.2293
17558TIP3   OH274164   4.019   4.179   4.346 -0.4073 -0.3372  0.0791
17558TIP3    H174165   4.028   4.109   4.281 -1.3504 -0.7475  0.3817
17558TIP3    H274166   3.925   4.184   4.363 -0.4266  1.4152 -0.3850
17559TIP3   OH274167   5.459   4.094   1.230  0.2589 -0.8317  0.3101
17559TIP3    H174168   5.433   4.047   1.151  1.4329 -1.3728  0.2307
17559TIP3    H274169   5.555   4.091   1.229  0.3673  1.5758  0.3017
17560TIP3   OH274170   5.317   5.998   0.094  0.5908 -0.5743  0.6103
17560TIP3    H174171   5.375   6.043   0.032  1.1553 -2.0193  0.0832
17560TIP3    H274172   5.243   5.970   0.040  1.1504 -1.9631  0.5627
17561TIP3   OH274173   1.655   4.581   3.574  0.1589 -0.3355 -0.1166
17561TIP3    H174174   1.726   4.567   3.512 -0.5054  1.0439 -1.2355
17561TIP3    H274175   1.693   4.563   3.660  1.7242 -0.0608 -0.7398
17562TIP3   OH274176   1.686   6.330  11.835 -0.2983  0.1422 -0.3218
17562TIP3    H174177   1.748   6.267  11.872 -0.1081 -0.1432 -1.1243
17562TIP3    H274178   1.660   6.384  11.909  1.3109  0.5997 -0.0795
17563TIP3   OH274179   3.082   4.297   4.594  0.0191  0.1315  0.2900
17563TIP3    H174180   3.097   4.380   4.639  1.1625 -0.4384  0.9863
17563TIP3    H274181   3.130   4.305   4.512 -0.0308  0.2401  0.2716
17564TIP3   OH274182   6.129   4.861   0.463 -0.3583 -0.0799 -0.1214
17564TIP3    H174183   6.069   4.924   0.505 -0.0852 -0.6129  1.0851
17564TIP3    H274184   6.189   4.836   0.533 -0.4108 -1.6095 -0.6181
17565TIP3   OH274185   0.587   0.101  13.633  0.1242 -0.0089 -0.3620
17565TIP3    H174186   0.544   0.079  13.716 -2.4704  0.9012 -1.4155
17565TIP3    H274187   0.620   0.190  13.646 -3.0306  1.3733 -1.2786
17566TIP3   OH274188   3.576   3.706   3.126 -0.1114 -0.2388  0.0950
17566TIP3    H174189   3.512   3.640   3.153 -0.6022  0.9561  1.8906
17566TIP3    H274190   3.524   3.784   3.107  0.6772  0.2853  0.0755
17567TIP3   OH274191   1.388   6.225  12.006  0.7305  0.3874  0.1487
17567TIP3    H174192   1.342   6.271  11.936  0.2205 -1.8487 -1.0334
17567TIP3    H274193   1.439   6.293  12.050 -0.7887  2.2470 -0.8720
17568TIP3   OH274194   3.894   4.176   3.749  0.0960  0.4254  0.3810
17568TIP3    H174195   3.853   4.187   3.834 -0.5732  0.8737  0.0106
17568TIP3    H274196   3.820   4.166   3.688  0.5916 -1.6314  0.0867
17569TIP3   OH274197   0.583   2.468  15.615 -0.9115  0.7081  0.3936
17569TIP3    H174198   0.508   2.471  15.676 -1.5579 -0.1425 -0.3497
17569TIP3    H274199   0.657   2.444  15.670 -1.4208  0.3362  0.9253
17570TIP3   OH274200   5.852   1.596  16.739  0.3867 -0.1552  0.1553
17570TIP3    H174201   5.907   1.519  16.752 -1.4548 -2.0015 -2.5181
17570TIP3    H274202   5.888   1.638  16.660 -0.3791  0.0904 -0.0702
17571TIP3   OH274203   0.259   3.945  13.122 -0.6054 -0.0903  0.3963
17571TIP3    H174204   0.228   4.009  13.057 -1.7637 -3.0566 -2.1113
17571TIP3    H274205   0.344   3.917  13.089 -0.2079 -0.0460  1.3665
17572TIP3   OH274206   5.312   6.202   0.266  0.6454  0.4970  0.4220
17572TIP3    H174207   5.332   6.130   0.206 -0.5645 -0.5013  1.1909
17572TIP3    H274208   5.216   6.208   0.266  0.7669  3.4380 -1.1588
17573TIP3   OH274209   4.630   2.781   0.506 -0.1686  0.5094 -0.3294
17573TIP3    H174210   4.659   2.819   0.589  0.0901  0.7321 -0.5243
17573TIP3    H274211   4.625   2.687   0.524 -0.2449  0.5696 -0.0220
17574TIP3   OH274212   6.234   2.205   3.538 -0.0515 -0.4020 -0.2594
17574TIP3    H174213   6.223   2.269   3.609  2.4056  0.9657 -1.0814
17574TIP3    H274214   6.270   2.127   3.581  2.3854  0.7677 -0.1168
17575TIP3   OH274215   6.386   0.548   3.903  0.0814 -0.5345 -0.5491
17575TIP3    H174216   6.443   0.609   3.856 -0.1215 -0.4031 -0.6201
17575TIP3    H274217   6.411   0.558   3.995 -0.0098 -0.2885 -0.5521
17576TIP3   OH274218   2.893   2.653   1.055 -0.3439  0.0057  0.3553
17576TIP3    H174219   2.888   2.719   0.986  0.3945 -0.0546  0.2388
17576TIP3    H274220   2.812   2.664   1.105  0.3796  1.8925  1.1465
17577TIP3   OH274221   0.379   5.179   1.751  0.0810 -0.7058  0.0965
17577TIP3    H174222   0.302   5.228   1.722 -0.7363 -2.1140 -0.1316
17577TIP3    H274223   0.364   5.165   1.844  0.7895  0.3068  0.3785
17578TIP3   OH274224   4.980   3.117  14.656 -0.0641  0.2049  0.7061
17578TIP3    H174225   5.013   3.159  14.735 -0.5567  1.2810  0.3552
17578TIP3    H274226   4.980   3.024  14.676  0.6811  0.4013  1.6433
17579TIP3   OH274227   1.443   0.063   6.462 -0.3976 -0.4772  0.5820
17579TIP3    H174228   1.489   0.144   6.438 -0.7922 -0.3972  0.0887
17579TIP3    H274229   1.457   0.055   6.557 -1.0777  0.6317  0.7891
17580TIP3   OH274230   4.410   2.624   6.214 -0.1446 -0.3198  0.1878
17580TIP3    H174231   4.473   2.561   6.250  0.2144  0.7730  1.5242
17580TIP3    H274232   4.365   2.658   6.291 -2.7808 -1.4892 -0.7962
17581TIP3   OH274233   1.379   0.264   3.063 -0.2076  0.7263 -0.2912
17581TIP3    H174234   1.409   0.350   3.093  1.3606  0.6043 -1.4363
17581TIP3    H274235   1.379   0.270   2.968  0.0718 -0.5869 -0.3895
17582TIP3   OH274236   5.225   3.912   5.807  0.2806  0.4258 -0.2412
17582TIP3    H174237   5.158   3.907   5.876 -0.3163 -0.9238 -0.9046
17582TIP3    H274238   5.307   3.925   5.855 -0.1233 -0.4882  0.7323
17583TIP3   OH274239   6.279   2.401   3.102  0.5928 -0.4401  0.1436
17583TIP3    H174240   6.215   2.337   3.132  2.1657 -1.2112  1.9590
17583TIP3    H274241   6.360   2.376   3.146  1.4569  2.2429  0.1745
17584TIP3   OH274242   6.316   5.568   4.285 -0.3461  0.1586  0.0949
17584TIP3    H174243   6.336   5.558   4.192 -1.8030 -2.8988  0.0388
17584TIP3    H274244   6.401   5.575   4.328  0.3572  0.6019 -1.3625
17585TIP3   OH274245   3.589   5.300  16.023  0.0767 -0.0814 -0.6921
17585TIP3    H174246   3.532   5.258  16.088 -0.3706  0.3589 -0.7923
17585TIP3    H274247   3.533   5.366  15.981  0.5476  0.0823 -1.0742
17586TIP3   OH274248   5.554   3.782  15.436  0.7029 -0.0696 -0.0177
17586TIP3    H174249   5.501   3.735  15.372  1.0953 -0.7953  0.1790
17586TIP3    H274250   5.619   3.829  15.384  1.2868 -0.9903 -0.1474
17587TIP3   OH274251   1.073   4.294   4.416 -0.0950  0.2290 -0.3880
17587TIP3    H174252   1.123   4.316   4.495 -2.6302  0.1240  1.2809
17587TIP3    H274253   1.049   4.202   4.428 -2.4556  0.8514 -0.1674
17588TIP3   OH274254   4.962   0.001   3.582 -0.0979 -0.0765  0.3138
17588TIP3    H174255   4.997  -0.079   3.619 -0.4656 -1.5414 -2.3459
17588TIP3    H274256   4.884   0.020   3.635  0.7660 -0.6967  1.8259
17589TIP3   OH274257   2.258   2.976  15.103  0.3101 -0.2410  0.0486
17589TIP3    H174258   2.179   3.028  15.090  0.1161 -0.6505 -0.4017
17589TIP3    H274259   2.232   2.886  15.083  0.7066 -0.4785  0.5870
17590TIP3   OH274260   6.769   2.755   0.091 -0.1276 -0.6211  0.3875
17590TIP3    H174261   6.812   2.808   0.159  0.4337 -0.2415 -0.2541
17590TIP3    H274262   6.841   2.709   0.047 -0.2826  0.5275 -1.1256
17591TIP3   OH274263   2.421   1.327  15.712 -0.0121 -0.1609 -0.1510
17591TIP3    H174264   2.367   1.405  15.698 -1.1067 -0.9326 -0.3455
17591TIP3    H274265   2.477   1.348  15.786  1.4304  1.7130 -1.7305
17592TIP3   OH274266   4.579   4.126   2.109 -0.5105  0.3139  0.3172
17592TIP3    H174267   4.491   4.164   2.105 -0.3635  0.9171  2.2578
17592TIP3    H274268   4.567   4.046   2.162 -0.6182 -1.8339 -2.7986
17593TIP3   OH274269   1.384   5.400   5.574  0.4473 -0.3901 -0.0219
17593TIP3    H174270   1.430   5.374   5.493 -0.3987  0.0287 -0.6344
17593TIP3    H274271   1.293   5.378   5.558  0.2285 -0.0289  0.7202
17594TIP3   OH274272   3.940   2.053   4.128 -0.3826  0.2780  0.1895
17594TIP3    H174273   3.863   2.015   4.087 -0.2884 -0.1006  0.3641
17594TIP3    H274274   3.946   2.011   4.213  0.2245  0.0392  0.0333
17595TIP3   OH274275   3.969   6.663  17.110  0.2871  0.8830 -0.2530
17595TIP3    H174276   3.923   6.586  17.146  1.2522  0.8629  0.9715
17595TIP3    H274277   4.050   6.627  17.073  1.0712  1.3992  0.9516
17596TIP3   OH274278   0.001   2.560  15.849  0.3601  0.0484 -0.0448
17596TIP3    H174279  -0.048   2.627  15.896  3.0152  0.1825  2.6706
17596TIP3    H274280   0.059   2.608  15.791  0.3622  0.0052 -0.0793
17597TIP3   OH274281   4.664   1.486  12.858  0.8075  0.2563 -0.0974
17597TIP3    H174282   4.669   1.401  12.903 -1.1163 -0.3253 -0.9188
17597TIP3    H274283   4.750   1.525  12.872  1.0177 -0.8819  2.1488
17598TIP3   OH274284   2.723   3.937  13.305  0.0962 -0.5477 -0.4553
17598TIP3    H174285   2.764   3.982  13.380  1.1943 -0.7453 -0.9262
17598TIP3    H274286   2.765   3.851  13.304 -0.4828 -0.8189 -0.8334
17599TIP3   OH274287   4.401   4.827   3.739 -0.4207  0.0784 -0.1299
17599TIP3    H174288   4.369   4.897   3.795  1.0520 -0.4950  1.4960
17599TIP3    H274289   4.383   4.747   3.787 -1.6960 -0.6638 -1.7764
17600TIP3   OH274290   1.723   6.420   6.103  1.6010 -0.5557  0.3094
17600TIP3    H174291   1.680   6.398   6.185 -1.5719  1.1236 -0.8059
17600TIP3    H274292   1.731   6.337   6.056  2.0722 -1.2920  1.6621
17601TIP3   OH274293   1.524   3.038  16.657  0.0662 -0.0095  0.0660
17601TIP3    H174294   1.523   3.128  16.691  0.7722  0.1154 -0.2236
17601TIP3    H274295   1.617   3.021  16.640 -0.3842  0.3456 -2.9277
17602TIP3   OH274296   6.780   3.486  13.177  0.5678  0.3085 -0.4371
17602TIP3    H174297   6.771   3.485  13.272  1.6626 -0.4433 -0.3368
17602TIP3    H274298   6.701   3.441  13.145 -0.5691  1.9279  0.0406
17603TIP3   OH274299   4.825   5.618  14.878 -0.1802  0.1575  0.2745
17603TIP3    H174300   4.876   5.676  14.935  0.1531  0.2108 -0.0754
17603TIP3    H274301   4.889   5.555  14.845 -0.3827  0.0935  0.0065
17604TIP3   OH274302   0.768   6.027   1.302 -0.1315 -0.1908 -0.2502
17604TIP3    H174303   0.832   6.097   1.308 -0.6982  0.3014  0.1055
17604TIP3    H274304   0.813   5.957   1.254  0.5317  0.2976 -0.3425
17605TIP3   OH274305   1.424   1.432  13.533 -0.0453  0.9636 -0.5010
17605TIP3    H174306   1.395   1.340  13.537 -0.9607  1.3079  1.3201
17605TIP3    H274307   1.348   1.480  13.500 -0.2830  1.3367  0.5600
17606TIP3   OH274308   2.196   0.720   2.810 -0.1681  0.6711 -0.7898
17606TIP3    H174309   2.108   0.681   2.812 -0.2015  0.7848  0.0743
17606TIP3    H274310   2.239   0.676   2.737  0.8779 -3.3442  2.0409
17607TIP3   OH274311   2.058   2.736   5.517 -0.2589 -0.2113  0.3219
17607TIP3    H174312   2.030   2.646   5.501  0.1097 -0.1457 -0.7369
17607TIP3    H274313   2.151   2.729   5.537 -0.3851 -0.1341  0.9426
17608TIP3   OH274314   5.264   1.389  11.961  0.2174  0.2821 -0.1165
17608TIP3    H174315   5.277   1.301  11.997 -1.0996  0.3511  0.5683
17608TIP3    H274316   5.352   1.425  11.954  0.8235 -1.2883 -0.9201
17609TIP3   OH274317   3.883   0.372   4.434  0.3733  0.0387 -0.5084
17609TIP3    H174318   3.888   0.442   4.499  0.4611  1.1497 -1.7117
17609TIP3    H274319   3.865   0.293   4.486  1.6308  0.7053  0.9937
17610TIP3   OH274320   2.212   5.804   0.014  0.1874  0.5370  0.2689
17610TIP3    H174321   2.280   5.854   0.058  1.2989 -0.7365  0.0388
17610TIP3    H274322   2.230   5.816  -0.080 -0.7868  1.3656  0.1732
17611TIP3   OH274323   3.184   4.991   5.770  0.0790 -0.0178  0.2800
17611TIP3    H174324   3.093   5.020   5.762 -0.1856 -0.7133  0.6322
17611TIP3    H274325   3.184   4.903   5.732  1.0889  0.8226 -1.7608
17612TIP3   OH274326   2.508   6.302   3.501  0.1014 -0.1780  0.1220
17612TIP3    H174327   2.415   6.282   3.515 -1.0128  4.2201 -0.0760
17612TIP3    H274328   2.543   6.315   3.589  0.0697 -0.1386  0.1293
17613TIP3   OH274329   0.193   4.734   5.362  0.2220  0.0052 -0.2637
17613TIP3    H174330   0.198   4.816   5.410  0.3682  1.1160 -2.1205
17613TIP3    H274331   0.267   4.736   5.302  0.7555 -1.9024  0.2906
17614TIP3   OH274332   1.967   4.363   5.677  0.1008  0.2791 -0.5872
17614TIP3    H174333   1.915   4.307   5.619  2.2280 -2.0671 -0.3385
17614TIP3    H274334   1.932   4.347   5.765  0.7044 -0.7155 -0.5175
17615TIP3   OH274335   1.722   4.422   3.009  0.0616 -0.0988  0.3006
17615TIP3    H174336   1.795   4.454   3.061  0.4287 -1.0733  0.3914
17615TIP3    H274337   1.760   4.409   2.922  0.0727 -0.9318  0.4349
17616TIP3   OH274338   1.910   1.848  14.727  0.1645  0.5236 -0.2613
17616TIP3    H174339   1.946   1.837  14.815 -0.5691 -1.8518 -0.2241
17616TIP3    H274340   1.820   1.816  14.734 -0.4518  1.9523 -1.4810
17617TIP3   OH274341   2.754   5.786   2.858  0.1898  0.2200 -0.1708
17617TIP3    H174342   2.778   5.864   2.809 -0.9251  0.7981  0.1793
17617TIP3    H274343   2.673   5.756   2.818  0.8546 -1.0225 -0.5893
17618TIP3   OH274344   2.065   5.764  12.835 -0.0315 -0.5935 -0.1790
17618TIP3    H174345   2.049   5.669  12.833 -1.2510 -0.4026 -0.0487
17618TIP3    H274346   1.987   5.802  12.795 -0.6259  0.4737  1.9061
17619TIP3   OH274347   0.942   0.102  16.448 -0.2910  0.7501 -0.4431
17619TIP3    H174348   1.010   0.154  16.492 -0.4917 -0.1421  0.9198
17619TIP3    H274349   0.888   0.068  16.518 -2.0615  1.2855 -1.5112
17620TIP3   OH274350   0.852   1.261   3.620  0.9202  0.1070 -0.0087
17620TIP3    H174351   0.928   1.291   3.669 -1.7366  1.9904  3.2004
17620TIP3    H274352   0.815   1.341   3.582 -0.4005 -0.4914 -0.0312
17621TIP3   OH274353   5.216   6.405  16.494 -0.0621 -0.3037  0.1941
17621TIP3    H174354   5.212   6.342  16.422  0.6728 -1.0494  0.8120
17621TIP3    H274355   5.290   6.378  16.547  0.4506  1.2471  0.3102
17622TIP3   OH274356   5.002   4.778  16.806  0.5339  0.3898 -0.3822
17622TIP3    H174357   5.077   4.782  16.747  0.5292 -0.1892 -0.4323
17622TIP3    H274358   4.938   4.722  16.761  0.5544 -0.1006  0.1863
17623TIP3   OH274359   3.204   1.435  13.220  0.0872  0.3174  0.7538
17623TIP3    H174360   3.194   1.472  13.307  0.6487 -0.1309  1.0089
17623TIP3    H274361   3.297   1.444  13.200  0.0321  0.0549  0.3677
17624TIP3   OH274362   6.593   5.166   2.011 -0.0178 -0.0541 -0.0797
17624TIP3    H174363   6.606   5.235   2.077  0.9829  0.0744 -0.4006
17624TIP3    H274364   6.620   5.086   2.055  0.1694 -0.0418 -0.1750
17625TIP3   OH274365   2.200   3.725   4.304 -0.0643 -0.4236  0.6435
17625TIP3    H174366   2.217   3.747   4.395  0.4339 -1.3657  0.7845
17625TIP3    H274367   2.212   3.807   4.257 -0.9152  0.2077  1.4942
17626TIP3   OH274368   0.217   1.430  14.826 -1.0514  0.1563 -0.2200
17626TIP3    H174369   0.163   1.458  14.752 -1.5279 -0.2615 -0.0282
17626TIP3    H274370   0.175   1.469  14.903  1.2077  3.2581 -0.4410
17627TIP3   OH274371   2.808   2.928  13.771  0.6453  0.6690  0.4333
17627TIP3    H174372   2.869   2.891  13.835  0.2338  0.5815  0.7816
17627TIP3    H274373   2.798   2.860  13.705  1.2102  0.8282  0.1864
17628TIP3   OH274374   1.206   6.177  15.537 -0.8412 -0.1087 -0.1444
17628TIP3    H174375   1.148   6.224  15.476 -1.1863 -0.9199 -0.4420
17628TIP3    H274376   1.268   6.131  15.480  0.8227  1.6288  0.1767
17629TIP3   OH274377   6.343   0.556  12.682  0.2669  0.4731  0.3001
17629TIP3    H174378   6.310   0.523  12.765  0.7347  0.3877  0.4495
17629TIP3    H274379   6.429   0.593  12.702  1.6741 -2.1560 -0.6595
17630TIP3   OH274380   6.458   1.828  12.753 -0.1819  0.3397  0.0522
17630TIP3    H174381   6.427   1.884  12.825  0.0432  0.6156 -0.0676
17630TIP3    H274382   6.451   1.882  12.675  1.1339  0.5900  0.0991
17631TIP3   OH274383   0.351   4.153  17.125  0.0911  0.0890  0.1195
17631TIP3    H174384   0.442   4.126  17.132  0.0879  0.1197  0.3067
17631TIP3    H274385   0.301   4.071  17.129  0.1309  0.0329 -0.4800
17632TIP3   OH274386   3.620   2.605  13.355 -0.3110  0.1887  0.2728
17632TIP3    H174387   3.568   2.685  13.350  0.0545  0.3790 -0.7236
17632TIP3    H274388   3.555   2.534  13.352 -0.6234  0.4387  0.9747
17633TIP3   OH274389   2.760   5.560  17.173  0.7233  0.6936 -0.0609
17633TIP3    H174390   2.744   5.527  17.261  0.6138  1.2473  0.1268
17633TIP3    H274391   2.841   5.612  17.181  1.9099 -0.9949 -0.7267
17634TIP3   OH274392   6.217   6.036  15.869 -0.8417  0.1609 -0.3239
17634TIP3    H174393   6.198   6.118  15.915 -0.3518 -1.2481  2.4861
17634TIP3    H274394   6.311   6.038  15.853 -0.7563 -0.0450  0.1455
17635TIP3   OH274395   1.400   0.690   1.502  0.2474 -0.5360  0.0870
17635TIP3    H174396   1.363   0.774   1.526 -1.7036 -1.3207 -0.1192
17635TIP3    H274397   1.449   0.707   1.421  0.8181  0.6041  0.6534
17636TIP3   OH274398   5.784   2.265  13.427  0.0573  0.1486  0.2561
17636TIP3    H174399   5.743   2.224  13.351  0.4008 -0.1762  0.2470
17636TIP3    H274400   5.724   2.244  13.499 -1.4137  2.3164 -0.2965
17637TIP3   OH274401   0.669   0.081   6.276  0.2542  0.6060 -0.6276
17637TIP3    H174402   0.654   0.010   6.214 -1.8708 -0.8138  1.4133
17637TIP3    H274403   0.634   0.159   6.232 -3.2067 -0.7378 -0.4517
17638TIP3   OH274404   5.597   6.107  14.849 -0.5824  0.1135  0.1946
17638TIP3    H174405   5.539   6.091  14.774 -2.1233  2.5821  0.7857
17638TIP3    H274406   5.607   6.021  14.890 -0.1238 -1.1821 -2.5275
17639TIP3   OH274407   1.319   3.460  15.411 -0.9271  0.0752 -0.0989
17639TIP3    H174408   1.232   3.493  15.389 -1.1833 -0.2861  0.3829
17639TIP3    H274409   1.321   3.371  15.375 -0.4432  0.4013 -0.8842
17640TIP3   OH274410   0.049   0.995  14.010 -0.4129  0.7966 -1.0635
17640TIP3    H174411   0.041   0.928  14.078  0.3693  1.1262 -0.6411
17640TIP3    H274412  -0.037   0.998  13.969 -1.4252  1.7836  1.0520
17641TIP3   OH274413   3.604   5.731   1.631 -0.3067 -0.5078  0.5262
17641TIP3    H174414   3.669   5.687   1.687  2.0326  1.5406 -0.5082
17641TIP3    H274415   3.551   5.783   1.692  0.0177 -0.9450  1.1915
17642TIP3   OH274416   2.489   4.054  15.649  0.5335 -0.7559 -0.0012
17642TIP3    H174417   2.522   4.060  15.560  0.3378 -0.6850 -0.0696
17642TIP3    H274418   2.535   4.122  15.697  0.8837 -1.0149  0.0274
17643TIP3   OH274419   6.138   4.016   3.193 -0.1601  0.2738  0.2946
17643TIP3    H174420   6.174   3.953   3.256  0.7166 -0.7104 -1.1685
17643TIP3    H274421   6.044   3.999   3.195 -0.0956 -0.0537  1.0092
17644TIP3   OH274422   6.661   5.571  13.427 -0.1596 -0.1656 -0.0866
17644TIP3    H174423   6.670   5.629  13.502  1.7400  0.1176 -0.5162
17644TIP3    H274424   6.692   5.623  13.353 -0.5103 -0.9921 -0.8140
17645TIP3   OH274425   3.061   3.218  15.415  0.6356  0.0168  0.0350
17645TIP3    H174426   3.099   3.282  15.355 -0.7708 -0.2272 -1.1495
17645TIP3    H274427   2.998   3.267  15.467 -0.6087 -0.4328 -1.0292
17646TIP3   OH274428   3.854   0.221  14.489 -0.4172  0.6854 -0.0922
17646TIP3    H174429   3.900   0.234  14.406 -0.1568  1.7060  0.1998
17646TIP3    H274430   3.804   0.302  14.502  0.0179  0.7938  1.0321
17647TIP3   OH274431   6.421   1.241  11.788 -0.3992  0.3491  0.3499
17647TIP3    H174432   6.418   1.273  11.698 -0.0472  0.2441  0.3009
17647TIP3    H274433   6.458   1.313  11.839 -3.1399  1.4389  0.8691
17648TIP3   OH274434   0.462   5.277   3.456 -0.3340  0.1333 -0.1750
17648TIP3    H174435   0.521   5.205   3.435 -0.3829 -0.0933  0.4587
17648TIP3    H274436   0.425   5.254   3.541 -1.2650  0.3216 -0.5240
17649TIP3   OH274437   5.429   6.615  11.289  0.0500 -0.1745  0.5034
17649TIP3    H174438   5.394   6.651  11.208  0.0143  0.2534  0.7067
17649TIP3    H274439   5.524   6.620  11.279  0.0763 -2.3350 -0.4915
17650TIP3   OH274440   6.285   4.368  15.507  0.5827  0.1207  0.3664
17650TIP3    H174441   6.275   4.297  15.444  2.3713 -1.0026  1.3150
17650TIP3    H274442   6.302   4.324  15.590  1.1964  1.6521  1.0690
17651TIP3   OH274443   4.824   4.426   2.550  0.8679 -0.4745  0.4258
17651TIP3    H174444   4.823   4.348   2.494  0.8029 -0.1037 -0.0978
17651TIP3    H274445   4.844   4.498   2.490  0.8198 -0.0739  0.8859
17652TIP3   OH274446   0.810   0.306   2.339 -0.2585  0.3007 -0.1390
17652TIP3    H174447   0.801   0.268   2.252 -1.5011  0.5553 -0.1293
17652TIP3    H274448   0.871   0.247   2.385  0.1019 -0.0408 -1.0487
17653TIP3   OH274449   3.497   6.332   2.204 -0.5516  0.4578  0.1114
17653TIP3    H174450   3.461   6.421   2.198  0.6127  0.8856 -0.8084
17653TIP3    H274451   3.507   6.305   2.112  0.8854  0.1233  0.3654
17654TIP3   OH274452   0.509   6.249  13.382  0.5801 -0.0809  0.0835
17654TIP3    H174453   0.492   6.290  13.468  2.3510  1.2681 -0.1854
17654TIP3    H274454   0.577   6.185  13.399  0.9751  0.2301 -0.3188
17655TIP3   OH274455   1.485   4.360  13.885  0.5820  0.3462 -0.0014
17655TIP3    H174456   1.460   4.329  13.972  2.2258  0.4490  0.5275
17655TIP3    H274457   1.539   4.289  13.850  0.3234  0.5157 -0.7445
17656TIP3   OH274458   2.990   5.267   3.893 -0.1426  0.2098 -0.7631
17656TIP3    H174459   2.906   5.234   3.860  0.1330 -1.7543  0.4261
17656TIP3    H274460   3.056   5.228   3.835  0.1120 -0.4998 -0.0141
17657TIP3   OH274461   1.497   2.423   1.243  0.1714 -0.2888  0.0156
17657TIP3    H174462   1.406   2.422   1.214  0.2579 -0.9927 -0.2244
17657TIP3    H274463   1.512   2.337   1.282 -0.1396  0.8572  2.8076
17658TIP3   OH274464   2.424   3.224  13.995  0.2935  0.2377 -0.0711
17658TIP3    H174465   2.429   3.317  13.971 -1.1928  0.5262  0.7156
17658TIP3    H274466   2.335   3.212  14.028  0.4847 -1.4655 -0.1185
17659TIP3   OH274467   1.690   6.751   4.671 -0.1225  0.1386  0.3919
17659TIP3    H174468   1.779   6.717   4.669  0.1574  0.8515  0.4576
17659TIP3    H274469   1.684   6.800   4.753 -1.2854 -1.7434  1.4669
17660TIP3   OH274470   2.310   0.109  11.227 -0.4840 -0.0832  0.3920
17660TIP3    H174471   2.261   0.028  11.245  1.2299 -1.6066 -1.4866
17660TIP3    H274472   2.402   0.084  11.240  0.0618  1.6208 -0.1028
17661TIP3   OH274473   4.831   1.442   5.265  0.4116 -0.4262  0.2447
17661TIP3    H174474   4.777   1.367   5.293  1.8473 -1.5932 -0.0365
17661TIP3    H274475   4.841   1.430   5.171 -0.5857  0.9746 -0.0604
17662TIP3   OH274476   0.732   4.980   3.015  0.1516  0.8199 -0.8263
17662TIP3    H174477   0.731   4.959   2.922 -0.3020  0.8722 -0.8365
17662TIP3    H274478   0.820   5.014   3.032  1.4593 -2.5519 -0.4751
17663TIP3   OH274479   1.654   3.685   2.922 -0.4738 -0.0767 -0.0383
17663TIP3    H174480   1.732   3.631   2.936 -0.1298  0.1735 -0.9733
17663TIP3    H274481   1.688   3.771   2.897 -1.0668 -0.4432 -2.1349
17664TIP3   OH274482   5.053   5.944  16.012  0.5188  0.2354  0.9191
17664TIP3    H174483   4.959   5.961  16.004  0.2407 -1.5732  0.1292
17664TIP3    H274484   5.084   5.941  15.922  1.6784  2.5125  1.2109
17665TIP3   OH274485   4.721   4.654  11.184  0.0547 -0.0750  0.5860
17665TIP3    H174486   4.737   4.581  11.244 -0.5796 -2.6294 -2.2259
17665TIP3    H274487   4.629   4.677  11.200 -0.6279 -1.8946 -0.5485
17666TIP3   OH274488   1.018   1.390   1.201  0.2188  0.0513  0.1978
17666TIP3    H174489   1.102   1.371   1.242  0.1818  0.7743  0.6130
17666TIP3    H274490   1.041   1.426   1.115  0.2976 -1.2721 -0.3459
17667TIP3   OH274491   4.742   2.544   3.773 -0.6638 -0.4510 -0.0361
17667TIP3    H174492   4.734   2.479   3.842  0.5532  0.0095  0.5443
17667TIP3    H274493   4.694   2.506   3.699 -1.0630 -1.4177  0.7064
17668TIP3   OH274494   0.960   2.930   0.566  0.1675  0.0559 -0.0258
17668TIP3    H174495   0.971   3.006   0.623  0.2889  0.0511 -0.0406
17668TIP3    H274496   0.867   2.911   0.567  0.2892 -0.4915  0.8750
17669TIP3   OH274497   0.383   1.932   5.242  0.4587  0.2289  0.1679
17669TIP3    H174498   0.477   1.915   5.245  0.0744 -1.6584  4.3744
17669TIP3    H274499   0.371   2.013   5.291 -0.4217 -1.4014  2.7152
17670TIP3   OH274500   2.952   3.475  16.029  0.7535 -0.1584 -0.2080
17670TIP3    H174501   2.986   3.519  16.107 -0.2830  0.1682  0.0629
17670TIP3    H274502   2.971   3.536  15.958 -1.1964  1.0004  0.2483
17671TIP3   OH274503   4.320   5.552   0.373  0.4402 -0.1757  0.0581
17671TIP3    H174504   4.386   5.613   0.339  0.4698  1.0482  2.2056
17671TIP3    H274505   4.366   5.470   0.385  0.8230 -0.1664 -1.2741
17672TIP3   OH274506   1.939   5.749  13.266  0.4841 -0.5272  0.1813
17672TIP3    H174507   1.894   5.817  13.316  0.0356 -1.3603  0.9140
17672TIP3    H274508   2.032   5.771  13.274  0.2430  1.0386 -1.1117
17673TIP3   OH274509   2.062   2.806   5.232 -0.3429  0.7042  0.2833
17673TIP3    H174510   2.019   2.778   5.312 -0.0484 -0.8659 -0.0925
17673TIP3    H274511   2.155   2.803   5.252 -0.2732  0.4057 -0.0761
17674TIP3   OH274512   3.810   3.143  11.257  0.1069 -0.0448 -0.5479
17674TIP3    H174513   3.825   3.232  11.288  1.4654 -0.0483 -1.1433
17674TIP3    H274514   3.849   3.087  11.325 -0.8598 -0.2014 -0.1107
17675TIP3   OH274515   1.905   3.424  12.617 -0.3875 -0.2620  0.0416
17675TIP3    H174516   1.952   3.369  12.680  2.1830  0.2006 -1.3984
17675TIP3    H274517   1.974   3.472  12.571 -2.4608  2.6075 -0.2016
17676TIP3   OH274518   0.958   4.006   4.452  0.2540  0.4299  0.5104
17676TIP3    H174519   0.982   3.918   4.481  1.4553  0.5440 -0.1365
17676TIP3    H274520   0.966   4.003   4.356 -0.6762  0.9525  0.4134
17677TIP3   OH274521   6.482   3.864   1.900 -0.2733  0.1742 -0.4566
17677TIP3    H174522   6.493   3.793   1.962  1.4740 -1.6172 -2.7589
17677TIP3    H274523   6.405   3.839   1.848  1.0659 -0.6549 -2.0621
17678TIP3   OH274524   2.509   4.772   4.267  0.1344  0.2775  0.9744
17678TIP3    H174525   2.461   4.755   4.186  1.5009 -1.2580  0.4507
17678TIP3    H274526   2.461   4.843   4.309 -1.9861 -0.5238 -0.0259
17679TIP3   OH274527   6.706   5.216   3.007 -0.0392  0.0727  0.6268
17679TIP3    H174528   6.783   5.272   3.000 -1.7599  2.3622 -0.9511
17679TIP3    H274529   6.734   5.133   2.968  2.2565  0.1268  2.0583
17680TIP3   OH274530   4.000   1.426  17.207 -0.1907  0.4854 -0.2492
17680TIP3    H174531   3.961   1.436  17.120  0.2983 -1.1858 -0.6770
17680TIP3    H274532   4.073   1.489  17.207 -1.5543  2.0978 -0.2082
17681TIP3   OH274533   6.209   0.185  12.068 -0.0038 -0.1425  0.1085
17681TIP3    H174534   6.124   0.196  12.025  0.8159  1.5098 -1.1507
17681TIP3    H274535   6.270   0.238  12.015  1.7486 -1.0451  1.1604
17682TIP3   OH274536   6.791   3.105   2.163  0.4173  0.0157  0.1949
17682TIP3    H174537   6.698   3.120   2.150  0.5016  0.0185 -0.4160
17682TIP3    H274538   6.805   3.120   2.257  0.0987  1.5417  0.0062
17683TIP3   OH274539   5.284   3.388  16.800  0.0488  0.1709 -0.2561
17683TIP3    H174540   5.257   3.319  16.739 -3.1264  0.8087  0.3494
17683TIP3    H274541   5.260   3.354  16.886 -0.5462  1.5862  0.1452
17684TIP3   OH274542   4.296   0.394  13.134 -0.3310 -0.0894  0.4669
17684TIP3    H174543   4.390   0.388  13.113 -0.5329  1.9844 -1.1988
17684TIP3    H274544   4.293   0.450  13.212 -0.1858  0.0389  0.3816
17685TIP3   OH274545   4.589   3.577  11.813 -0.3479 -0.1565 -0.6583
17685TIP3    H174546   4.516   3.533  11.770 -1.0003 -0.6118  0.8837
17685TIP3    H274547   4.605   3.655  11.760 -1.9101 -0.0799 -1.0450
17686TIP3   OH274548   1.196   0.036  11.664 -0.1964  0.1436  0.5126
17686TIP3    H174549   1.135   0.032  11.590  0.0377  1.5488  0.2346
17686TIP3    H274550   1.205  -0.055  11.693 -1.4567 -0.2266 -0.2353
17687TIP3   OH274551   1.341   5.191   1.533 -0.8425 -0.2227 -0.1216
17687TIP3    H174552   1.392   5.171   1.612 -0.7843  1.9370  0.4146
17687TIP3    H274553   1.369   5.125   1.469  0.5651 -0.7775  1.0392
17688TIP3   OH274554   0.823   1.643  16.489  0.6638  0.1348 -0.1127
17688TIP3    H174555   0.879   1.632  16.566 -0.7710 -0.5943  0.8495
17688TIP3    H274556   0.779   1.559  16.479 -1.0854  1.0473 -0.1836
17689TIP3   OH274557   2.088   4.806   3.997 -0.1064 -0.1908 -0.7813
17689TIP3    H174558   2.045   4.883   4.033 -2.8906 -2.0376  0.0601
17689TIP3    H274559   2.160   4.789   4.056  0.0864  1.3324 -0.5612
17690TIP3   OH274560   2.256   1.810  11.443  0.4019 -0.1704 -0.1100
17690TIP3    H174561   2.245   1.748  11.371  0.3498 -0.3376  0.0407
17690TIP3    H274562   2.321   1.873  11.412  0.8694 -0.6273 -0.0459
17691TIP3   OH274563   1.343   2.560  14.832 -0.5161  0.5034  0.9031
17691TIP3    H174564   1.309   2.635  14.782 -2.0245 -0.8948 -0.2106
17691TIP3    H274565   1.298   2.566  14.916 -1.1354  0.4798  0.5804
17692TIP3   OH274566   1.292   5.050   5.736  0.4615  0.0329  0.0300
17692TIP3    H174567   1.224   5.065   5.671 -0.8993 -3.3589  0.5305
17692TIP3    H274568   1.346   4.981   5.698  0.9743 -0.3886  1.4972
17693TIP3   OH274569   4.699   5.689  10.313 -0.2604 -0.2431 -0.3511
17693TIP3    H174570   4.790   5.659  10.304 -0.7542 -2.7462  2.1937
17693TIP3    H274571   4.704   5.756  10.382 -0.4599 -1.0556  0.4611
17694TIP3   OH274572   3.457   4.819   6.098 -0.3676  0.7645 -0.0193
17694TIP3    H174573   3.465   4.793   6.189  2.4887 -1.4553 -0.8169
17694TIP3    H274574   3.425   4.741   6.053 -1.3003  1.6997 -1.0099
17695TIP3   OH274575   6.738   5.090  13.127 -0.1915 -0.4399  0.0932
17695TIP3    H174576   6.670   5.027  13.150  1.1695 -1.9046  0.2368
17695TIP3    H274577   6.780   5.111  13.211 -0.9917  1.0878  0.1187
17696TIP3   OH274578   5.288   0.161  12.655  0.1017  0.0912  0.0670
17696TIP3    H174579   5.369   0.158  12.603 -1.2914  1.3784 -2.2596
17696TIP3    H274580   5.311   0.118  12.737  2.4639 -1.7843 -1.5003
17697TIP3   OH274581   6.031   3.153   4.206 -0.0947 -0.1409 -0.6172
17697TIP3    H174582   5.973   3.108   4.145 -1.8423  0.1729  0.7787
17697TIP3    H274583   6.032   3.244   4.177 -1.3770  0.1236  0.1362
17698TIP3   OH274584   1.652   4.920  12.736 -0.5346 -0.6640 -0.5582
17698TIP3    H174585   1.726   4.962  12.782 -1.4120  0.8728 -0.4999
17698TIP3    H274586   1.685   4.904  12.648  0.6660 -2.2466  0.1482
17699TIP3   OH274587   3.128   3.511   2.570 -0.1754 -0.1397  0.1030
17699TIP3    H174588   3.174   3.469   2.643  1.1868  0.2173 -0.5273
17699TIP3    H274589   3.197   3.555   2.521 -1.1093 -0.2860 -1.3525
17700TIP3   OH274590   0.232   6.249   4.741  0.4077 -0.0998 -0.0337
17700TIP3    H174591   0.185   6.166   4.732 -0.0785  0.0137  1.3532
17700TIP3    H274592   0.267   6.266   4.654 -1.0740 -0.8282 -0.7850
17701TIP3   OH274593   2.015   0.435   1.556  0.0543 -1.0550  0.5811
17701TIP3    H174594   2.049   0.522   1.535 -1.3593 -0.4308  0.8132
17701TIP3    H274595   2.080   0.375   1.521  1.2897  0.0991  0.8336
17702TIP3   OH274596   3.015   5.166   0.877 -0.1249 -0.0272 -0.3572
17702TIP3    H174597   2.993   5.188   0.787 -0.3277  0.9178 -0.0859
17702TIP3    H274598   2.932   5.142   0.918 -0.3424  1.3464  0.0600
17703TIP3   OH274599   1.918   2.294  13.120  0.3907  0.0594 -0.2108
17703TIP3    H174600   1.916   2.233  13.046  1.7006  0.3947 -0.5505
17703TIP3    H274601   1.988   2.356  13.098  0.7195  0.2384  1.2467
17704TIP3   OH274602   5.333   5.274  12.841  0.1572 -0.8557  0.0069
17704TIP3    H174603   5.259   5.252  12.897 -0.0725 -0.1543 -0.0206
17704TIP3    H274604   5.362   5.360  12.871  0.3418 -0.6944 -0.6198
17705TIP3   OH274605   3.133   0.075  11.119  0.0393 -0.2523  0.0539
17705TIP3    H174606   3.168   0.004  11.172  0.7883 -1.6117 -2.1801
17705TIP3    H274607   3.062   0.035  11.068  1.2365  0.2473 -2.0907
17706TIP3   OH274608   1.203   6.559   3.481  0.4733 -0.1394  0.6259
17706TIP3    H174609   1.258   6.503   3.427  2.1591 -0.1881  2.3499
17706TIP3    H274610   1.231   6.541   3.571 -2.4431 -0.2419  1.5565
17707TIP3   OH274611   0.348   3.113  11.318 -0.0879  0.3078 -0.1441
17707TIP3    H174612   0.441   3.137  11.313 -0.3706  1.5521  0.5376
17707TIP3    H274613   0.332   3.065  11.237  1.5984 -1.5407  0.5544
17708TIP3   OH274614   4.736   4.790  12.404 -0.2144  0.0470  0.2097
17708TIP3    H174615   4.706   4.712  12.451 -2.0423  1.1213  0.8795
17708TIP3    H274616   4.668   4.805  12.338 -0.1067  1.3130  0.3699
17709TIP3   OH274617   3.750   1.357  16.319 -0.0896  0.1802 -0.1299
17709TIP3    H174618   3.769   1.283  16.378  0.3545  1.4863  1.3928
17709TIP3    H274619   3.666   1.334  16.279  0.3618 -1.4676 -0.1722
17710TIP3   OH274620   3.522   6.136  13.552 -0.3362 -0.2261  0.3144
17710TIP3    H174621   3.534   6.214  13.499  1.7737 -1.0879 -0.5380
17710TIP3    H274622   3.494   6.069  13.490  1.7215 -1.1261  0.3179
17711TIP3   OH274623   2.630   6.539   4.723 -0.0219 -0.4349 -0.7243
17711TIP3    H174624   2.599   6.452   4.749  1.5861 -1.1599 -1.1499
17711TIP3    H274625   2.593   6.599   4.788 -1.2628 -1.4179 -0.5127
17712TIP3   OH274626   3.761   1.519   1.979  0.3028 -0.8064  0.5435
17712TIP3    H174627   3.758   1.425   1.959  0.2956 -1.1368  2.0338
17712TIP3    H274628   3.843   1.530   2.028  0.4311  0.0159  0.1507
17713TIP3   OH274629   3.913   2.400   5.577  0.1619 -0.4603  0.2599
17713TIP3    H174630   3.832   2.377   5.623  0.8029  0.6741  2.0427
17713TIP3    H274631   3.956   2.316   5.561 -0.1169 -0.9046  1.7218
17714TIP3   OH274632   2.938   6.331  15.950 -0.5682  0.3609  1.3194
17714TIP3    H174633   3.030   6.330  15.923 -0.5850  2.6200  1.1182
17714TIP3    H274634   2.911   6.239  15.944  1.0763 -0.0329 -0.6068
17715TIP3   OH274635   1.100   6.312   1.065 -0.4091 -0.1044  0.0530
17715TIP3    H174636   1.181   6.291   1.111 -1.8238  1.2631  3.2939
17715TIP3    H274637   1.075   6.231   1.022  1.7182 -1.0324  0.5209
17716TIP3   OH274638   5.509   3.485   4.515  0.2376  0.4485  0.3465
17716TIP3    H174639   5.470   3.445   4.593  1.3137 -2.1369 -0.3944
17716TIP3    H274640   5.583   3.535   4.548 -0.5766  1.1412  1.1823
17717TIP3   OH274641   4.011   1.016  15.392  0.2764  0.0535 -0.0233
17717TIP3    H174642   4.097   0.991  15.426  0.6128  0.4029 -0.6273
17717TIP3    H274643   3.973   1.072  15.461  0.3026 -0.5444  0.4843
17718TIP3   OH274644   2.278   1.739  12.144 -0.7422  0.0002 -0.9183
17718TIP3    H174645   2.362   1.707  12.111 -1.4867 -2.7387 -0.2904
17718TIP3    H274646   2.249   1.801  12.077  2.0597  1.5146 -0.8278
17719TIP3   OH274647   0.959   6.224   0.003 -0.1749  0.0597  0.0102
17719TIP3    H174648   0.923   6.153   0.056 -1.7057  1.3214  0.6939
17719TIP3    H274649   0.883   6.275  -0.025  1.0813  3.2850  2.1551
17720TIP3   OH274650   5.166   2.011   3.762 -0.2481 -0.1573 -0.1677
17720TIP3    H174651   5.136   2.003   3.672  0.6365 -0.7539 -0.4196
17720TIP3    H274652   5.261   2.000   3.757 -0.3084 -1.3912  0.9678
17721TIP3   OH274653   6.673   4.730   3.156  0.0253  0.3196 -0.0520
17721TIP3    H174654   6.697   4.638   3.162 -1.0071  0.0770  0.4320
17721TIP3    H274655   6.680   4.750   3.063 -0.9303 -0.5770 -0.3264
17722TIP3   OH274656   4.535   5.015   5.216 -0.1931  0.5206 -0.1012
17722TIP3    H174657   4.452   5.024   5.170 -0.4501  0.3328  0.3190
17722TIP3    H274658   4.600   5.055   5.158 -0.8156  2.1364  0.2804
17723TIP3   OH274659   4.461   6.232  12.278 -0.0864 -0.3331  0.1043
17723TIP3    H174660   4.540   6.182  12.298  0.4329 -0.7454 -2.7763
17723TIP3    H274661   4.493   6.318  12.252 -0.5250 -0.5626 -1.2702
17724TIP3   OH274662   0.853   6.343  15.865 -0.2313 -0.3716  0.0924
17724TIP3    H174663   0.837   6.384  15.950  1.8700 -1.4143  1.0222
17724TIP3    H274664   0.917   6.275  15.883  3.0542  1.7416 -2.9251
17725TIP3   OH274665   0.222   5.611  11.586  0.4036  0.0201  0.4046
17725TIP3    H174666   0.256   5.678  11.528  1.4211 -0.4450  0.4582
17725TIP3    H274667   0.190   5.660  11.663 -2.3861  0.7829 -1.1593
17726TIP3   OH274668   0.788   0.667   2.933  1.0232 -0.4003 -0.2697
17726TIP3    H174669   0.823   0.580   2.954 -0.2697 -0.5560  1.3375
17726TIP3    H274670   0.705   0.648   2.887  0.3398 -0.0272  0.7941
17727TIP3   OH274671   6.818   5.037   1.046 -0.0169  0.4242  0.3229
17727TIP3    H174672   6.852   5.016   1.133  0.1182  1.8322  0.6209
17727TIP3    H274673   6.878   4.993   0.986  0.6937  0.5740  0.9172
17728TIP3   OH274674   2.494   6.496  17.099  0.3016 -0.2162  0.0798
17728TIP3    H174675   2.515   6.506  17.191  0.4411  1.5060 -0.1231
17728TIP3    H274676   2.573   6.459  17.060 -0.0797 -1.8322  0.7873
17729TIP3   OH274677   5.020   6.579   4.539  0.0687 -0.2113 -0.1828
17729TIP3    H174678   5.008   6.559   4.446 -1.6758 -0.3331  0.0431
17729TIP3    H274679   5.114   6.569   4.554  0.1089 -2.1132 -1.4856
17730TIP3   OH274680   0.515   3.268   2.348 -0.1434  0.4410  0.0501
17730TIP3    H174681   0.598   3.247   2.390 -0.4747  1.1683  1.0669
17730TIP3    H274682   0.539   3.326   2.275  0.1745  1.1060  0.6862
17731TIP3   OH274683   6.050   3.203  13.381  0.4001 -0.7982 -0.2144
17731TIP3    H174684   6.079   3.286  13.343 -0.6936 -0.5378 -0.5108
17731TIP3    H274685   6.021   3.227  13.470 -2.4250 -0.3484 -1.2048
17732TIP3   OH274686   0.274   3.690   1.692 -0.2159 -0.3309 -0.2438
17732TIP3    H174687   0.287   3.760   1.628  0.5431 -1.9281 -1.9041
17732TIP3    H274688   0.311   3.723   1.773 -0.9136  1.6189 -0.6971
17733TIP3   OH274689   6.430   0.997  14.693  0.2549 -0.3782 -0.3144
17733TIP3    H174690   6.501   1.024  14.751  0.6084  0.2249 -1.0278
17733TIP3    H274691   6.364   1.065  14.703 -0.1444 -0.8324  0.1930
17734TIP3   OH274692   2.996   5.900   3.765  0.4352  0.0950  0.4985
17734TIP3    H174693   2.957   5.820   3.798 -0.2355  0.9909  1.9103
17734TIP3    H274694   3.004   5.886   3.670 -1.7402 -0.7494  0.4205
17735TIP3   OH274695   5.603   4.505   1.875  0.3080 -0.6487 -0.3055
17735TIP3    H174696   5.609   4.507   1.779  1.4164 -1.8106 -0.2726
17735TIP3    H274697   5.676   4.450   1.902  2.2664  2.6855  1.4312
17736TIP3   OH274698   1.324   4.924  13.389  0.4846  0.1599  0.0264
17736TIP3    H174699   1.407   4.893  13.353  0.3669  0.2249 -0.3145
17736TIP3    H274700   1.324   4.895  13.480  0.6548 -0.2833 -0.1118
17737TIP3   OH274701   0.883   0.840  10.997 -0.0395 -0.8376 -0.4491
17737TIP3    H174702   0.828   0.890  11.058 -0.6540  1.0180 -2.4732
17737TIP3    H274703   0.924   0.907  10.942  0.9949 -2.4564 -1.6654
17738TIP3   OH274704   1.290   5.830  11.698  0.1139  0.4794 -0.7011
17738TIP3    H174705   1.333   5.873  11.624  0.9795 -0.3441 -0.6980
17738TIP3    H274706   1.324   5.875  11.775 -1.9421  2.3447 -0.8483
17739TIP3   OH274707   0.626   1.777  16.334  0.0063  0.1698  0.0256
17739TIP3    H174708   0.701   1.740  16.381 -1.3904 -1.5058  1.0098
17739TIP3    H274709   0.550   1.748  16.384 -1.2724  2.6087 -0.4328
17740TIP3   OH274710   4.493   6.279   4.226 -0.3176 -0.5143  0.1057
17740TIP3    H174711   4.562   6.285   4.159 -0.0780 -0.1532  0.3862
17740TIP3    H274712   4.537   6.298   4.308 -0.8380  0.1499  0.2367
17741TIP3   OH274713   2.491   2.511   0.685  0.3351 -0.2247 -0.1507
17741TIP3    H174714   2.516   2.422   0.709  2.6149  0.5460  0.4696
17741TIP3    H274715   2.523   2.565   0.758  0.4464  1.2842 -1.2913
17742TIP3   OH274716   5.308   3.238   2.647  0.1261  0.1076  0.0823
17742TIP3    H174717   5.396   3.222   2.613  0.9337  0.0689  2.0863
17742TIP3    H274718   5.311   3.204   2.737 -2.4462 -1.4073 -0.3717
17743TIP3   OH274719   5.894   3.714  16.471 -0.2078 -0.5243  0.0266
17743TIP3    H174720   5.889   3.809  16.471  1.0638 -0.4458  0.4488
17743TIP3    H274721   5.902   3.690  16.379  0.4178 -0.1661 -0.0133
17744TIP3   OH274722   5.187   6.693   0.137 -0.4459 -0.2552  0.5226
17744TIP3    H174723   5.170   6.600   0.152 -1.1526 -0.1767  0.2281
17744TIP3    H274724   5.167   6.735   0.221 -2.0029 -0.1290  0.1066
17745TIP3   OH274725   0.746   0.890   4.013 -0.2854 -0.5509 -0.4098
17745TIP3    H174726   0.802   0.962   4.039 -1.0873  0.2342 -0.8249
17745TIP3    H274727   0.683   0.929   3.952 -0.6110 -1.6314 -0.7826
17746TIP3   OH274728   3.061   5.146   2.152 -0.5949 -0.0147  0.3567
17746TIP3    H174729   3.126   5.212   2.126 -0.3418 -0.0398  0.9124
17746TIP3    H274730   3.020   5.119   2.070 -1.2543  1.4177  0.2057
17747TIP3   OH274731   6.573   2.035   1.474  0.2297 -0.5705 -0.2367
17747TIP3    H174732   6.492   1.985   1.480 -0.4356  0.5729  0.6546
17747TIP3    H274733   6.578   2.082   1.557  3.1940 -2.6599  0.8435
17748TIP3   OH274734   0.712   2.950  15.117 -0.1369 -0.0237 -0.1135
17748TIP3    H174735   0.753   2.868  15.145  0.5079  0.2250 -0.3210
17748TIP3    H274736   0.656   2.926  15.043 -0.8432 -0.4673  0.5544
17749TIP3   OH274737   0.495   3.500   5.322 -0.5738 -0.5212 -0.7114
17749TIP3    H174738   0.496   3.541   5.235  0.2870  1.2671  0.1224
17749TIP3    H274739   0.553   3.424   5.313  0.3844  0.2728 -1.4175
17750TIP3   OH274740   2.857   4.522  10.921  0.4293 -0.2957 -0.3451
17750TIP3    H174741   2.821   4.482  11.000  2.1026 -1.0419  0.0791
17750TIP3    H274742   2.795   4.592  10.898 -0.9836 -1.2232  0.5976
17751TIP3   OH274743   0.698   4.986   4.134  0.2821  0.7771  0.2346
17751TIP3    H174744   0.704   5.077   4.107  2.9105  0.5888  0.1266
17751TIP3    H274745   0.787   4.952   4.128 -0.9638 -2.3875 -1.6729
17752TIP3   OH274746   1.481   0.265  13.983 -0.4228 -0.0172 -0.0928
17752TIP3    H174747   1.417   0.285  13.915 -1.3653 -0.4548  0.6570
17752TIP3    H274748   1.501   0.172  13.972  0.7444  0.3081 -0.8674
17753TIP3   OH274749   0.887   4.906  12.524  0.1085  0.0551  0.1394
17753TIP3    H174750   0.917   4.896  12.615  0.1818  0.2950  0.1409
17753TIP3    H274751   0.928   4.987  12.494 -0.6465  0.4546  0.1819
17754TIP3   OH274752   5.619   5.331  17.123 -0.1836 -0.2941  0.1287
17754TIP3    H174753   5.543   5.331  17.182 -0.9937 -0.0268 -0.9087
17754TIP3    H274754   5.584   5.356  17.038  0.7374 -1.9990 -0.7891
17755TIP3   OH274755   6.064   0.460   2.100  0.4651 -0.9532  0.0537
17755TIP3    H174756   6.003   0.530   2.073 -1.0574 -1.4849  1.9545
17755TIP3    H274757   6.150   0.491   2.072 -0.2418  1.4890  0.4289
17756TIP3   OH274758   5.779   4.785  13.399  0.1799 -0.2276 -0.2736
17756TIP3    H174759   5.789   4.779  13.304 -1.9209 -0.1791 -0.5327
17756TIP3    H274760   5.716   4.716  13.420 -1.5037  1.5517  0.6964
17757TIP3   OH274761   3.362   2.094   4.431  0.2297  0.5311 -0.0107
17757TIP3    H174762   3.286   2.114   4.486 -0.9157 -0.5373 -1.1905
17757TIP3    H274763   3.431   2.073   4.494 -0.9172 -0.1650  1.0476
17758TIP3   OH274764   6.722   6.412   3.974  0.1732 -0.1677  0.4203
17758TIP3    H174765   6.762   6.459   3.900 -0.1817 -0.4998  0.0156
17758TIP3    H274766   6.706   6.480   4.039  2.5440 -0.2190  1.0978
17759TIP3   OH274767   2.435   5.633  13.158  0.1115  0.2829  0.3630
17759TIP3    H174768   2.356   5.579  13.161  1.8529 -2.3735 -0.2862
17759TIP3    H274769   2.430   5.687  13.237 -2.0230 -0.3007  0.6483
17760TIP3   OH274770   3.242   5.895   1.360 -0.5168  0.3124 -0.5419
17760TIP3    H174771   3.294   5.973   1.380 -0.3435 -0.1956  1.0980
17760TIP3    H274772   3.237   5.848   1.444  1.1174 -2.4803 -1.9466
17761TIP3   OH274773   0.403   1.498   1.793  0.3887 -0.7738 -0.7076
17761TIP3    H174774   0.368   1.496   1.882  0.0470 -0.0401 -0.8233
17761TIP3    H274775   0.496   1.479   1.804  0.6924  1.0283 -0.0149
17762TIP3   OH274776   0.299   5.995   1.981  0.8324 -0.4613 -0.3077
17762TIP3    H174777   0.352   5.921   1.952  0.3015  0.2680 -3.2834
17762TIP3    H274778   0.212   5.978   1.947  0.7634  1.6092 -1.2748
17763TIP3   OH274779   1.314   6.265  16.063  0.4009  0.0888 -0.1804
17763TIP3    H174780   1.323   6.331  15.994  2.3335  0.5793  0.4987
17763TIP3    H274781   1.349   6.308  16.142 -1.4711 -0.5762  1.0352
17764TIP3   OH274782   5.374   2.497   0.231 -0.2120  0.0049 -0.7949
17764TIP3    H174783   5.327   2.531   0.154 -1.0707 -0.3976 -0.4503
17764TIP3    H274784   5.342   2.551   0.304 -2.1033 -1.9465 -0.1216
17765TIP3   OH274785   4.462   6.445  11.804  0.3570  0.2818 -0.0825
17765TIP3    H174786   4.555   6.428  11.818  0.6146  1.2389 -0.6112
17765TIP3    H274787   4.420   6.413  11.884  0.9486 -1.6308 -0.4926
17766TIP3   OH274788   2.905   4.811   3.134 -0.2939  0.3862 -0.2784
17766TIP3    H174789   2.841   4.868   3.176  0.3856  0.5796  0.5002
17766TIP3    H274790   2.988   4.857   3.142  0.0701 -0.1933 -0.6414
17767TIP3   OH274791   2.001   4.082   5.280 -0.3049  0.4117  0.0360
17767TIP3    H174792   2.072   4.134   5.242  1.3131 -1.5951  0.2339
17767TIP3    H274793   2.000   4.107   5.372 -0.6694  1.3154 -0.2014
17768TIP3   OH274794   3.723   2.025  13.387  0.3893 -0.2800  0.4269
17768TIP3    H174795   3.630   2.024  13.365  0.3709  0.1267  0.4736
17768TIP3    H274796   3.761   1.955  13.335  0.1244 -0.1834  0.0970
17769TIP3   OH274797   5.312   1.595  14.057 -0.2778 -0.3959 -0.0859
17769TIP3    H174798   5.377   1.616  14.124  0.6246  0.8133 -1.3068
17769TIP3    H274799   5.330   1.504  14.034  0.2246 -0.4275  0.4294
17770TIP3   OH274800   3.796   6.177   2.282  0.4517 -0.4950  0.2790
17770TIP3    H174801   3.815   6.100   2.229 -0.4585 -0.9919  0.6521
17770TIP3    H274802   3.827   6.251   2.230  0.7728 -1.0739 -0.3537
17771TIP3   OH274803   1.104   4.990  10.788 -0.0282  0.1141 -0.2223
17771TIP3    H174804   1.194   5.000  10.756 -0.2734  1.7316 -0.4598
17771TIP3    H274805   1.095   4.897  10.805  0.8685 -0.4588 -2.6615
17772TIP3   OH274806   0.660   0.417   3.978 -0.8963 -0.0740  0.5939
17772TIP3    H174807   0.739   0.372   4.007 -0.1894  0.6029 -0.2596
17772TIP3    H274808   0.672   0.428   3.883 -1.3907  1.2510  0.6757
17773TIP3   OH274809   1.606   3.437   3.299  0.5505 -0.5366 -0.4597
17773TIP3    H174810   1.624   3.520   3.343  1.3804 -1.4346  0.9551
17773TIP3    H274811   1.686   3.419   3.249 -0.6768  0.8584 -3.0127
17774TIP3   OH274812   0.410   6.584   0.888  1.3673  0.8772 -0.1054
17774TIP3    H174813   0.450   6.648   0.947  3.5107 -2.1499  1.8256
17774TIP3    H274814   0.332   6.554   0.934  1.7002  0.3008  0.0796
17775TIP3   OH274815   1.082   0.504  16.211  0.0321  0.1528 -0.3190
17775TIP3    H174816   1.011   0.535  16.155 -0.1887  1.0755  0.4386
17775TIP3    H274817   1.126   0.437  16.160  0.1863  1.3648 -1.8144
17776TIP3   OH274818   2.394   1.955  11.989  0.3422 -0.0052 -0.7095
17776TIP3    H174819   2.487   1.954  12.008  0.5930 -0.0208 -1.8940
17776TIP3    H274820   2.389   1.962  11.893 -0.8614 -0.3311 -0.6798
17777TIP3   OH274821   0.633   2.615  14.502  0.4905  0.5077  0.2521
17777TIP3    H174822   0.696   2.558  14.457 -0.0468 -0.8758  1.2243
17777TIP3    H274823   0.688   2.684  14.540  1.5510 -1.0846  1.7111
17778TIP3   OH274824   1.442   0.581  16.718  0.0452  0.1425  0.2332
17778TIP3    H174825   1.448   0.516  16.648 -0.5573  0.2191  0.1118
17778TIP3    H274826   1.358   0.624  16.705  0.8059  1.5442 -0.2124
17779TIP3   OH274827   4.881   1.938  12.939  1.1512 -0.5171  0.4011
17779TIP3    H174828   4.910   1.922  13.029  1.5406  1.1402  0.5860
17779TIP3    H274829   4.787   1.956  12.947  1.4204  0.8696  0.6550
17780TIP3   OH274830   2.245   1.558  15.741 -0.8884  0.1119  0.3864
17780TIP3    H174831   2.298   1.632  15.769  2.1405 -1.0142 -2.0502
17780TIP3    H274832   2.195   1.591  15.666 -0.0076 -0.1159 -0.3082
17781TIP3   OH274833   4.467   4.616  15.079 -0.0212 -0.4880  0.5066
17781TIP3    H174834   4.405   4.557  15.037 -0.2868 -0.4677  0.8719
17781TIP3    H274835   4.414   4.690  15.107  0.5920  0.7744 -1.5640
17782TIP3   OH274836   4.541   2.811  13.447 -0.0654  0.3626  0.4569
17782TIP3    H174837   4.567   2.719  13.454  0.6149  0.5905  0.9784
17782TIP3    H274838   4.518   2.837  13.536  1.6253  1.2354  0.6766
17783TIP3   OH274839   4.807   5.842  12.168  0.1201 -0.3024 -0.3631
17783TIP3    H174840   4.738   5.868  12.107  0.1667  0.7867  0.0311
17783TIP3    H274841   4.783   5.754  12.197 -1.4190  0.3170  0.2387
17784TIP3   OH274842   5.169   3.363   3.580  0.1273  0.0586  0.2443
17784TIP3    H174843   5.145   3.396   3.667 -0.0287 -0.6028  0.4574
17784TIP3    H274844   5.146   3.270   3.583 -1.3338  0.3675 -1.0587
17785TIP3   OH274845   1.282   5.323  15.685  0.1920  0.9728 -0.3437
17785TIP3    H174846   1.312   5.250  15.631 -0.7774 -0.1801  0.6425
17785TIP3    H274847   1.248   5.281  15.764  1.5348  2.6362  1.1345
17786TIP3   OH274848   3.972   3.482  12.483  0.0150 -0.7090  0.0401
17786TIP3    H174849   3.906   3.457  12.418  1.3921  2.7878 -2.8428
17786TIP3    H274850   3.966   3.577  12.487  3.5046 -0.4947  1.2462
17787TIP3   OH274851   1.351   0.887  13.108  0.1723  0.3330 -0.0130
17787TIP3    H174852   1.370   0.965  13.056  0.3213  0.7194  0.6227
17787TIP3    H274853   1.316   0.824  13.044 -4.1451  2.3950  0.1239
17788TIP3   OH274854   4.511   0.276  15.853 -0.0465  1.0669  0.2309
17788TIP3    H174855   4.424   0.260  15.817  0.0652 -0.2128  0.5103
17788TIP3    H274856   4.528   0.368  15.835 -1.3778  1.2726  0.0032
17789TIP3   OH274857   1.052   5.780  11.806  0.5277 -0.2905  0.1215
17789TIP3    H174858   1.041   5.857  11.863  0.7290  0.7662 -1.2403
17789TIP3    H274859   1.133   5.798  11.757  0.2061 -1.0568 -0.6971
17790TIP3   OH274860   5.786   2.160  11.776 -0.4266 -0.2287  0.0914
17790TIP3    H174861   5.713   2.210  11.740 -2.7487 -2.9408  0.8410
17790TIP3    H274862   5.843   2.144  11.701 -1.9633 -0.3416 -1.0771
17791TIP3   OH274863   1.272   1.554   6.725  0.4094 -0.4410  0.1246
17791TIP3    H174864   1.181   1.553   6.755  0.3676 -1.2663  0.0063
17791TIP3    H274865   1.279   1.476   6.669  1.0586 -0.1131 -0.2569
17792TIP3   OH274866   4.450   3.639   4.278  0.1215  0.6267  0.5798
17792TIP3    H174867   4.494   3.598   4.353 -1.0907  0.1298  1.0332
17792TIP3    H274868   4.501   3.611   4.202  0.4527 -0.1326  1.0752
17793TIP3   OH274869   0.661   3.036   0.258  0.0549  0.4144  0.0504
17793TIP3    H174870   0.657   3.042   0.163  0.3924  1.4736  0.1015
17793TIP3    H274871   0.621   2.951   0.278  0.5495 -0.0889 -1.0683
17794TIP3   OH274872   1.439   0.337  13.337  0.0465  0.4487  0.3657
17794TIP3    H174873   1.355   0.369  13.372 -0.2553  0.4747 -0.3715
17794TIP3    H274874   1.498   0.412  13.344 -0.1167  0.5686  0.4651
17795TIP3   OH274875   6.510   3.871   3.769  0.2863  0.0845  0.2057
17795TIP3    H174876   6.429   3.911   3.798  0.8865  0.9378  0.7242
17795TIP3    H274877   6.529   3.912   3.685  0.5900  0.4639  0.4568
17796TIP3   OH274878   1.869   5.030   4.826 -0.0711  0.1612  0.1281
17796TIP3    H174879   1.806   5.093   4.791 -0.4671 -0.2773  0.0478
17796TIP3    H274880   1.831   4.945   4.807 -0.0203 -0.0923  1.1429
17797TIP3   OH274881   0.484   5.646  12.078  0.2577  0.5054 -0.1423
17797TIP3    H174882   0.575   5.672  12.060  0.1009 -0.3750 -2.3168
17797TIP3    H274883   0.477   5.557  12.042 -1.7496  0.9739 -0.9622
17798TIP3   OH274884   3.958   5.984   0.420  0.0528  0.6585  0.0206
17798TIP3    H174885   3.986   5.924   0.489 -2.1040  1.1434  1.3785
17798TIP3    H274886   3.972   6.071   0.457 -0.2135  0.9298 -0.5217
17799TIP3   OH274887   5.103   2.363  11.633 -0.2886  0.1591  0.2670
17799TIP3    H174888   5.024   2.378  11.581 -0.4541  2.8872  1.2104
17799TIP3    H274889   5.164   2.322  11.572 -1.5377  0.4489 -1.2014
17800TIP3   OH274890   6.277   4.048   0.979  0.6441  0.2879  0.0574
17800TIP3    H174891   6.317   3.961   0.977 -0.0362 -0.0634  1.2918
17800TIP3    H274892   6.183   4.032   0.978  0.5109  0.9822  1.0070
17801TIP3   OH274893   6.172   1.122  14.627  0.4020  0.3479 -0.0735
17801TIP3    H174894   6.160   1.178  14.550 -1.0797  1.4133  0.9265
17801TIP3    H274895   6.150   1.035  14.596 -2.2628  1.0843 -0.3263
17802TIP3   OH274896   0.737   0.075  11.509  0.4517  0.1938 -0.6001
17802TIP3    H174897   0.653   0.030  11.495  0.2593  0.3091  0.1264
17802TIP3    H274898   0.719   0.167  11.490  0.4937  0.1701 -0.7530
17803TIP3   OH274899   1.884   1.136   6.843 -0.1850  0.2651  0.3988
17803TIP3    H174900   1.917   1.115   6.931  0.6308  1.7422  0.4499
17803TIP3    H274901   1.947   1.095   6.784  0.6388  1.3704  0.5022
17804TIP3   OH274902   3.619   0.695  13.584  0.0692  0.4187 -0.1106
17804TIP3    H174903   3.688   0.760  13.595  1.0718 -0.7409  0.6966
17804TIP3    H274904   3.666   0.612  13.574 -1.2043 -0.6623  2.3788
17805TIP3   OH274905   5.531   4.874  12.406  0.2129  0.4494 -0.8083
17805TIP3    H174906   5.570   4.835  12.328  2.9052  1.5133 -0.0678
17805TIP3    H274907   5.595   4.857  12.475 -0.9666  1.7095  0.6175
17806TIP3   OH274908   4.368   6.154  10.646 -0.2386 -0.4456 -0.0802
17806TIP3    H174909   4.459   6.180  10.636 -0.3825 -0.3333 -1.1458
17806TIP3    H274910   4.367   6.061  10.624 -0.4155 -0.3971 -0.2811
17807TIP3   OH274911   5.297   2.676   0.907  0.1419  0.9082 -0.1149
17807TIP3    H174912   5.272   2.586   0.929  2.8197  0.2091  0.2918
17807TIP3    H274913   5.298   2.721   0.991 -3.0869  1.8989 -0.5215
17808TIP3   OH274914   4.164   2.017   0.380 -0.3812  0.3388  0.4877
17808TIP3    H174915   4.156   1.933   0.425  0.1779 -0.0680 -0.1637
17808TIP3    H274916   4.077   2.057   0.388 -0.4090  0.0852  1.5512
17809TIP3   OH274917   1.278   6.234   0.836 -0.1081 -0.6706 -0.4674
17809TIP3    H174918   1.314   6.244   0.924 -0.5238 -1.3215 -0.2191
17809TIP3    H274919   1.236   6.148   0.837 -2.6843  0.5414 -0.3934
17810TIP3   OH274920   3.268   1.686   5.705  0.7127 -0.1167  1.0801
17810TIP3    H174921   3.288   1.780   5.706 -0.4290  0.1706 -0.7892
17810TIP3    H274922   3.330   1.649   5.643 -0.3633 -0.2321  0.0729
17811TIP3   OH274923   4.183   4.338  12.815 -0.4251  0.4020 -0.4113
17811TIP3    H174924   4.188   4.400  12.743  0.4774  0.5374 -0.2412
17811TIP3    H274925   4.130   4.266  12.781 -0.3953  0.6778 -1.0458
17812TIP3   OH274926   4.777   6.335   2.289  0.6071  0.2625 -0.0326
17812TIP3    H174927   4.725   6.290   2.356  1.5144  0.6032  0.9163
17812TIP3    H274928   4.843   6.270   2.263  0.9847  0.5236  0.2594
17813TIP3   OH274929   3.126   0.863  13.981 -0.0117 -0.0962  0.5701
17813TIP3    H174930   3.094   0.920  14.051 -0.5370 -0.6636  0.7882
17813TIP3    H274931   3.093   0.776  14.003 -0.5366 -0.2028 -0.6076
17814TIP3   OH274932   1.494   3.962   3.671  0.2810 -0.3186  0.1291
17814TIP3    H174933   1.511   4.033   3.609 -2.4263  0.4698  0.2631
17814TIP3    H274934   1.572   3.906   3.665  1.2114  1.1620 -2.0070
17815TIP3   OH274935   6.088   6.307   1.967  0.6409  0.2306 -0.4868
17815TIP3    H174936   6.003   6.319   2.009  1.4118  0.0333  1.1378
17815TIP3    H274937   6.077   6.346   1.880 -1.4785 -0.8664 -0.7433
17816TIP3   OH274938   1.299   3.916   6.009 -0.0737 -1.3915 -0.6623
17816TIP3    H174939   1.335   4.004   6.002 -0.4612 -1.2032 -0.3542
17816TIP3    H274940   1.367   3.865   6.054  0.0199 -1.1704 -0.5539
17817TIP3   OH274941   4.618   3.603   5.556  0.6582  0.5106 -0.3913
17817TIP3    H174942   4.649   3.683   5.599  0.1444  0.3677  0.2597
17817TIP3    H274943   4.567   3.558   5.623  0.3810 -0.0356 -0.9617
17818TIP3   OH274944   4.264   1.506   1.420 -0.0727  0.1722  0.1669
17818TIP3    H174945   4.261   1.549   1.506 -1.0932 -1.0903  0.7901
17818TIP3    H274946   4.222   1.421   1.435  0.7915 -0.5288 -1.3214
17819TIP3   OH274947   5.756   1.537   1.581 -0.5070  0.1163  0.7454
17819TIP3    H174948   5.725   1.456   1.622  0.9040 -0.7588  0.1242
17819TIP3    H274949   5.688   1.560   1.517 -1.4785  0.0876  1.7458
17820TIP3   OH274950   4.243   5.941   4.396 -0.3267 -0.3730  0.2454
17820TIP3    H174951   4.223   5.985   4.314  0.8425  2.2803  1.3201
17820TIP3    H274952   4.338   5.948   4.405 -0.1494 -2.7135  0.7277
17821TIP3   OH274953   2.337   4.647   2.661 -0.1615  0.2311 -0.1043
17821TIP3    H174954   2.370   4.654   2.571  1.7559 -2.5084  0.3238
17821TIP3    H274955   2.286   4.727   2.674 -0.0571  0.9157 -3.4512
17822TIP3   OH274956   5.620   0.586   5.222  0.1830  0.2484  0.0366
17822TIP3    H174957   5.541   0.535   5.206 -0.8882  2.3228 -1.4403
17822TIP3    H274958   5.591   0.661   5.274  1.2661  0.7378 -0.0458
17823TIP3   OH274959   2.277   3.345   3.710  1.1175 -0.0469  1.0919
17823TIP3    H174960   2.197   3.385   3.745 -0.7287 -1.1642 -1.7439
17823TIP3    H274961   2.326   3.419   3.674  0.3223  0.3716  0.8475
17824TIP3   OH274962   3.368   4.769  11.744 -0.4061  0.3560 -0.3761
17824TIP3    H174963   3.428   4.700  11.771 -1.3293 -0.9013 -1.4569
17824TIP3    H274964   3.425   4.836  11.706  0.4932  0.1493  0.5982
17825TIP3   OH274965   2.150   5.151  12.698 -0.1959  0.1906  0.2078
17825TIP3    H174966   2.152   5.093  12.622  0.3549 -0.7894  0.9679
17825TIP3    H274967   2.240   5.152  12.729 -0.2769  1.1690  0.4253
17826TIP3   OH274968   0.787   4.499  11.126  0.0410 -0.1919  0.4474
17826TIP3    H174969   0.767   4.590  11.148 -0.3071 -0.0615 -0.3748
17826TIP3    H274970   0.853   4.504  11.057 -0.3460 -0.5526  0.0469
17827TIP3   OH274971   3.339   3.595  16.008 -0.5840  0.1624  0.8422
17827TIP3    H174972   3.307   3.540  16.080  0.5563 -0.3425  0.9663
17827TIP3    H274973   3.344   3.535  15.933  1.4982 -0.1273  1.1902
17828TIP3   OH274974   6.642   4.348   5.225  0.4818  0.1643  0.1151
17828TIP3    H174975   6.555   4.388   5.216  1.4120  1.6763 -2.8739
17828TIP3    H274976   6.665   4.362   5.317 -1.4359  1.8959  0.3890
17829TIP3   OH274977   3.591   3.277   2.160  0.2801 -0.6115 -0.2876
17829TIP3    H174978   3.580   3.272   2.065 -0.2334 -0.1444 -0.2520
17829TIP3    H274979   3.506   3.252   2.195  1.1033 -2.9878  0.0958
17830TIP3   OH274980   5.221   6.628  14.006 -0.5644  0.3518 -0.2908
17830TIP3    H174981   5.270   6.707  14.023  0.5098 -0.4878  0.5750
17830TIP3    H274982   5.210   6.587  14.092 -0.2767 -0.9090 -0.8341
17831TIP3   OH274983   5.424   3.689   5.067  0.1875  0.3819  0.7307
17831TIP3    H174984   5.374   3.740   5.131 -1.1128 -0.7429  0.6265
17831TIP3    H274985   5.459   3.615   5.117  1.5025  0.9914  0.7343
17832TIP3   OH274986   5.310   2.335   4.276  0.7735  0.0551 -0.4704
17832TIP3    H174987   5.303   2.278   4.353 -0.2545 -1.6943 -1.8273
17832TIP3    H274988   5.383   2.393   4.297  1.0033 -0.8825  1.5114
17833TIP3   OH274989   0.185   6.046  11.090  0.0696 -0.0147 -0.4591
17833TIP3    H174990   0.187   6.032  10.995 -0.5310 -1.5161 -0.2763
17833TIP3    H274991   0.265   6.094  11.110 -0.4277  1.4613 -1.8952
17834TIP3   OH274992   2.860   4.777  14.573  0.2798  0.3467 -0.2657
17834TIP3    H174993   2.876   4.865  14.539  3.0769 -0.5558 -1.4779
17834TIP3    H274994   2.782   4.747  14.528 -0.4100  2.0253 -0.2143
17835TIP3   OH274995   5.022   5.354  13.071 -0.0745 -0.5054  0.0475
17835TIP3    H174996   5.081   5.291  13.030 -0.7505 -0.2159 -1.3815
17835TIP3    H274997   5.054   5.361  13.161  0.4318 -2.3692  0.0386
17836TIP3   OH274998   2.043   6.784  12.326  0.5565 -0.3539 -0.3088
17836TIP3    H174999   2.034   6.872  12.364 -0.8334 -0.3605 -0.6160
17836TIP3    H275000   2.122   6.790  12.273  0.9331  0.4748  0.3262
17837TIP3   OH275001   3.716   2.637   4.923  0.1717 -0.2906 -0.0248
17837TIP3    H175002   3.643   2.599   4.972 -1.7831  0.6819 -2.0844
17837TIP3    H275003   3.784   2.569   4.922 -0.2339 -0.7790  2.9055
17838TIP3   OH275004   6.122   2.161  16.342 -0.0053 -0.2033 -0.2215
17838TIP3    H175005   6.109   2.120  16.427  1.0678  2.7884  1.4608
17838TIP3    H275006   6.038   2.153  16.297 -1.5071  0.8727  2.3419
17839TIP3   OH275007   6.600   3.224  12.375 -0.9369 -0.1719  0.4548
17839TIP3    H175008   6.695   3.214  12.373 -0.9692 -0.4566  0.2196
17839TIP3    H275009   6.576   3.242  12.284 -1.0538  0.4454  0.6074
17840TIP3   OH275010   2.422   1.566  12.749  0.2551 -0.1854  0.5730
17840TIP3    H175011   2.403   1.591  12.658  1.7927  2.2585  0.8866
17840TIP3    H275012   2.355   1.611  12.801 -0.0595 -0.8344  0.7329
17841TIP3   OH275013   1.878   2.788   2.009 -0.7704 -0.0846  0.2035
17841TIP3    H175014   1.911   2.871   2.044 -0.7324 -0.6202  1.4636
17841TIP3    H275015   1.949   2.726   2.024 -0.0407  0.0371 -2.4498
17842TIP3   OH275016   3.316   5.359  16.515 -0.9454 -0.1559  0.2777
17842TIP3    H175017   3.385   5.296  16.493 -0.5469  0.1557  0.6314
17842TIP3    H275018   3.242   5.304  16.542  0.2101 -0.4824  3.0449
17843TIP3   OH275019   6.371   6.031   4.813 -0.5622  0.2339  0.4582
17843TIP3    H175020   6.374   6.079   4.730 -0.0220  1.0486  0.9463
17843TIP3    H275021   6.462   6.011   4.833 -0.7928 -1.1472  0.1830
17844TIP3   OH275022   5.413   5.970   3.914 -0.1594  0.1493 -0.5890
17844TIP3    H175023   5.405   6.037   3.847 -1.5221 -1.3402 -1.9504
17844TIP3    H275024   5.395   5.888   3.869  0.3228 -1.0357  1.2914
17845TIP3   OH275025   6.792   4.791  14.106 -0.3498 -0.3350 -0.2008
17845TIP3    H175026   6.739   4.807  14.029 -0.6213  1.8589  0.4135
17845TIP3    H275027   6.761   4.706  14.139  0.0015 -1.4567 -2.6329
17846TIP3   OH275028   3.624   4.868   5.258 -0.3882  0.1975 -0.3444
17846TIP3    H175029   3.685   4.921   5.207  0.7604 -1.2994 -0.5827
17846TIP3    H275030   3.632   4.901   5.348  0.1610  0.5548 -0.5269
17847TIP3   OH275031   6.085   2.370  13.182  0.7820  0.3065 -0.2783
17847TIP3    H175032   6.176   2.380  13.154  1.4658 -0.9282  1.4462
17847TIP3    H275033   6.090   2.343  13.273 -1.3249  0.1872 -0.1583
17848TIP3   OH275034   3.959   3.412  11.298 -0.2509 -0.1405  0.2230
17848TIP3    H175035   3.961   3.498  11.339  0.8117  0.3651 -0.8343
17848TIP3    H275036   3.977   3.429  11.206  1.6942 -1.6246  0.2775
17849TIP3   OH275037   6.576   0.816  13.711  0.3823  0.2593 -0.1425
17849TIP3    H175038   6.566   0.735  13.760 -2.7174  0.8309  0.2443
17849TIP3    H275039   6.656   0.803  13.660  0.6090 -2.5260  0.8394
17850TIP3   OH275040   0.271   6.362  13.885 -0.8203  0.1553 -0.4913
17850TIP3    H175041   0.357   6.386  13.919 -0.6844 -0.6866 -0.2272
17850TIP3    H275042   0.209   6.409  13.941 -0.6403 -2.2806  1.8353
17851TIP3   OH275043   1.044   3.016   1.355 -0.4665  0.7375  0.6369
17851TIP3    H175044   1.034   2.961   1.277  0.7565 -0.1472  1.0928
17851TIP3    H275045   0.977   2.984   1.416 -0.3937  0.3824  0.5333
17852TIP3   OH275046   1.931   4.207  12.993 -0.4137  0.1227 -0.3726
17852TIP3    H175047   1.850   4.225  12.944 -0.9319 -0.9824  0.0721
17852TIP3    H275048   1.902   4.187  13.082  0.4988  1.6824  0.2959
17853TIP3   OH275049   2.243   0.078   3.249  0.1726 -0.3486 -0.1771
17853TIP3    H175050   2.220   0.108   3.161  0.5735  0.2184 -0.0928
17853TIP3    H275051   2.214   0.149   3.307 -0.8752 -1.0898  0.2380
17854TIP3   OH275052   5.640   6.342  13.177  0.1687  0.0075 -0.4202
17854TIP3    H175053   5.596   6.374  13.255 -0.5638 -0.4794 -0.6271
17854TIP3    H275054   5.712   6.288  13.210  1.1909  1.5604 -0.0744
17855TIP3   OH275055   0.503   4.350   3.135  0.3039 -0.2404  0.7264
17855TIP3    H175056   0.588   4.390   3.152  0.9915 -1.1693 -0.4500
17855TIP3    H275057   0.465   4.338   3.222  0.7799  1.4337  1.1846
17856TIP3   OH275058   1.215   4.208  10.963  0.2501 -0.1407 -0.3800
17856TIP3    H175059   1.141   4.231  11.019  0.2590 -0.8661 -0.0622
17856TIP3    H275060   1.247   4.291  10.929 -0.9741  0.1502 -0.8387
17857TIP3   OH275061   1.011   0.933  12.104  0.4930 -0.4489  0.5519
17857TIP3    H175062   1.026   1.022  12.136 -0.9317  0.9573 -2.5009
17857TIP3    H275063   0.936   0.902  12.154 -1.1619  1.3771 -0.7232
17858TIP3   OH275064   3.377   2.534   0.829 -0.1215  0.1839 -0.0531
17858TIP3    H175065   3.297   2.582   0.850  1.0389  1.8803  0.5726
17858TIP3    H275066   3.347   2.449   0.799 -2.2459  1.4478 -1.5775
17859TIP3   OH275067   5.250   6.559   1.593  0.5233 -0.7401 -0.0339
17859TIP3    H175068   5.170   6.558   1.542  1.3747  3.4573 -1.5970
17859TIP3    H275069   5.226   6.598   1.677  0.3001 -2.5725  0.7955
17860TIP3   OH275070   2.258   1.807  14.466 -0.1750  0.3563 -0.7113
17860TIP3    H175071   2.255   1.810  14.370 -1.4343  0.0932 -0.6825
17860TIP3    H275072   2.350   1.822  14.487  0.2970 -0.6458 -2.0027
17861TIP3   OH275073   5.229   6.773   0.812  0.1651 -0.6045  0.3143
17861TIP3    H175074   5.159   6.814   0.864 -0.7759 -1.9091  0.0916
17861TIP3    H275075   5.253   6.841   0.749 -0.4577  0.0932  0.8066
17862TIP3   OH275076   1.269   1.133   4.589  0.5624  0.1948  0.0543
17862TIP3    H175077   1.281   1.074   4.515  0.0906  0.4688 -0.2389
17862TIP3    H275078   1.353   1.179   4.596  1.2876 -1.2272  0.9225
17863TIP3   OH275079   0.218   5.047   2.540  0.5743 -0.5215  0.5185
17863TIP3    H175080   0.169   5.016   2.464  1.1887  1.3837 -0.6809
17863TIP3    H275081   0.307   5.014   2.525  0.4179 -1.1959  1.0470
17864TIP3   OH275082   4.723   5.305   1.555 -0.4578  0.6872  0.1700
17864TIP3    H175083   4.761   5.351   1.630  0.5178 -0.2988  0.2815
17864TIP3    H275084   4.629   5.326   1.560 -0.1439  2.0537  0.6404
17865TIP3   OH275085   4.351   6.758   2.486  0.4235  0.3613 -0.2872
17865TIP3    H175086   4.367   6.666   2.465 -0.2908  0.4159 -1.1211
17865TIP3    H275087   4.260   6.760   2.516 -0.2000  1.0755 -2.1312
17866TIP3   OH275088   0.748   3.452   3.928 -0.0095  0.0870  0.1023
17866TIP3    H175089   0.795   3.533   3.911  0.0124  0.3715  1.4288
17866TIP3    H275090   0.660   3.467   3.892  0.5851 -0.0364 -1.3934
17867TIP3   OH275091   4.137   5.079  16.042 -0.7045  0.4480  0.1957
17867TIP3    H175092   4.111   5.160  15.997  1.0502  1.1621  0.4318
17867TIP3    H275093   4.226   5.096  16.072 -0.5864 -1.3225  0.8857
17868TIP3   OH275094   1.932   0.468   3.043  0.3749 -0.7288 -0.0603
17868TIP3    H175095   1.965   0.444   2.956  1.2418  1.5305 -0.3924
17868TIP3    H275096   1.903   0.559   3.033 -0.2891 -0.7085  1.8207
17869TIP3   OH275097   2.047   2.051   5.393  0.6598 -0.5839 -0.1642
17869TIP3    H175098   2.010   2.007   5.469 -0.4876  0.7912  0.0826
17869TIP3    H275099   2.063   1.981   5.330 -1.0460 -1.3741  0.2649
17870TIP3   OH275100   1.574   4.427  17.031  0.4517 -0.5251  0.5954
17870TIP3    H175101   1.504   4.492  17.022  0.5658 -0.5980 -0.9774
17870TIP3    H275102   1.630   4.462  17.101 -0.7968 -0.1473  1.4327
17871TIP3   OH275103   5.177   1.473  13.438  0.0730  0.0498  0.1787
17871TIP3    H175104   5.216   1.404  13.492  2.6181 -0.2436 -1.9298
17871TIP3    H275105   5.092   1.438  13.413  1.2881 -2.3400 -0.7788
17872TIP3   OH275106   2.212   6.644  12.475  0.0940  0.0548  0.1577
17872TIP3    H175107   2.230   6.561  12.431 -1.6350  0.8679 -2.1480
17872TIP3    H275108   2.128   6.672  12.440  1.1439  3.2958  0.0739
17873TIP3   OH275109   4.568   1.105  11.191  0.0455 -0.2050  0.5725
17873TIP3    H175110   4.606   1.185  11.227  0.9623 -0.0185 -0.7703
17873TIP3    H275111   4.475   1.124  11.182  0.3624  0.9717 -0.3981
17874TIP3   OH275112   4.536   2.007   2.749 -0.2762  0.0168  0.1778
17874TIP3    H175113   4.477   2.076   2.719 -1.7011 -0.5066  1.6316
17874TIP3    H275114   4.481   1.953   2.806  1.6474 -0.4091  1.7033
17875TIP3   OH275115   2.617   6.073  13.647  0.5619 -0.0977  0.1476
17875TIP3    H175116   2.700   6.108  13.678  1.4921 -1.6289 -0.5702
17875TIP3    H275117   2.595   6.005  13.710  0.5880 -0.6935 -0.4910
17876TIP3   OH275118   1.195   4.948   2.401  0.0811  0.9834  0.1825
17876TIP3    H175119   1.222   5.016   2.462  2.2699  1.2578 -1.0294
17876TIP3    H275120   1.201   4.989   2.315  0.6283 -0.4866 -0.4950
17877TIP3   OH275121   3.858   0.289   6.069 -0.9868 -0.2877  0.3408
17877TIP3    H175122   3.944   0.255   6.093 -0.9745 -1.9433 -1.9154
17877TIP3    H275123   3.872   0.382   6.052  0.3020 -0.4956  0.2174
17878TIP3   OH275124   5.087   6.110  14.238 -0.5557 -0.5228  0.4163
17878TIP3    H175125   5.080   6.127  14.332  0.0806 -0.0381  0.3799
17878TIP3    H275126   5.176   6.075  14.227 -0.0937  0.8148 -0.2001
17879TIP3   OH275127   5.537   4.387  13.924 -0.1733  0.1291 -0.1421
17879TIP3    H175128   5.583   4.382  13.840 -0.2791  0.3694 -0.2147
17879TIP3    H275129   5.519   4.480  13.937  0.1540  0.1357  0.3134
17880TIP3   OH275130   0.772   6.350  14.196 -0.4073  0.2895  0.0386
17880TIP3    H175131   0.854   6.376  14.155 -0.6396  0.0735 -0.5755
17880TIP3    H275132   0.751   6.265  14.157  0.1275 -0.6170  1.7263
17881TIP3   OH275133   1.002   1.531  15.398 -0.4343  0.4003  0.2845
17881TIP3    H175134   1.062   1.477  15.346 -0.5402  1.4370 -0.9276
17881TIP3    H275135   1.004   1.491  15.485 -2.6822 -3.3316 -1.2231
17882TIP3   OH275136   5.311   4.040   2.944 -0.3117 -0.1484  0.0015
17882TIP3    H175137   5.240   4.006   2.889  1.4154 -1.4518 -1.4528
17882TIP3    H275138   5.312   4.134   2.926 -0.8153 -0.3194 -0.9506
17883TIP3   OH275139   2.901   0.249  13.361  0.8057  0.3629  0.1389
17883TIP3    H175140   2.943   0.251  13.276 -1.4534  0.3852 -1.0210
17883TIP3    H275141   2.865   0.338  13.372 -1.9322 -0.6034 -0.5148
17884TIP3   OH275142   5.217   0.512  12.062  0.2800  0.2848 -0.1713
17884TIP3    H175143   5.205   0.601  12.094 -0.1883 -0.2436  1.1375
17884TIP3    H275144   5.129   0.481  12.043  0.3971 -0.0727 -0.1452
17885TIP3   OH275145   1.597   1.196   0.221  0.2870  0.1620 -0.1101
17885TIP3    H175146   1.564   1.233   0.140 -0.3872 -0.1049  0.0411
17885TIP3    H275147   1.593   1.101   0.208  2.4582  0.1313 -0.6819
17886TIP3   OH275148   2.832   5.781   1.717  0.1314  0.4525  0.0168
17886TIP3    H175149   2.827   5.799   1.624 -1.1370  0.8154  0.1408
17886TIP3    H275150   2.798   5.860   1.759  2.0625  0.8638  0.8463
17887TIP3   OH275151   4.703   3.803   5.982  0.3589  0.3313  0.0977
17887TIP3    H175152   4.683   3.717   6.019 -3.3494  0.9247 -0.3590
17887TIP3    H275153   4.722   3.785   5.890 -0.7800  0.0242 -0.0842
17888TIP3   OH275154   3.349   3.770   0.505  0.5014  0.1322  0.0633
17888TIP3    H175155   3.355   3.859   0.539 -0.3360  0.6832 -1.2303
17888TIP3    H275156   3.260   3.742   0.526  0.7856 -0.4271  0.5312
17889TIP3   OH275157   1.731   5.184   1.782 -0.4162  0.0350 -0.0187
17889TIP3    H175158   1.674   5.252   1.818 -3.0046 -2.1460  0.1194
17889TIP3    H275159   1.746   5.123   1.854 -3.2584 -2.8180 -1.7047
17890TIP3   OH275160   4.607   2.655   1.070  0.0299  0.2417  0.0025
17890TIP3    H175161   4.583   2.566   1.045  1.7044 -0.5847  1.2579
17890TIP3    H275162   4.528   2.707   1.052 -1.1423 -1.5698 -0.2460
17891TIP3   OH275163   3.399   5.967  14.618 -0.0276  0.3252 -0.1130
17891TIP3    H175164   3.315   5.923  14.634  0.4211  0.1206  1.8356
17891TIP3    H275165   3.453   5.943  14.693  1.1696  1.9351 -0.4356
17892TIP3   OH275166   1.107   1.449  11.956 -0.2707 -0.1734  0.4626
17892TIP3    H175167   1.040   1.504  11.916 -0.0222 -1.0840 -1.2314
17892TIP3    H275168   1.137   1.500  12.032 -0.5347  1.7328 -0.6700
17893TIP3   OH275169   4.773   6.580   3.486  0.4103  0.0911 -0.3723
17893TIP3    H175170   4.696   6.637   3.498  0.7847  0.4103  0.5402
17893TIP3    H275171   4.797   6.554   3.574  0.9226 -0.5959 -0.7125
17894TIP3   OH275172   1.563   5.621   5.573 -0.0941  0.0193  0.0234
17894TIP3    H175173   1.495   5.555   5.583 -1.5765  1.3546 -1.0555
17894TIP3    H275174   1.535   5.673   5.498  3.0966 -0.5877 -1.7023
17895TIP3   OH275175   2.226   1.793   5.789  0.1004 -0.0077 -0.1811
17895TIP3    H175176   2.301   1.851   5.771 -0.3675  0.4519 -0.6690
17895TIP3    H275177   2.155   1.829   5.736 -1.1307  0.9714  2.0644
17896TIP3   OH275178   3.174   4.766   2.542 -0.4218 -0.2899 -0.1127
17896TIP3    H175179   3.166   4.858   2.518 -0.0715 -0.1727  0.2195
17896TIP3    H275180   3.083   4.735   2.548 -0.5267 -0.1954 -1.0754
17897TIP3   OH275181   2.635   3.364   2.201 -0.6229  0.2343  0.0706
17897TIP3    H175182   2.605   3.313   2.276 -0.1144  1.9098  1.4502
17897TIP3    H275183   2.729   3.374   2.215 -0.0277 -1.6839 -2.1973
17898TIP3   OH275184   3.767   3.765   3.307 -0.2438 -0.0944  0.5906
17898TIP3    H175185   3.698   3.744   3.244 -0.3440  0.3098  0.5637
17898TIP3    H275186   3.721   3.809   3.379 -0.1409 -0.6220  0.9833
17899TIP3   OH275187   6.186   5.689  11.345  0.0919  0.2632  0.1899
17899TIP3    H175188   6.276   5.673  11.316 -0.2171  1.1636 -1.3208
17899TIP3    H275189   6.134   5.627  11.295 -0.4170  1.6574 -1.0508
17900TIP3   OH275190   4.585   3.412   2.312 -0.1280 -0.2526 -0.1355
17900TIP3    H175191   4.601   3.500   2.344  0.1941 -0.2883 -0.1952
17900TIP3    H275192   4.575   3.359   2.392 -1.2165 -0.0045 -0.1011
17901TIP3   OH275193   1.411   3.017  15.977  0.6735  0.0532 -0.0734
17901TIP3    H175194   1.366   3.040  16.058 -0.1863 -0.6373 -0.3526
17901TIP3    H275195   1.385   2.927  15.959  0.1660  0.4759 -1.5799
17902TIP3   OH275196   0.040   6.002   1.810 -0.8261  0.7047  0.4647
17902TIP3    H175197   0.034   6.079   1.754 -1.5137  0.1991 -0.1619
17902TIP3    H275198   0.003   5.931   1.758  0.5751 -0.2318  0.7221
17903TIP3   OH275199   5.051   5.509  13.352  0.2104  0.0448 -0.3598
17903TIP3    H175200   5.010   5.422  13.354  2.0639 -0.8581 -0.2904
17903TIP3    H275201   5.002   5.557  13.285 -1.1077 -0.9105 -0.1036
17904TIP3   OH275202   3.664   4.214  13.332  0.6533 -0.1171  0.6061
17904TIP3    H175203   3.753   4.213  13.296  1.0565 -0.3995  1.5855
17904TIP3    H275204   3.638   4.306  13.330  1.1975  0.0408  0.8679
17905TIP3   OH275205   5.647   2.110  15.270  0.1580 -0.4309  0.2246
17905TIP3    H175206   5.718   2.051  15.294  0.6196  0.0567  0.0705
17905TIP3    H275207   5.678   2.197  15.294  0.8568  0.1383 -2.5521
17906TIP3   OH275208   1.566   1.145   1.522 -0.4163  0.5356  0.7285
17906TIP3    H175209   1.639   1.203   1.500 -0.4436  0.3921  0.2506
17906TIP3    H275210   1.560   1.149   1.618 -0.1498  0.9914  0.7271
17907TIP3   OH275211   2.393   4.030   2.328  0.8252 -0.3338 -0.1812
17907TIP3    H175212   2.331   3.959   2.349  0.1461  0.3324  0.0701
17907TIP3    H275213   2.479   3.988   2.333  0.3969 -1.2677 -0.5304
17908TIP3   OH275214   3.767   1.374   4.481  0.2153  0.0126  0.2321
17908TIP3    H175215   3.762   1.397   4.574 -1.3436 -1.7785  0.6361
17908TIP3    H275216   3.679   1.392   4.448  0.5067 -0.2343 -0.6832
17909TIP3   OH275217   4.530   1.731  17.290  0.1482 -0.4198  0.1545
17909TIP3    H175218   4.482   1.810  17.264  0.4466 -0.2728  0.0438
17909TIP3    H275219   4.613   1.738  17.244  1.2137  0.5222  2.1581
17910TIP3   OH275220   2.815   3.819  11.043 -0.2562 -0.4194 -0.3043
17910TIP3    H175221   2.911   3.811  11.039  0.0155  1.7874  0.7170
17910TIP3    H275222   2.792   3.865  10.962 -0.4443 -0.9968 -0.5747
17911TIP3   OH275223   0.187   6.789   3.622 -0.4455 -0.0566  0.2375
17911TIP3    H175224   0.270   6.800   3.575 -0.0440 -2.0997  0.4249
17911TIP3    H275225   0.121   6.822   3.562  0.3905  0.3981 -0.4379
17912TIP3   OH275226   3.302   4.959  12.367  0.4797 -0.4883  0.2526
17912TIP3    H175227   3.230   5.022  12.378  1.0679  0.2256  0.0588
17912TIP3    H275228   3.273   4.881  12.415 -0.1560  0.0092  0.6866
17913TIP3   OH275229   0.121   6.294   5.604 -0.2094 -0.1137 -0.3656
17913TIP3    H175230   0.111   6.208   5.645  1.6216 -0.3029 -0.2570
17913TIP3    H275231   0.048   6.300   5.543 -1.7263 -0.7351  1.3292
17914TIP3   OH275232   4.458   6.342   3.309 -0.3889 -0.8759 -0.2314
17914TIP3    H175233   4.493   6.253   3.318 -1.8156 -1.5395 -1.0791
17914TIP3    H275234   4.399   6.352   3.384 -0.4328 -0.7451 -0.2850
17915TIP3   OH275235   4.032   5.515  13.589 -0.1505  0.0711 -0.7363
17915TIP3    H175236   4.114   5.523  13.540  0.1088 -1.7571 -0.6090
17915TIP3    H275237   4.058   5.516  13.681 -0.1892 -1.3705 -0.7065
17916TIP3   OH275238   0.271   4.082   4.835  0.5906  0.4016  0.1475
17916TIP3    H175239   0.186   4.124   4.822  1.1291  1.1586 -0.9992
17916TIP3    H275240   0.252   3.988   4.835 -0.2044  0.5617 -0.3067
17917TIP3   OH275241   2.277   3.163  14.807 -0.0098 -0.2913 -0.6408
17917TIP3    H175242   2.221   3.172  14.884 -0.1288  2.8228 -1.0240
17917TIP3    H275243   2.287   3.068  14.795 -1.7803 -0.8398  1.8799
17918TIP3   OH275244   1.223   6.069   4.195 -0.4407  0.2094 -0.7183
17918TIP3    H175245   1.195   6.127   4.266 -0.8187 -0.6110 -0.1836
17918TIP3    H275246   1.309   6.102   4.170  0.1062 -0.0344  0.7534
17919TIP3   OH275247   6.662   3.818   2.936 -0.1819 -1.0142 -0.0064
17919TIP3    H175248   6.577   3.862   2.946  0.0364 -0.8585  1.2676
17919TIP3    H275249   6.644   3.726   2.954  0.2142 -0.7310  1.9968
17920TIP3   OH275250   3.904   5.045   3.484  0.7260  0.3138  0.2267
17920TIP3    H175251   3.948   5.129   3.478 -0.0405  0.9464  2.8302
17920TIP3    H275252   3.936   5.007   3.566  0.3294 -1.5162 -0.4293
17921TIP3   OH275253   1.142   0.066   4.340  0.8461 -0.1915  0.1149
17921TIP3    H175254   1.230   0.102   4.324  1.2497 -1.0404  0.3546
17921TIP3    H275255   1.159  -0.012   4.394 -0.1527  0.3629  1.2468
17922TIP3   OH275256   5.825   4.324   1.861  0.3807 -0.0509 -0.1265
17922TIP3    H175257   5.810   4.297   1.952 -0.9409  1.5448  0.1614
17922TIP3    H275258   5.915   4.297   1.842  0.4527 -0.9746  1.4418
17923TIP3   OH275259   1.917   6.736   2.591 -0.1989 -0.5459  0.5039
17923TIP3    H175260   1.965   6.654   2.578  0.2514 -0.2608  0.3456
17923TIP3    H275261   1.911   6.774   2.504 -1.0334 -0.7561  0.4718
17924TIP3   OH275262   1.679   5.668  12.108  0.3723  0.2614 -0.0164
17924TIP3    H175263   1.610   5.669  12.041 -0.9559  0.7583  1.3475
17924TIP3    H275264   1.751   5.716  12.068 -0.2184  0.1084 -1.3064
17925TIP3   OH275265   0.091   4.124  12.693 -0.3318  0.2294  0.1035
17925TIP3    H175266   0.013   4.179  12.685 -1.4728 -1.5485 -1.4534
17925TIP3    H275267   0.133   4.130  12.607  0.0686 -0.5301  0.2421
17926TIP3   OH275268   4.526   2.354  16.748 -0.3412 -0.2573  0.3496
17926TIP3    H175269   4.431   2.356  16.732 -0.3947 -0.1909  0.6617
17926TIP3    H275270   4.536   2.399  16.832 -0.1179 -1.0166  0.7283
17927TIP3   OH275271   3.818   5.907   5.326 -0.0301  1.5838 -0.3722
17927TIP3    H175272   3.877   5.838   5.356  1.4853  2.3127 -1.5545
17927TIP3    H275273   3.731   5.867   5.327  0.6775  0.0245  0.0290
17928TIP3   OH275274   2.150   1.954   0.106  0.1111 -0.3247  0.2211
17928TIP3    H175275   2.133   2.026   0.045 -0.6248 -1.3162 -0.7744
17928TIP3    H275276   2.203   1.893   0.055  2.4869  0.4262  1.7028
17929TIP3   OH275277   5.137   5.879   1.482  0.3848  0.2773 -0.2125
17929TIP3    H175278   5.085   5.928   1.545 -1.4220 -1.7713 -0.0577
17929TIP3    H275279   5.084   5.877   1.403  1.6373  0.8550 -1.0869
17930TIP3   OH275280   3.912   1.499  15.390 -0.3725  0.5838  0.9552
17930TIP3    H175281   3.946   1.582  15.423  0.2569  0.4812  0.5719
17930TIP3    H275282   3.984   1.436  15.402 -0.4124  0.3741  0.1163
17931TIP3   OH275283   3.641   2.252   2.599  0.1088 -0.4122 -0.1475
17931TIP3    H175284   3.661   2.252   2.505  0.0809  0.3028 -0.1561
17931TIP3    H275285   3.660   2.163   2.628 -1.2949 -1.0523 -1.1389
17932TIP3   OH275286   3.752   6.780   0.579 -0.4862 -0.1366  0.5023
17932TIP3    H175287   3.753   6.696   0.627  0.9720 -0.8257 -0.6752
17932TIP3    H275288   3.784   6.844   0.643 -0.4421 -0.6935  1.0468
17933TIP3   OH275289   2.528   1.192   4.943 -0.4481  0.0362 -0.7111
17933TIP3    H175290   2.507   1.197   4.850 -1.1752 -0.1547 -0.5613
17933TIP3    H275291   2.451   1.227   4.987 -1.2093 -2.2903 -0.0947
17934TIP3   OH275292   3.351   1.579  14.637 -0.0568 -0.0272  0.0850
17934TIP3    H175293   3.308   1.638  14.575  0.0798  0.6020  0.5860
17934TIP3    H275294   3.330   1.615  14.723  2.9000  1.3104  0.3134
17935TIP3   OH275295   6.009   5.306  16.341 -0.1728 -0.4159 -0.7033
17935TIP3    H175296   5.997   5.398  16.362  0.1330 -0.4566 -0.3407
17935TIP3    H275297   5.927   5.264  16.367  0.8765 -0.7677  2.1866
17936TIP3   OH275298   2.254   0.510   1.821 -0.0284  0.4403 -0.0409
17936TIP3    H175299   2.281   0.545   1.736  1.2138  0.8394  0.5113
17936TIP3    H275300   2.229   0.587   1.872  0.5892  0.3303  0.4301
17937TIP3   OH275301   6.707   1.147   0.371 -0.1436 -0.0477 -0.0159
17937TIP3    H175302   6.646   1.127   0.300  1.6622 -0.6005 -1.4662
17937TIP3    H275303   6.676   1.229   0.407 -1.5688 -0.1729 -0.9387
17938TIP3   OH275304   2.690   3.161   2.734 -0.0976 -0.1293 -0.4228
17938TIP3    H175305   2.730   3.150   2.648 -0.2109 -2.1328 -0.2360
17938TIP3    H275306   2.700   3.076   2.777 -1.9327  0.2089  0.7501
17939TIP3   OH275307   4.467   0.733  17.143 -0.3229 -0.7368 -0.2805
17939TIP3    H175308   4.384   0.730  17.190 -1.0355  0.0143 -1.4570
17939TIP3    H275309   4.531   0.760  17.208 -1.7005  2.7569 -0.2156
17940TIP3   OH275310   4.206   1.901  11.764 -0.2754 -0.6417  0.4843
17940TIP3    H175311   4.251   1.958  11.827 -0.2112 -0.4094  0.2288
17940TIP3    H275312   4.210   1.814  11.803 -0.9014 -0.3737  1.1682
17941TIP3   OH275313   0.879   2.347  16.781 -0.9890  0.2364  0.0021
17941TIP3    H175314   0.900   2.436  16.809  0.5153 -0.9419  2.8587
17941TIP3    H275315   0.799   2.325  16.828 -1.0323 -0.1049 -0.2260
17942TIP3   OH275316   6.759   2.301   1.727 -0.2488  0.6265  0.4264
17942TIP3    H175317   6.777   2.387   1.690 -1.9230  0.3287 -1.1812
17942TIP3    H275318   6.811   2.241   1.673 -1.6759  0.3174 -0.6204
17943TIP3   OH275319   4.911   2.194  11.958  0.1908 -0.0171  0.2161
17943TIP3    H175320   4.868   2.110  11.948 -0.2932  0.3287 -0.7502
17943TIP3    H275321   4.885   2.243  11.879  0.5215  0.9963  0.7285
17944TIP3   OH275322   4.670   2.634  11.449 -0.2896 -0.2324  0.0497
17944TIP3    H175323   4.671   2.729  11.443 -0.4699 -0.2728 -0.7758
17944TIP3    H275324   4.659   2.605  11.358  0.6823 -1.0523  0.1775
17945TIP3   OH275325   5.242   6.215  13.965  0.6127  0.7548 -0.3885
17945TIP3    H175326   5.177   6.145  13.957  0.5946  0.7345 -0.0378
17945TIP3    H275327   5.325   6.173  13.940  0.5754  0.6496 -0.3360
17946TIP3   OH275328   3.185   1.995   0.813 -0.3443  0.1077  0.2394
17946TIP3    H175329   3.117   1.997   0.747 -1.3566  0.5642  1.2784
17946TIP3    H275330   3.143   1.955   0.889  0.6433  0.0839  0.7821
17947TIP3   OH275331   4.177   4.112   4.970 -0.5206  0.0050  0.1242
17947TIP3    H175332   4.218   4.062   4.899 -1.6426  1.5952 -1.6912
17947TIP3    H275333   4.142   4.190   4.927  0.3477  1.8911  2.7453
17948TIP3   OH275334   4.239   3.958   2.746  0.3226 -0.2775  0.0725
17948TIP3    H175335   4.291   3.942   2.825 -0.0395 -0.6774  0.2261
17948TIP3    H275336   4.298   4.009   2.689 -0.3662  2.3933  1.6895
17949TIP3   OH275337   1.219   4.757  11.241  0.0216  0.1290  0.4947
17949TIP3    H175338   1.172   4.824  11.192  0.5872  0.9558  1.0733
17949TIP3    H275339   1.300   4.743  11.192  1.2446  1.9631  1.8779
17950TIP3   OH275340   3.327   5.026   1.854  0.2849  0.6296 -0.2036
17950TIP3    H175341   3.403   4.969   1.839  1.5473  2.2651 -0.1868
17950TIP3    H275342   3.257   4.966   1.880  0.8361 -1.1853 -2.6962
17951TIP3   OH275343   2.191   1.685   4.825  0.3501  0.0137  0.4157
17951TIP3    H175344   2.221   1.607   4.778 -1.9216 -1.6229  1.5167
17951TIP3    H275345   2.188   1.754   4.759  2.2432 -0.8753 -0.6246
17952TIP3   OH275346   0.720   2.129  16.311 -0.7152  0.2696  0.0265
17952TIP3    H175347   0.681   2.154  16.395  0.2967 -1.7130  1.1177
17952TIP3    H275348   0.814   2.129  16.327 -0.4834  0.3895 -1.2651
17953TIP3   OH275349   0.116   4.942   2.039 -0.0270  0.5913 -0.0662
17953TIP3    H175350   0.021   4.926   2.035 -0.2081  1.4257  0.8201
17953TIP3    H275351   0.151   4.891   1.966 -0.8208 -2.2534  1.4364
17954TIP3   OH275352   0.693   3.680  12.696  0.2090 -0.4397 -0.0352
17954TIP3    H175353   0.757   3.609  12.702  1.7099  0.4880 -3.4244
17954TIP3    H275354   0.704   3.729  12.777  1.8108 -1.9262  0.6858
17955TIP3   OH275355   1.936   4.230   1.509 -0.3583 -0.2347  0.3097
17955TIP3    H175356   1.942   4.323   1.489  0.0977 -0.5062 -0.8684
17955TIP3    H275357   1.861   4.222   1.568 -0.3063  0.8923  0.5256
17956TIP3   OH275358   0.672   3.132  14.754 -0.1991 -0.3449  0.1139
17956TIP3    H175359   0.590   3.090  14.778  0.7070 -1.6471  1.0253
17956TIP3    H275360   0.740   3.071  14.784  1.1125  1.0477  0.0549
17957TIP3   OH275361   1.800   4.738   6.856  0.6798 -0.1802 -0.3894
17957TIP3    H175362   1.829   4.825   6.885  0.6267 -0.0683 -0.6672
17957TIP3    H275363   1.879   4.694   6.826  0.5902  0.0636 -0.9912
17958TIP3   OH275364   2.007   2.814  10.936  0.0342  0.7805 -0.5122
17958TIP3    H175365   2.063   2.755  10.886 -0.6866 -1.6458  1.4294
17958TIP3    H275366   1.924   2.814  10.889  0.0072  0.1649 -0.4639
17959TIP3   OH275367   4.950   6.268  14.747  0.6990 -0.4271  0.3146
17959TIP3    H175368   4.888   6.204  14.783 -0.1186  0.0870 -0.1737
17959TIP3    H275369   5.018   6.276  14.815 -1.2761  1.1774  2.1453
17960TIP3   OH275370   4.123   2.230   4.293  0.6945 -0.2278  0.8315
17960TIP3    H175371   4.094   2.169   4.225  1.2973  0.1381  0.2372
17960TIP3    H275372   4.181   2.179   4.348 -1.1770 -1.0076  2.1185
17961TIP3   OH275373   6.147   2.702  17.180  0.0285 -0.2693 -0.2399
17961TIP3    H175374   6.133   2.646  17.256  1.0928  1.2925  1.1284
17961TIP3    H275375   6.074   2.764  17.181  0.2467 -0.0112 -0.2877
17962TIP3   OH275376   1.217   1.240  12.730  0.2307 -0.2608 -0.7570
17962TIP3    H175377   1.261   1.253  12.646 -1.2421  1.4325 -1.3002
17962TIP3    H275378   1.250   1.311  12.786  0.1795 -0.5664 -0.3380
17963TIP3   OH275379   2.679   2.969  16.627  0.0855 -0.1613 -0.4384
17963TIP3    H175380   2.607   2.943  16.569  1.0224 -2.1512 -0.7858
17963TIP3    H275381   2.696   2.891  16.680  1.1178  0.7171  0.5422
17964TIP3   OH275382   6.496   5.957  10.759 -0.6973  0.2019 -0.0275
17964TIP3    H175383   6.589   5.976  10.748 -0.0958 -1.5898  1.7307
17964TIP3    H275384   6.452   6.030  10.715  1.5088  0.1421 -2.5071
17965TIP3   OH275385   5.284   1.974   6.092 -0.1598  0.5000 -0.0677
17965TIP3    H175386   5.309   2.029   6.167 -1.5269  0.4241  0.4615
17965TIP3    H275387   5.209   2.019   6.054 -0.5682 -0.3871 -0.3265
17966TIP3   OH275388   6.499   0.944   4.214 -0.2541  0.6324 -0.2730
17966TIP3    H175389   6.485   0.921   4.123  1.0283 -0.0239 -0.3087
17966TIP3    H275390   6.542   1.029   4.211 -0.1315  0.5699 -0.2775
17967TIP3   OH275391   3.540   3.895   5.157  0.8698 -0.0080 -0.2314
17967TIP3    H175392   3.481   3.970   5.162 -0.3863 -0.9330 -0.8515
17967TIP3    H275393   3.517   3.841   5.233 -0.4898 -1.3478 -1.5453
17968TIP3   OH275394   5.015   3.086   3.757  0.5023 -0.0640 -0.0244
17968TIP3    H175395   5.031   3.105   3.664 -0.0808 -0.3658 -0.1909
17968TIP3    H275396   4.995   2.992   3.759  2.2634 -0.4310  0.6410
17969TIP3   OH275397   5.583   5.541   3.660 -0.1962 -0.3437  0.1448
17969TIP3    H175398   5.520   5.499   3.602 -0.6044 -1.7013  1.5188
17969TIP3    H275399   5.666   5.537   3.613 -0.6268 -0.9346 -0.5717
17970TIP3   OH275400   6.557   3.316  16.286 -0.7406  0.4244  0.4262
17970TIP3    H175401   6.558   3.401  16.329 -1.1587  0.0185  1.2477
17970TIP3    H275402   6.631   3.269  16.324 -0.2273  0.5774 -0.3632
17971TIP3   OH275403   5.004   6.249  15.745 -0.6184 -0.0209  0.6931
17971TIP3    H175404   5.094   6.224  15.724 -0.6247  1.1882 -0.8214
17971TIP3    H275405   4.955   6.229  15.666 -1.1313  2.1768  0.4377
17972TIP3   OH275406   4.384   6.014   2.909  0.2157  0.1947  0.2505
17972TIP3    H175407   4.466   6.007   2.957 -0.4920  0.4895  1.5303
17972TIP3    H275408   4.334   6.080   2.957 -0.2594  0.9749 -1.2632
17973TIP3   OH275409   6.706   4.083  15.990  0.3118 -0.3574 -0.2984
17973TIP3    H175410   6.629   4.098  16.045 -1.3723 -0.7919 -2.5032
17973TIP3    H275411   6.751   4.009  16.032 -0.3472  0.0102  1.0916
17974TIP3   OH275412   0.795   5.251  17.188  0.8444  0.0977  0.0130
17974TIP3    H175413   0.720   5.212  17.233  1.0685 -0.6907 -0.2734
17974TIP3    H275414   0.758   5.326  17.141 -0.2685 -1.6267 -2.0205
17975TIP3   OH275415   5.666   3.176   0.040 -0.4067 -0.2888 -0.0470
17975TIP3    H175416   5.583   3.164   0.086 -1.1036  0.4565 -1.1293
17975TIP3    H275417   5.726   3.209   0.108 -1.0702 -0.4830  0.6409
17976TIP3   OH275418   5.123   1.342   1.453 -0.9933 -0.1070 -0.3084
17976TIP3    H175419   5.099   1.432   1.474 -1.2733  0.0584 -1.3178
17976TIP3    H275420   5.044   1.306   1.412 -0.9306 -0.8527  0.2271
17977TIP3   OH275421   4.932   6.212  11.085  0.2540 -0.0666 -0.2191
17977TIP3    H175422   4.992   6.282  11.058  1.7662 -0.6412  1.4799
17977TIP3    H275423   4.928   6.153  11.011  3.9150 -1.3748  0.5100
17978TIP3   OH275424   2.444   6.109   5.526  0.8457  0.1769  0.0335
17978TIP3    H175425   2.423   6.138   5.614  2.7217  3.0224 -0.4032
17978TIP3    H275426   2.361   6.115   5.479 -0.1986 -1.4985  1.5928
17979TIP3   OH275427   3.465   2.882  16.699 -0.3197  0.1089  0.7647
17979TIP3    H175428   3.499   2.940  16.767 -1.3130  1.8788 -0.2296
17979TIP3    H275429   3.377   2.858  16.730 -1.4229  2.2225 -0.6359
17980TIP3   OH275430   1.850   0.141   1.951 -0.3303  0.0496 -0.4201
17980TIP3    H175431   1.845   0.180   2.038  2.6666 -1.0500  0.3212
17980TIP3    H275432   1.922   0.078   1.958 -0.5777 -0.6246 -3.4752
17981TIP3   OH275433   2.525   4.744   2.460  0.0045 -0.5317 -0.4294
17981TIP3    H175434   2.580   4.683   2.411  0.6436  1.2216 -1.9733
17981TIP3    H275435   2.491   4.803   2.393 -0.5004  0.8762  1.0527
17982TIP3   OH275436   4.131   2.927   2.030 -0.6637  0.5644  0.5125
17982TIP3    H175437   4.165   3.013   2.004 -0.5638  0.0634 -1.0733
17982TIP3    H275438   4.199   2.890   2.085 -0.2851  1.1229  0.4301
17983TIP3   OH275439   1.072   6.684  13.648 -0.1755 -0.1646 -0.8094
17983TIP3    H175440   1.007   6.746  13.682  0.5197  0.3683 -0.4330
17983TIP3    H275441   1.068   6.694  13.553 -0.4978  0.0069 -0.7791
17984TIP3   OH275442   6.395   4.808   0.010 -0.0112  0.5655 -1.0080
17984TIP3    H175443   6.387   4.829   0.103 -2.2171  0.1901 -1.1066
17984TIP3    H275444   6.305   4.800  -0.021  0.7089 -2.0678 -2.5703
17985TIP3   OH275445   3.438   6.240   2.904  0.1855  0.4340  0.0173
17985TIP3    H175446   3.423   6.157   2.859 -0.0172  0.9971 -0.9778
17985TIP3    H275447   3.424   6.307   2.836  1.8979  1.2128  0.4084
17986TIP3   OH275448   3.903   6.460  14.050 -0.2223 -0.1632 -0.2382
17986TIP3    H175449   3.851   6.502  14.118  0.5519  2.8694 -1.4166
17986TIP3    H275450   3.955   6.394  14.095  0.1204  1.6450  2.0935
17987TIP3   OH275451   4.877   6.174  12.321  0.3416  0.1433 -0.1151
17987TIP3    H175452   4.795   6.153  12.366  0.6576 -1.6853 -0.3307
17987TIP3    H275453   4.939   6.193  12.392 -0.1416  1.0428  0.0669
17988TIP3   OH275454   0.346   4.195  15.828 -0.1588  0.0742 -0.2834
17988TIP3    H175455   0.256   4.218  15.804 -0.4148 -1.1006 -0.4409
17988TIP3    H275456   0.396   4.275  15.811 -1.7473  1.8761  3.0057
17989TIP3   OH275457   6.243   2.173   0.828  0.1628  0.1920  0.5813
17989TIP3    H175458   6.252   2.085   0.863  2.1481 -0.0048 -0.3953
17989TIP3    H275459   6.328   2.194   0.792 -0.4177  2.3486  0.3783
17990TIP3   OH275460   1.617   4.530  11.011  0.7808 -0.2812 -0.2377
17990TIP3    H175461   1.656   4.473  10.944  0.2314 -0.1578 -0.6676
17990TIP3    H275462   1.629   4.483  11.093  0.2346 -1.0597 -0.6051
17991TIP3   OH275463   4.126   6.527   0.996 -0.5999  0.0403  0.0887
17991TIP3    H175464   4.144   6.594   1.062  0.1995  0.3771 -0.4655
17991TIP3    H275465   4.093   6.576   0.920  4.4612  0.3646 -2.0447
17992TIP3   OH275466   4.948   5.135  13.599  0.1639  0.3952 -0.2340
17992TIP3    H175467   4.962   5.180  13.516 -0.8937  1.6500  0.2507
17992TIP3    H275468   4.980   5.196  13.666 -0.4734  0.0738  0.3753
17993TIP3   OH275469   2.116   0.491   3.616 -0.0368  0.8398 -0.0922
17993TIP3    H175470   2.066   0.571   3.597  0.8469  1.8399  1.6843
17993TIP3    H275471   2.073   0.454   3.693  2.1830  1.9539  1.7438
17994TIP3   OH275472   2.139   4.250  11.724  0.3430 -0.6224  0.3395
17994TIP3    H175473   2.228   4.222  11.702  0.4804  0.1405 -0.1015
17994TIP3    H275474   2.144   4.275  11.816  0.9824  0.9698 -0.1191
17995TIP3   OH275475   4.243   4.506  14.170  0.1342 -0.2073 -0.2723
17995TIP3    H175476   4.339   4.500  14.176 -0.0301 -3.2122  0.1108
17995TIP3    H275477   4.225   4.513  14.077  0.7028 -0.7008 -0.4270
17996TIP3   OH275478   5.758   0.813  12.235 -0.3578  0.0437  0.1159
17996TIP3    H175479   5.808   0.765  12.301 -2.0628  0.0426  1.4436
17996TIP3    H275480   5.813   0.811  12.157  1.7093  0.0682  1.5411
17997TIP3   OH275481   4.496   1.189  10.894 -0.2219  0.1358 -0.3239
17997TIP3    H175482   4.405   1.161  10.880  0.3383 -0.5168 -3.0250
17997TIP3    H275483   4.536   1.116  10.941 -0.4303 -0.7686 -1.5251
17998TIP3   OH275484   5.761   1.760  14.565  0.3092 -0.0695 -0.0065
17998TIP3    H175485   5.791   1.780  14.476  0.1837 -0.5628 -0.1619
17998TIP3    H275486   5.831   1.709  14.604 -0.6312 -1.9177 -0.6462
17999TIP3   OH275487   5.529   3.963   4.484 -0.1582  0.2531  0.8079
17999TIP3    H175488   5.506   4.049   4.450  0.2721 -0.1698 -0.6152
17999TIP3    H275489   5.584   3.981   4.561  3.5298  1.3109 -1.9327
18000TIP3   OH275490   5.155   4.186  15.650 -0.3368  0.2391 -0.3418
18000TIP3    H175491   5.150   4.101  15.694  2.2935 -0.0583 -0.5626
18000TIP3    H275492   5.166   4.249  15.721  2.1104 -0.0665 -0.4131
18001TIP3   OH275493   0.025   2.004  16.078 -0.1368  0.4529  0.3097
18001TIP3    H175494  -0.063   1.989  16.112  0.3916  0.4211  1.6683
18001TIP3    H275495   0.083   1.960  16.140  0.9045  1.2768 -0.0646
18002TIP3   OH275496   4.754   0.003   6.047 -0.0604  0.1227  0.1463
18002TIP3    H175497   4.663   0.002   6.016 -0.1112  1.2235  0.2578
18002TIP3    H275498   4.803   0.039   5.973  0.2620 -0.2897  0.1596
18003TIP3   OH275499   4.609   6.289   5.767  0.6302  0.2724  0.2643
18003TIP3    H175500   4.696   6.263   5.799  0.1548 -1.3304  0.2898
18003TIP3    H275501   4.548   6.232   5.815 -0.4987  1.9401  0.8341
18004TIP3   OH275502   4.382   6.566  15.755 -0.1515 -0.1442 -0.3056
18004TIP3    H175503   4.402   6.590  15.846  0.3966  0.7851 -0.6662
18004TIP3    H275504   4.420   6.479  15.745 -0.0428 -0.1708  0.2933
18005TIP3   OH275505   4.497   0.607   0.547 -0.0523 -0.7403 -0.5755
18005TIP3    H175506   4.499   0.672   0.477  0.8064  0.2155  0.3248
18005TIP3    H275507   4.489   0.523   0.502  0.1268 -0.1086 -1.7959
18006TIP3   OH275508   3.744   1.116  12.906  0.3827 -0.1242  0.3458
18006TIP3    H175509   3.673   1.075  12.856  0.6155  0.0254 -0.1057
18006TIP3    H275510   3.816   1.054  12.900 -0.2799 -1.1221  2.3158
18007TIP3   OH275511   5.169   0.220  15.164 -0.5572 -0.6979  0.3107
18007TIP3    H175512   5.176   0.253  15.075 -0.8719 -1.2271  0.0904
18007TIP3    H275513   5.086   0.172  15.166 -0.6989 -0.4363  0.9689
18008TIP3   OH275514   2.148   3.210   0.053  0.1054 -0.0950  0.4098
18008TIP3    H175515   2.067   3.221   0.003  0.3891  1.4783  0.2728
18008TIP3    H275516   2.172   3.299   0.079  2.7678 -0.3416 -1.0674
18009TIP3   OH275517   4.716   6.302  14.026 -0.5271  0.0538 -0.1635
18009TIP3    H175518   4.647   6.340  13.971 -0.1231 -0.8376 -1.3137
18009TIP3    H275519   4.797   6.338  13.991 -0.3466  0.4827  0.6837
18010TIP3   OH275520   6.475   4.198   0.022 -0.2036 -0.5798 -0.2772
18010TIP3    H175521   6.566   4.188  -0.004 -0.2177  0.7581 -0.8558
18010TIP3    H275522   6.465   4.291   0.041 -1.4375 -0.7271 -0.1492
18011TIP3   OH275523   0.177   1.068   5.876  0.3675 -0.4146 -0.4139
18011TIP3    H175524   0.103   1.008   5.880  2.1523 -2.6796 -0.3468
18011TIP3    H275525   0.220   1.060   5.961  1.2610  0.1239 -0.8045
18012TIP3   OH275526   3.724   0.272  15.288 -0.3122 -0.4401 -0.8914
18012TIP3    H175527   3.731   0.268  15.383 -1.8702  0.3422 -0.7349
18012TIP3    H275528   3.706   0.182  15.261 -1.3303 -0.4158 -0.3111
18013TIP3   OH275529   4.284   5.590  11.746  0.3734 -0.2635  0.1216
18013TIP3    H175530   4.262   5.521  11.683  0.8162 -0.2857 -0.0126
18013TIP3    H275531   4.376   5.575  11.767 -0.3383 -1.6416  2.4898
18014TIP3   OH275532   2.981   4.337  16.747 -0.4053  0.1616 -0.2642
18014TIP3    H175533   2.911   4.338  16.682 -0.4507 -2.4499 -0.2831
18014TIP3    H275534   3.041   4.407  16.719 -1.6165  0.6383 -1.7474
18015TIP3   OH275535   5.511   5.686  16.956  0.6969 -0.5005  0.5771
18015TIP3    H175536   5.588   5.703  17.010  1.7391  1.1335 -1.3563
18015TIP3    H275537   5.546   5.662  16.871 -0.9264  1.2499 -0.6232
18016TIP3   OH275538   2.666   3.518  16.016  0.4892 -0.0781 -0.3076
18016TIP3    H175539   2.754   3.491  16.042 -0.5779 -0.7740  2.8356
18016TIP3    H275540   2.614   3.438  16.021 -0.3168  0.2950 -2.2808
18017TIP3   OH275541   5.608   6.400   5.131  0.4677 -0.0518  0.3129
18017TIP3    H175542   5.687   6.455   5.133  0.0248  0.6038  0.0506
18017TIP3    H275543   5.637   6.318   5.090  0.3643  1.2835 -2.5631
18018TIP3   OH275544   1.396   0.061  12.891 -0.2127 -1.0346 -0.6102
18018TIP3    H175545   1.361   0.149  12.877 -0.6772 -1.3904 -1.7062
18018TIP3    H275546   1.491   0.073  12.897 -0.3543 -0.3273  0.3618
18019TIP3   OH275547   2.819   6.276  13.652 -0.0374 -0.2609  0.0586
18019TIP3    H175548   2.905   6.291  13.613 -0.3302  0.0081 -0.4904
18019TIP3    H275549   2.786   6.364  13.672 -0.3163 -0.3438 -0.0304
18020TIP3   OH275550   1.519   0.601  13.587 -0.1977 -0.1783 -0.5855
18020TIP3    H175551   1.585   0.643  13.531 -0.0104  0.7415  0.3018
18020TIP3    H275552   1.436   0.635  13.554 -0.0758  0.5202 -0.1786
18021TIP3   OH275553   5.540   1.055  12.197 -0.0629 -0.0779 -0.1583
18021TIP3    H175554   5.630   1.078  12.175  0.1827  1.3924  2.1612
18021TIP3    H275555   5.542   1.037  12.291 -2.7239  3.0477  0.5806
18022TIP3   OH275556   0.802   3.958  13.550 -0.5873 -0.5079 -0.2126
18022TIP3    H175557   0.760   4.042  13.570 -1.3113 -0.4508 -1.8915
18022TIP3    H275558   0.734   3.907  13.507  0.6701 -0.9176 -1.7302
18023TIP3   OH275559   0.659   5.786   5.741 -0.1579  0.0369  0.6481
18023TIP3    H175560   0.616   5.845   5.678 -0.7589  0.1595  1.1690
18023TIP3    H275561   0.609   5.797   5.822 -1.4198 -2.5719  0.2515
18024TIP3   OH275562   3.054   1.076   1.734 -0.5909 -0.0902  0.2038
18024TIP3    H175563   3.088   0.990   1.759 -1.2837 -1.2499 -2.6376
18024TIP3    H275564   2.960   1.062   1.721 -0.3768  0.5694 -2.3025
18025TIP3   OH275565   5.553   3.488  13.603 -0.4904 -0.1286  0.4702
18025TIP3    H175566   5.604   3.548  13.657  0.0226 -0.6017  0.5221
18025TIP3    H275567   5.561   3.404  13.647 -2.4653  0.0558  1.2336
18026TIP3   OH275568   1.626   4.004   1.850 -0.0395 -0.2262  0.3655
18026TIP3    H175569   1.637   3.982   1.943  0.0755 -1.8226 -0.0062
18026TIP3    H275570   1.551   3.951   1.822 -0.5714  0.8401 -0.2635
18027TIP3   OH275571   6.285   2.040  17.169  0.8145  0.1578  0.4031
18027TIP3    H175572   6.203   2.063  17.211  1.7625  1.0758  1.7774
18027TIP3    H275573   6.271   2.062  17.076  0.2691  2.4169  0.9890
18028TIP3   OH275574   0.655   2.533   1.506  0.2286 -0.0678  0.1634
18028TIP3    H175575   0.695   2.448   1.491  1.4935 -0.1390  3.4977
18028TIP3    H275576   0.561   2.515   1.509  0.3774 -1.0339 -0.8770
18029TIP3   OH275577   0.507   0.469   3.032  0.2247  0.0903  0.0686
18029TIP3    H175578   0.500   0.532   3.104  1.4020 -1.2347  1.3711
18029TIP3    H275579   0.593   0.428   3.044 -0.2428 -1.3029 -1.1570
18030TIP3   OH275580   3.430   6.403   3.131 -0.3980  0.0493  0.0536
18030TIP3    H175581   3.460   6.337   3.069 -0.5103 -0.1344  0.1924
18030TIP3    H275582   3.341   6.376   3.153 -1.6312  1.9780 -2.2980
18031TIP3   OH275583   1.464   4.972   1.414  0.0600  0.1359 -0.0676
18031TIP3    H175584   1.498   4.903   1.358 -0.4145  1.4424 -2.0311
18031TIP3    H275585   1.375   4.944   1.435  0.7358 -1.0625  1.2629
18032TIP3   OH275586   3.674   5.391   2.624  0.1490 -0.1060 -0.1073
18032TIP3    H175587   3.662   5.486   2.623  0.9707  0.0081 -1.4304
18032TIP3    H275588   3.728   5.375   2.701  0.6804  0.6102 -0.3165
18033TIP3   OH275589   1.370   2.836  16.858 -0.7458  0.0393 -0.0993
18033TIP3    H175590   1.411   2.887  16.788 -0.1557 -2.7890 -1.9015
18033TIP3    H275591   1.418   2.754  16.859 -2.3365 -0.9136  2.0018
18034TIP3   OH275592   5.604   3.278   6.679 -0.5171 -0.0961 -0.5295
18034TIP3    H175593   5.671   3.219   6.643 -0.3783  0.1462 -0.6680
18034TIP3    H275594   5.549   3.221   6.732 -0.1892 -0.2968 -0.3994
18035TIP3   OH275595   0.771   3.143  15.295  0.1360  0.3987 -0.3266
18035TIP3    H175596   0.756   3.229  15.256 -0.9390 -0.0471 -0.8868
18035TIP3    H275597   0.732   3.081  15.234 -0.5478 -0.3774  0.8806
18036TIP3   OH275598   0.911   4.976   1.390  0.2372  0.1322 -1.0310
18036TIP3    H175599   0.902   4.990   1.484 -0.7118 -0.4910 -1.0183
18036TIP3    H275600   1.002   4.998   1.371  0.2372  0.9657 -0.0938
18037TIP3   OH275601   0.571   3.136  16.340  0.1344  0.6155 -0.0654
18037TIP3    H175602   0.574   3.190  16.419 -1.0828  1.5174 -0.6205
18037TIP3    H275603   0.601   3.050  16.369  1.9021  1.5166  0.8793
18038TIP3   OH275604   6.382   6.628   2.867 -0.0010  0.5118 -0.6273
18038TIP3    H175605   6.333   6.553   2.902  1.2832  0.4535  1.1888
18038TIP3    H275606   6.405   6.602   2.778 -0.5651 -0.7923 -0.4093
18039TIP3   OH275607   3.775   3.579   1.879 -0.2744  0.5245  0.5108
18039TIP3    H175608   3.858   3.627   1.880 -0.1218  0.3218 -0.7912
18039TIP3    H275609   3.745   3.585   1.788 -3.2544  3.2605  1.5879
18040TIP3   OH275610   4.482   5.725  11.187  0.4088 -0.6371 -0.1294
18040TIP3    H175611   4.392   5.739  11.216 -0.1497 -1.2473 -1.5250
18040TIP3    H275612   4.536   5.771  11.251 -0.8231 -1.3981  1.4771
18041TIP3   OH275613   3.857   4.110  14.472  0.2859 -0.3029  0.3384
18041TIP3    H175614   3.898   4.152  14.548 -2.3953 -1.1252  2.3055
18041TIP3    H275615   3.873   4.017  14.484 -0.9982 -0.5179  0.4241
18042TIP3   OH275616   4.257   4.143   4.043  0.0275 -0.3927  0.5636
18042TIP3    H175617   4.335   4.153   4.097 -0.4596  1.9195  0.8878
18042TIP3    H275618   4.200   4.215   4.069 -0.3351  0.6499 -2.7949
18043TIP3   OH275619   6.795   1.529  16.082  0.1493 -0.2659  0.3705
18043TIP3    H175620   6.727   1.525  16.015  0.3306  2.6935 -0.0678
18043TIP3    H275621   6.748   1.552  16.162  0.5603  1.3823  0.1496
18044TIP3   OH275622   5.383   5.742  16.567  0.0208  0.4269 -0.1955
18044TIP3    H175623   5.453   5.808  16.566  0.3404  0.1194  1.0173
18044TIP3    H275624   5.422   5.667  16.612 -1.3023  0.4929  1.0648
18045TIP3   OH275625   6.124   4.929  12.779  0.3675 -0.0452  0.4206
18045TIP3    H175626   6.170   4.928  12.863  0.8433 -1.3935  0.1501
18045TIP3    H275627   6.049   4.987  12.794  1.2906  0.9616  1.3104
18046TIP3   OH275628   6.110   5.473   3.204 -0.0912 -0.0670  0.5688
18046TIP3    H175629   6.030   5.427   3.178 -0.6017 -0.1839  2.3236
18046TIP3    H275630   6.079   5.556   3.241  0.7964  1.5481 -2.1071
18047TIP3   OH275631   4.663   0.524   1.421  0.1655  0.1333 -0.1843
18047TIP3    H175632   4.734   0.587   1.425 -0.3081  0.6727 -0.2389
18047TIP3    H275633   4.617   0.534   1.504 -1.2733  1.4838 -1.1157
18048TIP3   OH275634   0.515   0.186   3.869 -0.3240 -0.0019  0.5314
18048TIP3    H175635   0.591   0.244   3.869 -0.0757 -0.2804  2.2826
18048TIP3    H275636   0.538   0.115   3.809 -0.2750  1.2544 -0.9453
18049TIP3   OH275637   0.359   1.427  11.395  0.3939 -0.3438 -0.1137
18049TIP3    H175638   0.388   1.507  11.439 -0.3985 -0.4686  0.6671
18049TIP3    H275639   0.398   1.357  11.446  0.9462 -0.4587 -0.6955
18050TIP3   OH275640   1.061   1.635  13.055  0.2178  0.1155 -0.5016
18050TIP3    H175641   1.112   1.665  12.979  1.6649  0.3074  0.5202
18050TIP3    H275642   1.061   1.710  13.114 -1.3697  0.1511 -0.5223
18051TIP3   OH275643   4.846   5.700   5.463  0.2679  0.0074 -0.3669
18051TIP3    H175644   4.906   5.701   5.388 -0.0871  0.0327 -0.6532
18051TIP3    H275645   4.760   5.686   5.424  0.1431 -0.4724  0.0825
18052TIP3   OH275646   0.722   2.246   3.198 -0.2586  0.5837 -0.1108
18052TIP3    H175647   0.680   2.262   3.282  0.7570  1.3035  0.2717
18052TIP3    H275648   0.789   2.315   3.191 -2.5003  2.6014 -2.9541
18053TIP3   OH275649   6.614   0.097  12.109 -0.5192  0.0039  0.5208
18053TIP3    H175650   6.681   0.150  12.151  0.0205 -0.6401  0.4779
18053TIP3    H275651   6.637   0.007  12.130 -0.8711 -0.2724 -0.2276
18054TIP3   OH275652   0.629   5.977  16.723 -0.2774 -0.8497 -0.4709
18054TIP3    H175653   0.553   6.009  16.770 -0.9479 -1.6259 -1.0029
18054TIP3    H275654   0.676   6.056  16.695 -0.4700 -0.3812  0.5215
18055TIP3   OH275655   0.786   3.811   1.263 -0.7420 -0.1877  0.0670
18055TIP3    H175656   0.861   3.795   1.206 -1.1030 -0.2793 -0.3912
18055TIP3    H275657   0.722   3.745   1.236 -1.4603  0.6971 -0.4204
18056TIP3   OH275658   3.079   2.041   3.839  0.2994  0.2063  0.0202
18056TIP3    H175659   3.168   2.026   3.873  0.0332 -0.1032  0.5758
18056TIP3    H275660   3.035   2.089   3.909 -0.4327 -0.9455  0.3544
18057TIP3   OH275661   2.734   5.151   1.656  0.7256 -0.0431 -0.2323
18057TIP3    H175662   2.702   5.234   1.621 -0.4726  0.1828  1.3385
18057TIP3    H275663   2.672   5.085   1.625 -0.3176  0.1517  1.3658
18058TIP3   OH275664   6.347   3.369  15.366 -0.5214  0.0565  0.2467
18058TIP3    H175665   6.440   3.388  15.381 -0.6512  2.6472 -1.8106
18058TIP3    H275666   6.301   3.446  15.400 -1.6688  0.1687 -1.4894
18059TIP3   OH275667   1.235   4.376   0.678 -0.0836  0.5262 -0.2187
18059TIP3    H175668   1.243   4.311   0.608 -0.9159  0.6174 -0.3964
18059TIP3    H275669   1.192   4.330   0.750 -0.3988  0.7962 -0.2348
18060TIP3   OH275670   4.679   2.668  15.770 -0.3637 -0.1403 -0.5287
18060TIP3    H175671   4.733   2.625  15.703 -0.3141  0.8757 -1.1556
18060TIP3    H275672   4.668   2.602  15.838 -0.9049 -1.4039 -1.8129
18061TIP3   OH275673   5.691   2.558   3.020  0.6570 -0.6623  0.5126
18061TIP3    H175674   5.707   2.494   2.951  0.3339  0.6582 -0.8279
18061TIP3    H275675   5.716   2.642   2.981  1.2183  0.0137  2.2789
18062TIP3   OH275676   4.911   1.095   6.273 -0.0175  0.0822  0.4293
18062TIP3    H175677   4.830   1.072   6.229  0.2057 -0.5725  0.3535
18062TIP3    H275678   4.884   1.142   6.352 -0.4992 -1.2437  1.0530
18063TIP3   OH275679   4.078   5.298   0.142 -0.1444 -0.6005  0.4096
18063TIP3    H175680   4.006   5.236   0.155 -0.6658 -0.4243 -1.5342
18063TIP3    H275681   4.112   5.314   0.231 -1.2339 -2.1752  1.1366
18064TIP3   OH275682   1.774   4.899   5.908 -0.2463 -0.3272  0.1478
18064TIP3    H175683   1.863   4.915   5.877 -0.4565 -1.5452 -1.1009
18064TIP3    H275684   1.719   4.910   5.831 -0.8801 -2.3176  0.2976
18065TIP3   OH275685   0.489   1.651  14.029  0.0260  0.1524 -0.2072
18065TIP3    H175686   0.528   1.564  14.025 -0.9673 -0.3018 -0.2963
18065TIP3    H275687   0.561   1.711  14.008  0.6929 -0.6514 -0.2427
18066TIP3   OH275688   1.126   4.333  15.659  0.4681  0.7493 -0.9744
18066TIP3    H175689   1.220   4.329  15.677  0.1509  0.6793  0.7879
18066TIP3    H275690   1.118   4.392  15.585  1.7903  1.8862 -0.2269
18067TIP3   OH275691   4.614   4.263  13.093 -0.4358  0.0408 -0.0036
18067TIP3    H175692   4.683   4.320  13.127 -0.3786  0.0650 -0.1598
18067TIP3    H275693   4.533   4.312  13.108 -0.2595  0.7959 -1.4491
18068TIP3   OH275694   4.079   6.138   1.629 -0.7194  0.3850 -0.0283
18068TIP3    H175695   4.068   6.111   1.720 -1.2255 -1.8790 -0.7382
18068TIP3    H275696   3.994   6.171   1.602 -0.0249  3.1097  0.9289
18069TIP3   OH275697   5.741   5.746  16.508  0.3705  0.1342 -0.4411
18069TIP3    H175698   5.750   5.778  16.598 -2.0788  0.2238 -0.1868
18069TIP3    H275699   5.762   5.653  16.513  3.3508  0.7598 -0.3936
18070TIP3   OH275700   4.993   3.018  11.412 -0.4537  0.2950 -0.0589
18070TIP3    H175701   5.086   2.996  11.415 -0.1573  1.4068 -0.6606
18070TIP3    H275702   4.948   2.934  11.408  0.5858 -0.2168 -1.2552
18071TIP3   OH275703   3.761   2.206  14.889 -0.9928 -0.4757  0.0083
18071TIP3    H175704   3.836   2.201  14.829 -1.2675  0.5796 -0.4521
18071TIP3    H275705   3.800   2.218  14.975 -0.6163  0.0227 -0.2237
18072TIP3   OH275706   4.268   6.090   5.733  0.3796  0.8102  0.0244
18072TIP3    H175707   4.175   6.084   5.753  0.3226  1.1943 -0.1092
18072TIP3    H275708   4.299   6.163   5.787  0.6345  0.5730  0.1949
18073TIP3   OH275709   5.700   1.197   4.190 -0.6409 -0.4327  0.6211
18073TIP3    H175710   5.751   1.127   4.149 -2.9653 -1.4576 -0.6554
18073TIP3    H275711   5.633   1.150   4.241 -2.2355  0.8513 -0.2602
18074TIP3   OH275712   3.060   1.197  13.712 -0.6513  0.5250  0.6875
18074TIP3    H175713   3.030   1.251  13.639 -1.1382 -0.0245  0.4767
18074TIP3    H275714   3.119   1.254  13.761 -2.4077  1.8003  1.3844
18075TIP3   OH275715   2.022   4.602  12.604  0.1742  0.4007 -1.0285
18075TIP3    H175716   1.980   4.688  12.602  0.7698  0.8583  2.5988
18075TIP3    H275717   1.961   4.546  12.651  1.6134 -0.0606  0.3508
18076TIP3   OH275718   6.731   3.675   1.043 -0.2512 -1.0444  0.3530
18076TIP3    H175719   6.753   3.737   1.112  1.1149  0.1509 -1.1373
18076TIP3    H275720   6.812   3.627   1.026  0.1067  0.3110 -2.0507
18077TIP3   OH275721   2.989   3.497  14.362  0.9046  0.2154 -0.6462
18077TIP3    H175722   2.897   3.477  14.374  0.9300  0.8510  0.7559
18077TIP3    H275723   3.008   3.563  14.429  2.9423 -1.6476  0.6903
18078TIP3   OH275724   3.593   2.918   6.093  0.2027 -0.5002 -0.0873
18078TIP3    H175725   3.501   2.894   6.106  0.4244 -1.1727  0.2590
18078TIP3    H275726   3.589   3.002   6.049 -0.5877 -0.6694 -0.3607
18079TIP3   OH275727   6.727   1.541  11.503 -0.0908  0.0130  0.5969
18079TIP3    H175728   6.659   1.595  11.543 -1.5925 -1.3052 -0.1005
18079TIP3    H275729   6.738   1.577  11.415 -0.6974 -0.4539  0.3253
18080TIP3   OH275730   3.384   5.853   5.382  0.3702  0.2446 -0.2736
18080TIP3    H175731   3.380   5.759   5.399  0.4668  0.4926  1.1928
18080TIP3    H275732   3.294   5.878   5.359  0.1177 -0.0052  0.4438
18081TIP3   OH275733   0.244   4.282  13.486 -0.4036 -0.0389  0.0223
18081TIP3    H175734   0.207   4.249  13.405  0.7142  0.9729 -0.9377
18081TIP3    H275735   0.313   4.343  13.457  2.0183 -1.8766  1.7056
18082TIP3   OH275736   0.214   5.123  16.400 -0.1798  0.4896  0.1760
18082TIP3    H175737   0.302   5.096  16.372 -0.2982  1.3597 -1.0677
18082TIP3    H275738   0.229   5.201  16.454 -0.1769  0.4664  0.2086
18083TIP3   OH275739   5.805   0.605  12.894  0.4902  0.2433 -0.2809
18083TIP3    H175740   5.714   0.584  12.871  0.6241 -2.7326  1.5732
18083TIP3    H275741   5.845   0.633  12.812 -1.2800 -1.6360 -1.8545
18084TIP3   OH275742   0.200   3.468   3.337 -0.3221 -0.8057  0.1021
18084TIP3    H175743   0.195   3.413   3.259  1.3943 -1.0467  0.1432
18084TIP3    H275744   0.227   3.554   3.304  1.2780 -1.1367  0.5107
18085TIP3   OH275745   5.436   4.698  12.027  0.5327 -1.0836 -0.5669
18085TIP3    H175746   5.428   4.762  11.956  0.5572 -1.3078 -0.7749
18085TIP3    H275747   5.452   4.615  11.982 -1.7281 -1.6264 -0.4062
18086TIP3   OH275748   5.849   3.153  15.366  0.9241 -0.1287 -0.1528
18086TIP3    H175749   5.901   3.131  15.444  1.0854 -2.5823 -0.9240
18086TIP3    H275750   5.762   3.118  15.384  1.7009 -3.3736 -2.2149
18087TIP3   OH275751   1.994   2.280   0.720 -0.2535  0.1597 -0.1214
18087TIP3    H175752   1.941   2.217   0.672 -1.1690  1.7665 -1.2823
18087TIP3    H275753   1.940   2.305   0.795 -0.7807  1.1131 -0.8068
18088TIP3   OH275754   0.698   5.543   5.466  0.3562  0.4640  0.1785
18088TIP3    H175755   0.678   5.455   5.432 -0.8953  0.6198  0.4962
18088TIP3    H275756   0.618   5.571   5.509  0.6187  1.9421 -0.2728
18089TIP3   OH275757   6.579   3.238   5.582 -0.2886 -0.1373 -0.0698
18089TIP3    H175758   6.544   3.312   5.632  0.0184  0.2616 -0.4424
18089TIP3    H275759   6.544   3.250   5.494  0.8917  0.3458 -0.4859
18090TIP3   OH275760   3.654   0.669  14.649  0.0003 -0.4733 -0.5906
18090TIP3    H175761   3.614   0.649  14.733  2.5031 -1.5279  0.3989
18090TIP3    H275762   3.730   0.724  14.670  1.1423 -1.4279 -2.0383
18091TIP3   OH275763   2.218   2.754  13.588  0.2312  0.4443  0.5258
18091TIP3    H175764   2.183   2.674  13.626 -0.6734 -0.4838 -2.1238
18091TIP3    H275765   2.141   2.808  13.569  0.4636  0.0629 -1.6917
18092TIP3   OH275766   0.023   0.976  13.326 -0.5595  0.0550 -1.0750
18092TIP3    H175767   0.119   0.969  13.325 -0.6275 -1.2822 -0.3949
18092TIP3    H275768  -0.006   0.907  13.265 -1.1295 -0.8881  0.2396
18093TIP3   OH275769   3.795   0.527   0.613  0.1907  0.3890  0.4517
18093TIP3    H175770   3.756   0.612   0.637  0.9039  1.0293 -0.6060
18093TIP3    H275771   3.739   0.494   0.544 -0.2714 -0.1578  1.0865
18094TIP3   OH275772   4.868   2.311  15.456 -0.1707 -0.6930 -0.7930
18094TIP3    H175773   4.804   2.309  15.527  2.5055 -0.0204  1.7328
18094TIP3    H275774   4.916   2.228  15.464  0.7536 -0.2124 -1.2081
18095TIP3   OH275775   2.490   2.123  12.854  0.2186  0.4567  0.0105
18095TIP3    H175776   2.550   2.080  12.793  0.3071  0.4811  0.0792
18095TIP3    H275777   2.485   2.213  12.822  0.5221  0.5535  0.2303
18096TIP3   OH275778   3.156   0.620  15.454 -0.3935 -0.4415  0.0842
18096TIP3    H175779   3.241   0.614  15.496 -0.0163  0.3629 -0.5367
18096TIP3    H275780   3.144   0.536  15.410  1.1547  0.2853 -1.7934
18097TIP3   OH275781   3.363   3.797  10.443 -0.1527  0.1665  0.0760
18097TIP3    H175782   3.445   3.748  10.440  0.8765  1.7366  1.2630
18097TIP3    H275783   3.300   3.736  10.482  0.8540 -0.5412  0.6337
18098TIP3   OH275784   1.969   2.676  11.796  0.6476  0.2691 -0.5227
18098TIP3    H175785   1.933   2.652  11.711 -0.5698  0.8560 -0.1761
18098TIP3    H275786   1.921   2.622  11.860  1.1023  0.3003 -0.1487
18099TIP3   OH275787   3.737   3.226   6.096  0.0425  0.2953  0.0113
18099TIP3    H175788   3.805   3.290   6.076  1.0397 -0.3809  1.1598
18099TIP3    H275789   3.708   3.194   6.010  0.3994  1.3823 -0.5204
18100TIP3   OH275790   3.497   3.542   0.586  0.2518  0.2122  0.3368
18100TIP3    H175791   3.444   3.490   0.646 -0.4715  1.1205  0.5138
18100TIP3    H275792   3.444   3.621   0.571  1.4597  1.0230  0.3191
18101TIP3   OH275793   5.629   3.777   2.092 -0.1837  0.4657  0.3287
18101TIP3    H175794   5.648   3.760   2.185  0.9316 -0.0353  0.0228
18101TIP3    H275795   5.534   3.764   2.084 -0.4029  1.3010  1.5577
18102TIP3   OH275796   3.875   3.743  12.514 -0.2590 -0.4159  0.5201
18102TIP3    H175797   3.833   3.704  12.590 -0.3624  0.0165  0.6870
18102TIP3    H275798   3.816   3.814  12.488  0.2432  0.0324  0.6034
18103TIP3   OH275799   5.187   3.446  14.790 -0.2513  0.0854  0.4635
18103TIP3    H175800   5.094   3.432  14.806 -0.6559  1.7728 -0.2937
18103TIP3    H275801   5.200   3.540  14.808  1.1226  0.0374 -0.2227
18104TIP3   OH275802   4.362   2.758   3.747  0.0109  0.0543 -0.4556
18104TIP3    H175803   4.283   2.733   3.795  0.8109  0.1494  0.9358
18104TIP3    H275804   4.399   2.675   3.718  0.3025 -0.1126  0.3684
18105TIP3   OH275805   3.567   6.077   3.081  0.3833  0.1677 -0.7313
18105TIP3    H175806   3.660   6.093   3.069 -0.1497  1.8095 -3.1604
18105TIP3    H275807   3.525   6.129   3.012 -2.2866 -1.0210 -0.0667
18106TIP3   OH275808   2.591   5.023  17.252 -0.1258  0.7275 -0.1298
18106TIP3    H175809   2.532   5.058  17.186 -1.1287 -1.6869 -0.5867
18106TIP3    H275810   2.632   4.947  17.210  0.0276 -0.2004  1.6389
18107TIP3   OH275811   2.243   5.750  13.861 -0.6500 -0.2279 -0.4082
18107TIP3    H175812   2.172   5.777  13.919 -0.3471 -0.3420  0.0172
18107TIP3    H275813   2.303   5.701  13.917  0.3137  0.7871 -0.5365
18108TIP3   OH275814   0.815   3.188   3.524  0.3269 -0.3915  0.4522
18108TIP3    H175815   0.790   3.179   3.616 -0.1371 -0.8678  0.2834
18108TIP3    H275816   0.733   3.200   3.478  0.7286  2.1454  0.3430
18109TIP3   OH275817   6.391   0.370   3.502 -0.8754 -0.1528 -0.2093
18109TIP3    H175818   6.365   0.341   3.590  1.0558  0.8107  0.7110
18109TIP3    H275819   6.365   0.462   3.499  0.0154  0.0925 -0.2722
18110TIP3   OH275820   3.941   5.909   1.469  0.8160 -0.5259 -0.4569
18110TIP3    H175821   4.029   5.872   1.478  0.4205 -1.3642  0.0318
18110TIP3    H275822   3.915   5.932   1.558  0.3109 -0.8277 -0.5234
18111TIP3   OH275823   1.236   3.068   4.761 -0.1605 -0.7696  0.1517
18111TIP3    H175824   1.188   2.985   4.760 -1.4441 -0.0296  0.1687
18111TIP3    H275825   1.172   3.133   4.733  1.1414  0.0692 -0.9494
18112TIP3   OH275826   1.221   4.403  11.773 -0.3041  0.2060 -0.3459
18112TIP3    H175827   1.199   4.389  11.681  2.2946 -2.6699 -0.6005
18112TIP3    H275828   1.309   4.440  11.771 -0.4981  0.7565  1.0011
18113TIP3   OH275829   5.477   6.788   3.451  0.5002 -0.6351  0.0761
18113TIP3    H175830   5.532   6.789   3.529  1.5447 -0.5851 -0.6465
18113TIP3    H275831   5.431   6.873   3.453  1.6605  0.0030 -0.1548
18114TIP3   OH275832   5.017   0.671  12.181 -0.0555  0.2081 -0.0053
18114TIP3    H175833   5.086   0.711  12.235 -0.0083 -0.4651  0.4340
18114TIP3    H275834   4.948   0.737  12.180  0.5484  0.8508 -0.3665
18115TIP3   OH275835   3.239   6.251  10.874  0.3896 -0.5136  0.6151
18115TIP3    H175836   3.215   6.194  10.801  0.3572 -1.4569  1.3545
18115TIP3    H275837   3.156   6.288  10.904  0.5544  1.0240 -0.7452
18116TIP3   OH275838   4.037   5.920  16.340 -0.0798 -0.2773  0.1697
18116TIP3    H175839   4.050   5.899  16.433 -0.8903 -0.4232  0.2502
18116TIP3    H275840   3.942   5.926  16.330  0.0098 -0.2434 -0.6499
18117TIP3   OH275841   4.336   5.236  14.491  0.3537 -0.2905 -0.0779
18117TIP3    H175842   4.276   5.265  14.422 -0.1659 -1.4171 -0.1092
18117TIP3    H275843   4.351   5.315  14.543 -0.8503  0.1012 -0.2934
18118TIP3   OH275844   4.387   3.171  11.708 -0.1547 -0.8461  0.5020
18118TIP3    H175845   4.378   3.076  11.714 -0.3187 -0.8714 -0.1268
18118TIP3    H275846   4.478   3.185  11.680 -0.4328 -0.8631 -0.4432
18119TIP3   OH275847   4.733   5.100  15.633 -0.0172  0.0672 -0.4278
18119TIP3    H175848   4.775   5.101  15.546 -1.1487 -0.6522 -0.9978
18119TIP3    H275849   4.648   5.140  15.618 -0.3766 -0.4313  0.2705
18120TIP3   OH275850   5.645   6.286   3.826  0.1864  0.4696  0.2051
18120TIP3    H175851   5.695   6.220   3.778 -0.8051 -0.3362  0.2754
18120TIP3    H275852   5.597   6.334   3.758  0.0577  0.4064  0.2517
18121TIP3   OH275853   6.598   1.223  13.671  0.1764  0.0129  0.2367
18121TIP3    H175854   6.611   1.179  13.587 -1.9709  0.5668 -0.4077
18121TIP3    H275855   6.509   1.200  13.697 -0.2933  2.3293  0.8285
18122TIP3   OH275856   2.751   3.223  15.583 -0.9580  0.6387  0.3955
18122TIP3    H175857   2.701   3.195  15.507 -1.1524  2.1351 -0.0379
18122TIP3    H275858   2.704   3.301  15.615  0.3497  1.2912  0.7474
18123TIP3   OH275859   2.141   3.925   6.608  0.0273 -0.2010  0.4252
18123TIP3    H175860   2.075   3.893   6.548 -0.5856 -0.4068  1.2054
18123TIP3    H275861   2.224   3.890   6.574 -0.1468  0.7702 -1.0440
18124TIP3   OH275862   0.912   6.193   5.357 -0.6830  0.3678 -0.4347
18124TIP3    H175863   0.930   6.104   5.328  0.9124  0.9958 -1.4614
18124TIP3    H275864   0.875   6.183   5.445  1.2126 -1.2230  0.2240
18125TIP3   OH275865   1.115   0.018   3.370 -0.7112 -0.6257 -0.0779
18125TIP3    H175866   1.155   0.009   3.283 -0.8975 -2.2194 -0.0103
18125TIP3    H275867   1.041  -0.042   3.369 -2.1645  1.1494  0.3643
18126TIP3   OH275868   3.719   6.442  13.554  0.5228 -0.6967  0.1895
18126TIP3    H175869   3.736   6.446  13.459  0.2876 -0.3558  0.1586
18126TIP3    H275870   3.630   6.475  13.563  0.3731 -1.1881  0.4829
18127TIP3   OH275871   3.391   6.113   0.509 -0.3810 -0.8200 -0.1494
18127TIP3    H175872   3.461   6.078   0.454  1.2296 -0.2752  1.4912
18127TIP3    H275873   3.434   6.180   0.562 -2.4406  0.4587 -0.0339
18128TIP3   OH275874   0.520   4.466   2.270 -0.5812 -0.1142  0.5504
18128TIP3    H175875   0.429   4.437   2.280 -1.0824 -0.2784 -3.5502
18128TIP3    H275876   0.571   4.402   2.318 -2.4538 -1.8460  0.3119
18129TIP3   OH275877   2.968   3.975   5.410 -0.1146 -0.3684  0.1942
18129TIP3    H175878   3.057   3.956   5.437 -0.2066  0.3006  1.0123
18129TIP3    H275879   2.916   3.904   5.446 -0.0887 -0.0467  0.8814
18130TIP3   OH275880   6.110   1.638   0.411  0.3590  0.4470 -0.3147
18130TIP3    H175881   6.065   1.606   0.489  2.9302 -1.8999  0.3022
18130TIP3    H275882   6.095   1.732   0.411 -2.1448  0.0935  1.3655
18131TIP3   OH275883   1.041   4.929  16.327 -0.6502 -0.1039 -0.7258
18131TIP3    H175884   1.133   4.925  16.302 -0.8214  0.7988 -1.5238
18131TIP3    H275885   1.028   4.854  16.385  0.4034 -0.6511 -1.2028
18132TIP3   OH275886   0.955   5.996   3.604 -0.4069 -0.3995 -0.1721
18132TIP3    H175887   0.883   5.936   3.626  2.2696 -3.8844 -0.4525
18132TIP3    H275888   1.030   5.961   3.652  1.3852  2.5012 -0.7602
18133TIP3   OH275889   3.843   0.660  11.690 -0.6484  0.0878  0.0005
18133TIP3    H175890   3.754   0.658  11.654 -0.6605 -0.9135  0.0805
18133TIP3    H275891   3.888   0.587  11.649  0.6218  1.5243 -1.2194
18134TIP3   OH275892   6.038   0.804  13.703  0.2741  0.0000  0.0344
18134TIP3    H175893   6.011   0.894  13.721  1.1815  0.2452  0.2348
18134TIP3    H275894   6.121   0.813  13.655 -1.4069 -0.6555 -3.1532
18135TIP3   OH275895   2.953   6.028  14.015  0.2119 -0.1541  0.1203
18135TIP3    H175896   2.873   6.080  14.004 -1.0638 -1.9926  0.5257
18135TIP3    H275897   2.974   6.037  14.108  0.8409  0.8160 -0.1059
18136TIP3   OH275898   5.009   5.758   6.340  0.0680 -0.5302  0.2936
18136TIP3    H175899   5.080   5.714   6.386 -0.3516  0.5422  1.9753
18136TIP3    H275900   5.046   5.841   6.311 -0.4111 -0.0913  0.9279
18137TIP3   OH275901   5.647   0.541   3.708 -0.5888 -0.3092  0.1666
18137TIP3    H175902   5.594   0.481   3.759  1.2946 -1.2164  1.0968
18137TIP3    H275903   5.677   0.607   3.771  1.4270 -1.2155  0.1862
18138TIP3   OH275904   0.279   4.680   2.353  0.2282  0.0305 -0.1467
18138TIP3    H175905   0.220   4.609   2.329  0.7232 -0.6215  0.5633
18138TIP3    H275906   0.336   4.691   2.277  0.2835 -0.4687 -0.1768
18139TIP3   OH275907   3.959   3.305  13.949 -0.2846 -0.1509 -0.1868
18139TIP3    H175908   4.047   3.327  13.978 -1.1034  1.5396  1.1179
18139TIP3    H275909   3.927   3.243  14.015  1.1496 -3.4912 -2.5498
18140TIP3   OH275910   2.282   6.513  11.735 -0.4475 -0.6082 -0.5330
18140TIP3    H175911   2.308   6.425  11.762 -2.1361 -1.2712 -1.0569
18140TIP3    H275912   2.263   6.506  11.642  0.5965  0.5893 -0.8501
18141TIP3   OH275913   3.292   3.401  11.343  0.4064  0.2292 -0.0186
18141TIP3    H175914   3.254   3.465  11.283  0.7094  0.0268 -0.4322
18141TIP3    H275915   3.226   3.332  11.348 -0.3905  1.0728  1.2765
18142TIP3   OH275916   1.472   2.260  13.068 -0.5087 -0.6694  0.4521
18142TIP3    H175917   1.437   2.320  13.134 -2.2638 -0.5409 -0.5497
18142TIP3    H275918   1.471   2.174  13.110 -1.6497 -0.5907  0.5997
18143TIP3   OH275919   3.214   4.276   3.576  0.6129  0.0946 -0.0774
18143TIP3    H175920   3.136   4.296   3.524  0.1330 -0.1830  0.5341
18143TIP3    H275921   3.261   4.359   3.582  0.3698  0.2613 -0.4466
18144TIP3   OH275922   1.153   1.773   0.624  0.2161 -0.1684  0.0441
18144TIP3    H175923   1.097   1.847   0.600 -0.1092 -0.2830  0.4491
18144TIP3    H275924   1.232   1.785   0.571 -0.0754  0.1450 -0.3214
18145TIP3   OH275925   5.362   1.031  16.916 -0.5566  0.2777  0.2967
18145TIP3    H175926   5.456   1.037  16.932 -0.8493  1.3221  1.6345
18145TIP3    H275927   5.328   0.979  16.989 -0.9878 -0.4125 -0.3770
18146TIP3   OH275928   2.415   3.874   1.718  0.7782  0.1275 -0.3415
18146TIP3    H175929   2.382   3.869   1.807  0.0435 -0.6319 -0.6542
18146TIP3    H275930   2.393   3.962   1.689  0.1858  0.0575 -0.1033
18147TIP3   OH275931   4.343   3.337   4.015  0.0242  0.5734 -0.6845
18147TIP3    H175932   4.307   3.253   3.987 -0.8276  0.3051  1.1045
18147TIP3    H275933   4.271   3.399   4.002 -0.7567  0.2583  1.7462
18148TIP3   OH275934   2.006   2.551  16.685  0.5408 -0.5154  0.0991
18148TIP3    H175935   1.935   2.590  16.736  0.8346  1.4907 -0.9697
18148TIP3    H275936   1.966   2.529  16.601  1.2657  1.1162 -0.7044
18149TIP3   OH275937   0.079   0.398  13.543  0.6617  0.7222  0.4763
18149TIP3    H175938   0.022   0.430  13.613  2.2474 -2.5300  3.3940
18149TIP3    H275939   0.021   0.352  13.484 -0.1824  0.0109  1.8377
18150TIP3   OH275940   1.238   1.479  12.200  0.4117 -0.0468 -0.3671
18150TIP3    H175941   1.295   1.422  12.148  1.4788  1.9487 -1.4532
18150TIP3    H275942   1.297   1.541  12.241 -0.6667 -0.1455  1.3816
18151TIP3   OH275943   4.429   3.393  14.681  0.0720 -0.2315 -0.3764
18151TIP3    H175944   4.509   3.402  14.628  1.4890  1.5062  1.9520
18151TIP3    H275945   4.361   3.433  14.628  0.9890 -0.6441 -1.8969
18152TIP3   OH275946   4.117   0.973   0.052 -0.3652  0.6338 -0.0905
18152TIP3    H175947   4.161   0.889   0.040 -0.5988  0.4395  0.3874
18152TIP3    H275948   4.032   0.962   0.010 -1.0690  0.0490  1.4250
18153TIP3   OH275949   6.690   0.441   4.969  0.3464 -0.2777  0.3901
18153TIP3    H175950   6.603   0.417   4.999  0.1329  0.1732  0.1317
18153TIP3    H275951   6.747   0.420   5.043 -0.0879  0.1821  0.8623
18154TIP3   OH275952   1.526   1.806  16.492 -0.2216  0.1276 -0.1297
18154TIP3    H175953   1.443   1.832  16.451 -0.3191 -1.0217 -0.6731
18154TIP3    H275954   1.571   1.889  16.510 -0.7990  0.6932 -1.2677
18155TIP3   OH275955   5.529   2.548  12.437  0.1582  0.4658 -0.0129
18155TIP3    H175956   5.551   2.638  12.461 -1.1442  0.1721  2.4185
18155TIP3    H275957   5.555   2.496  12.513  1.2190 -1.2701 -1.5445
18156TIP3   OH275958   1.009   1.484   1.558  0.2792  0.1039 -0.4179
18156TIP3    H175959   1.007   1.389   1.553  0.3523  0.1896 -3.7354
18156TIP3    H275960   1.100   1.507   1.541  0.4334  0.7449  1.2365
18157TIP3   OH275961   3.958   5.723   3.225  0.1949  0.6902 -0.0887
18157TIP3    H175962   3.919   5.648   3.270  0.6379  1.5273  1.7164
18157TIP3    H275963   3.906   5.732   3.145 -1.7864  0.2996  1.1076
18158TIP3   OH275964   0.812   4.046  16.933  0.1156 -0.4335  0.4580
18158TIP3    H175965   0.812   4.070  16.840 -2.2571  0.8315  0.7473
18158TIP3    H275966   0.888   3.989  16.943 -1.3747 -3.2481 -2.9560
18159TIP3   OH275967   1.859   4.272   0.045 -0.0009  0.1698  0.1443
18159TIP3    H175968   1.809   4.256   0.125 -0.2579 -1.4739 -0.3256
18159TIP3    H275969   1.947   4.240   0.064 -0.2860 -1.0273 -0.5086
18160TIP3   OH275970   0.894   5.822   1.154  0.1073 -0.0357 -0.1429
18160TIP3    H175971   0.826   5.790   1.213 -0.7031  0.3851 -0.8374
18160TIP3    H275972   0.864   5.795   1.067 -0.2245  1.9867 -0.6643
18161TIP3   OH275973   2.221   2.873   3.136 -0.6167 -1.0017  0.3000
18161TIP3    H175974   2.233   2.923   3.056  0.2433 -1.5475  0.0829
18161TIP3    H275975   2.211   2.939   3.205  0.4917 -0.5318  0.0178
18162TIP3   OH275976   2.409   2.150  13.785  0.3585 -0.3638  0.5880
18162TIP3    H175977   2.400   2.119  13.875  1.9213  3.7701  2.3057
18162TIP3    H275978   2.324   2.189  13.765  0.5637  0.2875  0.9564
18163TIP3   OH275979   5.705   2.525  14.687  0.5221  0.0442  0.2633
18163TIP3    H175980   5.644   2.512  14.615  1.5870 -0.1682 -0.6124
18163TIP3    H275981   5.726   2.437  14.717  0.0161  0.1350  0.8976
18164TIP3   OH275982   3.493   6.563   1.610  0.3569  0.1329 -0.1735
18164TIP3    H175983   3.402   6.535   1.600 -0.0822  0.5098  2.3298
18164TIP3    H275984   3.541   6.514   1.544 -1.2800 -2.0868  0.2369
18165TIP3   OH275985   5.112   0.048   4.427 -0.6265 -0.3766  0.2676
18165TIP3    H175986   5.127   0.097   4.508 -2.5951  0.8065 -0.0633
18165TIP3    H275987   5.195   0.003   4.411 -0.1760 -0.5449  2.8716
18166TIP3   OH275988   2.887   1.309   2.300 -0.4352  0.2231 -0.1773
18166TIP3    H175989   2.834   1.356   2.236 -0.9001  0.3250  0.2822
18166TIP3    H275990   2.975   1.310   2.262 -0.3462  1.8539  0.0189
18167TIP3   OH275991   2.591   0.021   4.696  0.0400 -0.5034 -0.2732
18167TIP3    H175992   2.511   0.020   4.643 -0.2780 -1.4255  0.2209
18167TIP3    H275993   2.560   0.034   4.785  0.5834  1.1518 -0.3030
18168TIP3   OH275994   0.739   0.913   5.130  0.0322  0.7471  0.1440
18168TIP3    H175995   0.653   0.912   5.173 -0.5005 -1.0744 -0.9001
18168TIP3    H275996   0.801   0.892   5.199 -0.5626  0.1474  0.4942
18169TIP3   OH275997   2.223   5.479  13.055  0.6873 -0.1876  0.2846
18169TIP3    H175998   2.156   5.445  13.115  0.2672  0.1816  0.0251
18169TIP3    H275999   2.190   5.458  12.968  2.8561 -3.6795  0.2101
18170TIP3   OH276000   5.154   5.036   1.019 -0.2088  0.1266 -0.0883
18170TIP3    H176001   5.240   5.043   0.978 -0.2635 -1.6102 -0.5185
18170TIP3    H276002   5.124   5.127   1.027  0.3611  0.5844 -2.7449
18171TIP3   OH276003   5.582   2.811  12.525  0.7739  0.1397  0.3791
18171TIP3    H176004   5.623   2.829  12.441 -3.5175  2.9005 -1.2565
18171TIP3    H276005   5.574   2.896  12.568 -3.8704 -0.0653  0.2124
18172TIP3   OH276006   2.638   6.217   2.588  0.2700 -0.2471 -0.1202
18172TIP3    H176007   2.716   6.272   2.592  1.1898 -1.5563  0.1593
18172TIP3    H276008   2.629   6.196   2.495 -1.1413  1.8369 -0.4927
18173TIP3   OH276009   2.173   1.166   1.161 -0.2192 -0.5156 -0.3018
18173TIP3    H176010   2.178   1.207   1.075 -1.3182 -0.7800 -0.4993
18173TIP3    H276011   2.188   1.073   1.144  2.7474 -0.2050  0.2009
18174TIP3   OH276012   4.881   6.736  11.030  0.2241  0.0683 -0.0047
18174TIP3    H176013   4.877   6.784  10.947  0.2106 -2.6744 -1.6737
18174TIP3    H276014   4.968   6.695  11.029 -1.1223 -2.9143 -0.4276
18175TIP3   OH276015   2.076   3.123   3.851 -0.3249  0.2663 -0.1067
18175TIP3    H176016   2.004   3.106   3.912 -1.3223 -2.9452 -2.0995
18175TIP3    H276017   2.036   3.115   3.765  2.0132  0.4780 -1.2336
18176TIP3   OH276018   2.245   1.201   3.374 -0.6481  0.4990  0.3119
18176TIP3    H176019   2.232   1.128   3.435 -0.3653  0.1168 -0.0836
18176TIP3    H276020   2.321   1.248   3.409  0.6410 -0.7649 -0.7422
18177TIP3   OH276021   4.158   3.653   2.591 -0.1310  0.4628  0.7927
18177TIP3    H176022   4.220   3.722   2.570 -0.0875 -0.1925 -1.3194
18177TIP3    H276023   4.182   3.625   2.679  3.9865 -1.2479 -0.7563
18178TIP3   OH276024   2.686   6.331  12.186 -0.0240  0.1578  0.1498
18178TIP3    H176025   2.633   6.392  12.237 -0.2910  0.1932 -0.1684
18178TIP3    H276026   2.634   6.251  12.182  0.5614 -0.2658  1.0173
18179TIP3   OH276027   4.936   0.226   2.068 -0.6407  0.2081  0.1875
18179TIP3    H176028   4.900   0.140   2.089  0.6711 -0.0828  1.3286
18179TIP3    H276029   5.019   0.230   2.115  0.0458  1.5072 -1.0725
18180TIP3   OH276030   6.323   3.593  14.201 -0.1302 -0.1738  0.1306
18180TIP3    H176031   6.341   3.674  14.154 -1.3676 -0.8540 -1.5841
18180TIP3    H276032   6.387   3.592  14.272  2.2935  0.5544 -1.9436
18181TIP3   OH276033   1.282   2.671   2.350 -0.2624  0.4359  0.5383
18181TIP3    H176034   1.222   2.653   2.423 -1.5575  1.1181 -0.3247
18181TIP3    H276035   1.275   2.594   2.294  0.9557 -0.2167  1.2688
18182TIP3   OH276036   1.145   6.163   3.047 -0.0104 -0.3402 -0.5002
18182TIP3    H176037   1.127   6.196   2.959  0.4563 -1.4724 -1.0345
18182TIP3    H276038   1.098   6.223   3.105  0.9330  1.3219 -1.4140
18183TIP3   OH276039   4.778   3.870   4.220  0.5125  0.4046  0.2715
18183TIP3    H176040   4.791   3.907   4.307  0.8619 -0.7770  0.7256
18183TIP3    H276041   4.817   3.783   4.225 -0.0011  0.1063 -0.8869
18184TIP3   OH276042   2.030   1.735   2.405 -0.0712  0.0069 -0.2000
18184TIP3    H176043   2.087   1.811   2.421  0.6004 -0.4852 -0.2212
18184TIP3    H276044   1.969   1.735   2.478 -1.2206  1.6085 -1.1296
18185TIP3   OH276045   1.101   4.456   1.136  0.2396 -0.6529  0.7556
18185TIP3    H176046   1.110   4.396   1.210 -3.0117  2.8131  4.2484
18185TIP3    H276047   1.157   4.530   1.157 -1.4019  0.7801  0.2769
18186TIP3   OH276048   4.590   2.513   0.536  0.1321  0.3898  0.2652
18186TIP3    H176049   4.498   2.504   0.561 -0.1731  0.4189 -0.8189
18186TIP3    H276050   4.630   2.429   0.559  0.3640  1.1558  2.8585
18187TIP3   OH276051   5.329   5.170  11.383  0.2297  0.0804  0.3750
18187TIP3    H176052   5.412   5.181  11.429 -0.2967  1.4158  1.0446
18187TIP3    H276053   5.328   5.078  11.358  2.9525  0.5416 -1.6799
18188TIP3   OH276054   5.203   2.316  15.063  0.0224  0.1166  0.0464
18188TIP3    H176055   5.270   2.255  15.093  1.6989  2.0151  0.3012
18188TIP3    H276056   5.213   2.318  14.968  0.2527  0.2782  0.0711
18189TIP3   OH276057   4.291   5.106   0.739  0.6671 -0.0460 -0.3272
18189TIP3    H176058   4.329   5.052   0.670 -1.7691  0.7428 -2.3519
18189TIP3    H276059   4.290   5.194   0.702  1.7817  0.8689  1.7647
18190TIP3   OH276060   4.494   3.068  14.986  0.1757 -0.0970  0.2441
18190TIP3    H176061   4.477   3.102  15.074  1.4343 -1.1702  0.9042
18190TIP3    H276062   4.589   3.062  14.980  0.0858 -0.4590 -1.0465
18191TIP3   OH276063   0.249   1.366   1.542  0.0885 -0.0782  0.5171
18191TIP3    H176064   0.282   1.451   1.571 -0.0849  0.2348 -0.1716
18191TIP3    H276065   0.299   1.348   1.462  0.4675 -0.8546  0.9288
18192TIP3   OH276066   2.354   0.183   0.975  0.6117  0.3839 -0.1657
18192TIP3    H176067   2.388   0.210   1.061  1.5055 -0.7004 -0.1573
18192TIP3    H276068   2.415   0.115   0.946 -0.4157 -0.1577 -1.0880
18193TIP3   OH276069   0.733   1.039   3.138  0.0507 -0.4751 -0.6062
18193TIP3    H176070   0.808   0.980   3.129  0.7330  0.1681  0.6602
18193TIP3    H276071   0.741   1.074   3.227  1.0987  3.5053 -2.2136
18194TIP3   OH276072   2.567   0.989   0.669 -0.8775 -0.3845  0.6392
18194TIP3    H176073   2.548   1.056   0.735 -1.4397 -1.4863  1.5987
18194TIP3    H276074   2.645   0.944   0.701  0.2313  0.5806 -0.6174
18195TIP3   OH276075   4.918   0.940  14.485 -0.2178  0.0654 -0.3411
18195TIP3    H176076   4.912   0.855  14.529  1.4470 -1.0068 -2.0893
18195TIP3    H276077   4.842   0.942  14.427 -0.7842  0.1836  0.4036
18196TIP3   OH276078   0.189   3.526   3.592 -0.0517  0.4898 -0.0822
18196TIP3    H176079   0.194   3.504   3.499 -1.5829  1.5127 -0.4205
18196TIP3    H276080   0.175   3.443   3.636  0.3043  0.0476 -0.7930
18197TIP3   OH276081   0.664   5.003   4.936  0.1138 -0.5033  0.1074
18197TIP3    H176082   0.678   5.085   4.888  0.9207  0.6370  2.1829
18197TIP3    H276083   0.574   4.978   4.916 -1.3239  2.7152  2.0143
18198TIP3   OH276084   5.871   4.322  16.025  0.0511 -0.4583  0.0351
18198TIP3    H176085   5.850   4.322  16.118 -3.1741  1.0723 -0.6512
18198TIP3    H276086   5.925   4.400  16.013 -1.3960  0.5792  0.2275
18199TIP3   OH276087   6.651   4.400   1.241  0.0967  0.4739  0.0427
18199TIP3    H176088   6.584   4.456   1.280  2.1527  1.0833  2.8409
18199TIP3    H276089   6.656   4.324   1.299  1.4445  0.1902 -0.4223
18200TIP3   OH276090   6.092   6.239  13.859  0.2327 -0.1524 -0.1485
18200TIP3    H176091   6.100   6.148  13.830 -1.1312  0.0774 -1.2706
18200TIP3    H276092   6.001   6.262  13.842  0.5417  1.4010  0.2164
18201TIP3   OH276093   5.328   3.815   0.475 -0.4136 -0.0615 -0.1998
18201TIP3    H176094   5.272   3.738   0.491  0.4712 -0.2288  2.2929
18201TIP3    H276095   5.387   3.787   0.405 -1.5643 -0.8631 -0.8804
18202TIP3   OH276096   4.756   6.161  14.251 -0.4585 -0.1876 -0.2686
18202TIP3    H176097   4.736   6.211  14.172 -0.2637 -1.4155 -1.1081
18202TIP3    H276098   4.715   6.076  14.237 -2.1963  0.2581  1.8713
18203TIP3   OH276099   6.134   4.482   4.259 -0.0104  0.5027  0.0822
18203TIP3    H176100   6.054   4.510   4.215 -0.3226 -1.8181 -0.8951
18203TIP3    H276101   6.193   4.457   4.188  0.8461  0.2983  0.8608
18204TIP3   OH276102   1.024   3.338  15.486 -0.4776  0.4608  0.4309
18204TIP3    H176103   0.977   3.256  15.475 -1.0363  0.7114  0.9473
18204TIP3    H276104   0.994   3.373  15.570 -0.0173  1.0432  0.3649
18205TIP3   OH276105   5.815   1.910  12.201 -0.4750 -0.2710  0.2092
18205TIP3    H176106   5.772   1.841  12.150 -0.4288 -0.3212  0.2386
18205TIP3    H276107   5.841   1.975  12.136  1.7014 -1.4379 -0.1390
18206TIP3   OH276108   1.417   4.747  17.229 -0.3309  0.0119 -0.1725
18206TIP3    H176109   1.498   4.798  17.231 -0.0855 -0.4137  2.2127
18206TIP3    H276110   1.388   4.745  17.320 -1.3361 -2.5225 -0.5051
18207TIP3   OH276111   0.952   1.382  11.717 -0.4143 -0.6435  0.0673
18207TIP3    H176112   0.929   1.470  11.746  0.0571 -0.6818  0.5713
18207TIP3    H276113   0.981   1.338  11.796  2.5860 -0.2149 -0.7630
18208TIP3   OH276114   0.678   3.031  16.043  0.6242  0.1668 -0.0986
18208TIP3    H176115   0.693   2.957  16.102  1.3781 -0.7132 -1.3580
18208TIP3    H276116   0.746   3.094  16.067  0.5020  0.1015  0.4253
18209TIP3   OH276117   5.417   6.251   0.515 -0.4370  0.1853 -0.1725
18209TIP3    H176118   5.502   6.291   0.496 -1.6700  2.7120 -0.5658
18209TIP3    H276119   5.377   6.237   0.429 -0.9765  0.2824  0.0577
18210TIP3   OH276120   0.290   0.657   2.203  0.1662  0.0624 -0.1136
18210TIP3    H176121   0.290   0.739   2.253 -1.0745  0.0183 -0.0229
18210TIP3    H276122   0.243   0.678   2.122  0.2564 -0.4478 -0.3017
18211TIP3   OH276123   2.509   0.813   1.693  0.4489  0.6856  0.4731
18211TIP3    H176124   2.458   0.768   1.625  0.5917  2.0460 -0.5771
18211TIP3    H276125   2.500   0.758   1.770 -1.5633  0.2350 -0.0343
18212TIP3   OH276126   2.631   0.174   0.982 -0.0212 -0.1946  0.8214
18212TIP3    H176127   2.664   0.157   0.893  0.4287  0.4603  0.8629
18212TIP3    H276128   2.693   0.129   1.039 -0.1451 -0.3692  0.8189
18213TIP3   OH276129   3.831   2.022  16.461 -0.1400 -0.1400 -0.2120
18213TIP3    H176130   3.831   2.003  16.367  0.1373  2.1959 -0.7290
18213TIP3    H276131   3.738   2.034  16.483 -0.1422  0.1941 -0.3971
18214TIP3   OH276132   4.699   4.722  12.887 -0.0252 -0.3709  0.7547
18214TIP3    H176133   4.696   4.772  12.968 -1.3506 -2.3918  2.0003
18214TIP3    H276134   4.630   4.761  12.832  0.6594  0.7888  0.7029
18215TIP3   OH276135   4.615   0.843   4.162 -0.0954 -0.1716  0.9060
18215TIP3    H176136   4.650   0.896   4.234  1.2576 -1.4155  1.1924
18215TIP3    H276137   4.531   0.884   4.141 -0.9468 -0.2909  3.7840
18216TIP3   OH276138   4.404   6.465  11.231 -0.2145  0.2524  0.6379
18216TIP3    H176139   4.407   6.479  11.326  1.5377 -0.2724  0.6787
18216TIP3    H276140   4.489   6.496  11.199  0.2702 -2.0049 -0.3945
18217TIP3   OH276141   1.061   5.157  11.929 -0.6924 -0.1798 -0.4500
18217TIP3    H176142   1.037   5.193  12.014 -1.4369 -1.4795 -0.0907
18217TIP3    H276143   1.006   5.203  11.866 -0.3608  0.5685 -0.1897
18218TIP3   OH276144   5.702   0.284  15.765  0.6454 -0.1663 -0.5488
18218TIP3    H176145   5.779   0.340  15.752 -0.8266  1.9880 -0.1682
18218TIP3    H276146   5.704   0.224  15.690  2.0345  0.6341 -1.1767
18219TIP3   OH276147   3.111   3.152   1.794 -0.1374  0.4301  0.5107
18219TIP3    H176148   3.045   3.098   1.837  0.0196 -0.0195  0.1854
18219TIP3    H276149   3.113   3.233   1.846 -0.3794  0.1319  0.9900
18220TIP3   OH276150   3.835   6.125  16.037  0.4134  0.1801  0.3174
18220TIP3    H176151   3.918   6.167  16.062  0.3884 -0.2721  1.1590
18220TIP3    H276152   3.780   6.133  16.114 -0.1971  0.1315 -0.1140
18221TIP3   OH276153   2.301   0.446  13.197 -0.3280 -0.2641 -0.3870
18221TIP3    H176154   2.270   0.475  13.111 -0.5298  0.2436 -0.1515
18221TIP3    H276155   2.330   0.356  13.184  0.6814  0.1756 -1.2269
18222TIP3   OH276156   0.349   0.165   0.622  0.0397 -0.1245  0.6762
18222TIP3    H176157   0.406   0.238   0.598  1.3175 -0.7605  1.6540
18222TIP3    H276158   0.326   0.181   0.714  0.3229 -0.9233  0.8962
18223TIP3   OH276159   2.168   0.892   4.669 -0.3133 -0.3389  0.6178
18223TIP3    H176160   2.213   0.971   4.698 -0.0471 -0.4631  0.5467
18223TIP3    H276161   2.211   0.821   4.717  0.1151 -0.5424 -0.0592
18224TIP3   OH276162   5.324   5.048  12.297 -0.1867  0.0427 -0.2823
18224TIP3    H176163   5.287   4.963  12.320  0.7077  0.2255  2.0194
18224TIP3    H276164   5.418   5.031  12.286  0.5597  1.2578  3.4857
18225TIP3   OH276165   5.605   4.693  15.631  0.1309  0.2182  0.0553
18225TIP3    H176166   5.530   4.651  15.589  1.7358 -1.4121 -1.2229
18225TIP3    H276167   5.673   4.626  15.632  1.3711  1.4728  1.8021
18226TIP3   OH276168   2.461   5.703  12.662 -0.0544 -0.2811 -0.3860
18226TIP3    H176169   2.470   5.608  12.655  2.9348 -0.1198  0.5199
18226TIP3    H276170   2.443   5.718  12.755 -1.3881  0.0266 -0.6744
18227TIP3   OH276171   0.166   4.491  10.856  0.3828 -0.0384 -0.4599
18227TIP3    H176172   0.183   4.578  10.890  1.5320  0.1231 -1.4264
18227TIP3    H276173   0.080   4.498  10.814  0.0139  0.3607  0.3620
18228TIP3   OH276174   1.193   1.060   6.569  0.1625  0.9787 -0.2632
18228TIP3    H176175   1.216   1.149   6.594  1.3944  1.1225 -1.8141
18228TIP3    H276176   1.266   1.007   6.601 -0.4463  0.5500  0.4304
18229TIP3   OH276177   1.044   4.829   3.872 -0.4041 -0.8870  0.5205
18229TIP3    H176178   1.124   4.806   3.919  0.7475 -1.7398 -1.7745
18229TIP3    H276179   0.974   4.809   3.934  1.1047 -0.4645  2.4451
18230TIP3   OH276180   3.855   1.700   3.210 -0.0100 -0.3435  0.4390
18230TIP3    H176181   3.942   1.676   3.243 -0.5753 -1.0648  1.4162
18230TIP3    H276182   3.828   1.626   3.157  1.4392  1.3379 -2.7810
18231TIP3   OH276183   0.117   5.977   0.232 -0.2007  0.4456  0.1420
18231TIP3    H176184   0.030   6.014   0.247 -0.4685 -0.8990  2.0347
18231TIP3    H276185   0.103   5.911   0.164 -0.7945 -0.2349  0.9133
18232TIP3   OH276186   0.951   2.268  13.336  0.3201  0.1167 -0.1072
18232TIP3    H176187   0.921   2.348  13.379 -0.7253 -0.1710 -0.2995
18232TIP3    H276188   1.046   2.280  13.327 -0.0275  2.0379 -1.5817
18233TIP3   OH276189   3.294   6.708  13.544  0.0491 -0.6411  0.4313
18233TIP3    H176190   3.213   6.740  13.505 -0.0633  0.6248  1.6419
18233TIP3    H276191   3.341   6.787  13.570  0.5327 -1.4109  1.9861
18234TIP3   OH276192   2.009   5.782   2.066 -0.0809 -0.2115 -0.3654
18234TIP3    H176193   2.046   5.842   2.001 -0.3754  1.0666  0.6414
18234TIP3    H276194   1.915   5.793   2.059 -0.1013  0.1039  0.4643
18235TIP3   OH276195   6.276   5.449  15.641  0.4531 -0.3806  0.8956
18235TIP3    H176196   6.222   5.399  15.702  1.0074 -0.3272  1.4244
18235TIP3    H276197   6.295   5.387  15.570 -0.2166 -0.4313  0.7515
18236TIP3   OH276198   4.690   2.193   4.469  0.0887  0.5591 -0.4430
18236TIP3    H176199   4.766   2.251   4.474 -1.3552  2.4071  0.7692
18236TIP3    H276200   4.631   2.237   4.407 -0.5833 -0.1630 -0.3211
18237TIP3   OH276201   2.849   0.271  14.100 -0.2734 -0.4300 -0.0194
18237TIP3    H176202   2.880   0.187  14.066 -0.1888 -0.0519 -0.8755
18237TIP3    H276203   2.786   0.302  14.035 -0.5551  0.0135  0.4609
18238TIP3   OH276204   2.959   4.801   2.147 -0.0087 -0.6046  0.1491
18238TIP3    H176205   2.970   4.869   2.081  0.6325 -1.2773 -0.4510
18238TIP3    H276206   3.046   4.761   2.154  0.2473  0.2960  2.3287
18239TIP3   OH276207   4.536   1.594   2.836 -0.1508  0.0524  0.1729
18239TIP3    H176208   4.615   1.578   2.785 -0.4056 -1.6242  0.2606
18239TIP3    H276209   4.474   1.630   2.774  0.0823 -0.3997 -0.3281
18240TIP3   OH276210   0.770   3.085  16.988  0.0761 -0.3580 -0.4970
18240TIP3    H176211   0.806   3.080  16.899  1.5224 -0.3804  0.0767
18240TIP3    H276212   0.832   3.036  17.042 -1.2399 -1.0841  0.4003
18241TIP3   OH276213   5.128   2.066  11.698 -0.2280  0.2116  0.7808
18241TIP3    H176214   5.137   2.067  11.794 -0.1802  1.6421  0.7730
18241TIP3    H276215   5.056   2.126  11.681  1.3060  1.8066 -0.2245
18242TIP3   OH276216   4.305   2.687   1.022  0.3193  0.3432  0.2958
18242TIP3    H176217   4.315   2.597   1.052  1.3494  0.5147  0.4862
18242TIP3    H276218   4.210   2.701   1.020  0.1700 -0.5088  0.9603
18243TIP3   OH276219   0.536   2.093  14.179 -0.5936 -0.5646 -0.6996
18243TIP3    H176220   0.472   2.165  14.174  0.3859  0.4563  0.9665
18243TIP3    H276221   0.512   2.036  14.106 -0.6701  2.0558 -2.8449
18244TIP3   OH276222   4.598   4.198  15.657  0.0465 -0.1771  0.2219
18244TIP3    H176223   4.691   4.217  15.668 -0.2764  1.8483 -0.4409
18244TIP3    H276224   4.566   4.265  15.597 -1.7207 -1.2337 -0.0577
18245TIP3   OH276225   6.328   1.489  14.022 -0.2985  0.2375  0.7189
18245TIP3    H176226   6.327   1.395  14.004 -0.1916  0.1360  1.2245
18245TIP3    H276227   6.398   1.500  14.086 -0.7056  0.5773  1.1071
18246TIP3   OH276228   2.654   5.795  12.261  0.3043  0.3579 -0.0647
18246TIP3    H176229   2.726   5.787  12.199  0.4900 -0.0046  0.1972
18246TIP3    H276230   2.628   5.887  12.256 -1.4442 -0.1984 -2.6656
18247TIP3   OH276231   5.372   5.695   3.122  0.2245 -0.1406  0.3645
18247TIP3    H176232   5.305   5.652   3.069 -0.1730  0.7362  0.1499
18247TIP3    H276233   5.447   5.706   3.063  0.6826 -1.3948  0.6893
18248TIP3   OH276234   4.217   1.116   0.768  0.5227 -0.3338  0.3216
18248TIP3    H176235   4.122   1.102   0.767  0.6988 -1.6326 -1.3654
18248TIP3    H276236   4.249   1.054   0.833  0.1358  0.8827  1.7085
18249TIP3   OH276237   6.304   5.236   2.034 -0.0124 -0.2169  0.3540
18249TIP3    H176238   6.316   5.260   2.126 -0.1354 -0.2913  0.3892
18249TIP3    H276239   6.378   5.178   2.015  0.6528  0.7109  0.0840
18250TIP3   OH276240   4.479   6.804   0.475 -0.2251  0.7504  0.3634
18250TIP3    H176241   4.385   6.806   0.490 -0.2226 -0.3044  0.5574
18250TIP3    H276242   4.504   6.896   0.465 -1.4379  0.9613 -0.7427
18251TIP3   OH276243   1.030   1.295  16.384 -0.3557  0.0794 -0.3511
18251TIP3    H176244   0.952   1.253  16.349 -1.2691  0.5738  1.0322
18251TIP3    H276245   1.044   1.253  16.469  0.0808  0.9189  0.0057
18252TIP3   OH276246   5.957   0.476   4.837  0.5553  0.1461 -0.1284
18252TIP3    H176247   6.010   0.432   4.771  1.9550  0.0340  1.0398
18252TIP3    H276248   5.977   0.429   4.918 -0.7804  0.5775  0.4602
18253TIP3   OH276249   2.937   1.596  14.663 -0.0639 -0.1136 -0.3297
18253TIP3    H176250   2.936   1.676  14.717 -3.1161 -0.2407 -0.0616
18253TIP3    H276251   2.976   1.623  14.580  0.3967  1.2784  0.3247
18254TIP3   OH276252   5.197   5.848   2.170  0.4982  0.3713  0.3570
18254TIP3    H176253   5.249   5.813   2.098  0.5369 -0.1363  0.6291
18254TIP3    H276254   5.133   5.780   2.190 -1.1870  1.5530 -0.8797
18255TIP3   OH276255   4.016   3.662   1.820  0.0676  0.1030  0.3953
18255TIP3    H176256   4.097   3.688   1.778 -0.3208 -1.0200 -1.0497
18255TIP3    H276257   4.013   3.567   1.812 -0.9789  0.0527  1.2061
18256TIP3   OH276258   1.446   4.490   4.824  0.7326 -0.0784  0.3328
18256TIP3    H176259   1.537   4.477   4.799  0.6479  1.3060 -0.7658
18256TIP3    H276260   1.423   4.576   4.788 -1.8792 -1.6763 -2.0697
18257TIP3   OH276261   3.854   0.820   6.571  1.0277 -0.4668 -0.4842
18257TIP3    H176262   3.773   0.854   6.532  1.5276  0.0429 -1.0976
18257TIP3    H276263   3.865   0.734   6.531 -0.4445 -1.5564  1.3548
18258TIP3   OH276264   3.678   4.230   6.120  0.3878  0.1615  0.7261
18258TIP3    H176265   3.605   4.288   6.143  0.3821  0.4742 -0.0553
18258TIP3    H276266   3.643   4.173   6.051  0.1534 -1.3079  2.0341
18259TIP3   OH276267   1.863   4.099   1.269 -0.4102  0.1135  0.3707
18259TIP3    H176268   1.804   4.043   1.322 -0.0912 -0.7165 -0.1391
18259TIP3    H276269   1.888   4.170   1.328 -1.6594  0.2890  0.7050
18260TIP3   OH276270   1.131   5.655  15.588 -0.2660  0.0828 -0.4981
18260TIP3    H176271   1.108   5.563  15.601  1.5677 -0.5194 -1.3031
18260TIP3    H276272   1.198   5.653  15.520  0.1525  1.9792 -0.1621
18261TIP3   OH276273   5.520   3.080  13.127 -0.0102 -0.1865  0.1792
18261TIP3    H176274   5.571   3.112  13.201 -1.1699  0.8164  0.5556
18261TIP3    H276275   5.577   3.093  13.051  0.2909  0.9642  0.5908
18262TIP3   OH276276   1.756   4.577  14.944 -0.1266  0.4400 -0.4694
18262TIP3    H176277   1.707   4.604  15.021 -1.1908 -1.3527 -0.4907
18262TIP3    H276278   1.709   4.500  14.911  1.0178  0.4448 -2.1899
18263TIP3   OH276279   6.049   0.962  15.511 -0.2258  0.1720  0.8169
18263TIP3    H176280   6.064   1.048  15.473  1.1146 -0.6856 -0.6338
18263TIP3    H276281   6.071   0.973  15.604 -0.6305  1.5241  0.7649
18264TIP3   OH276282   2.877   5.684   1.026 -0.3442  0.1837  0.3011
18264TIP3    H176283   2.876   5.765   0.975  0.9359 -0.4232 -0.7175
18264TIP3    H276284   2.956   5.691   1.081  0.5360 -0.9773 -0.8009
18265TIP3   OH276285   1.434   5.842   5.393  0.6600  0.1139 -0.5856
18265TIP3    H176286   1.457   5.903   5.323  1.1446  1.9540  1.1435
18265TIP3    H276287   1.412   5.897   5.467 -1.4328 -1.7811  0.2642
18266TIP3   OH276288   0.934   0.302  17.108 -0.5010  0.1654 -0.6142
18266TIP3    H176289   0.918   0.391  17.076 -1.6600  0.6456  1.2301
18266TIP3    H276290   0.953   0.313  17.201  1.6441 -1.3143 -0.8324
18267TIP3   OH276291   0.286   1.265  12.762  1.0138  0.7561 -0.2095
18267TIP3    H176292   0.299   1.175  12.732  2.6682  1.0850 -0.5665
18267TIP3    H276293   0.256   1.313  12.684  1.4297  0.7814 -0.3567
18268TIP3   OH276294   0.628   5.840  11.307 -0.1297 -0.1653 -0.2342
18268TIP3    H176295   0.703   5.870  11.359  0.5386  1.1888 -1.9189
18268TIP3    H276296   0.636   5.888  11.224 -0.9984 -2.4835 -1.6973
18269TIP3   OH276297   1.956   6.781  15.907 -0.2396  0.3330 -0.3375
18269TIP3    H176298   1.899   6.710  15.936 -1.5648  1.5010 -0.0176
18269TIP3    H276299   1.911   6.861  15.934 -0.1563  1.3973 -3.1726
18270TIP3   OH276300   3.832   5.338   5.724 -0.1122  0.4641 -0.0084
18270TIP3    H176301   3.854   5.417   5.772  0.2247 -0.3891  1.2580
18270TIP3    H276302   3.849   5.360   5.632  0.6021  1.6317  0.3957
18271TIP3   OH276303   0.570   1.185  14.826  0.4353  0.2147  0.3959
18271TIP3    H176304   0.665   1.176  14.817  0.3047 -0.5284 -0.3855
18271TIP3    H276305   0.545   1.244  14.755  0.4976  1.7073  1.5869
18272TIP3   OH276306   0.009   6.709  15.595 -0.2470 -0.3318 -0.0893
18272TIP3    H176307   0.069   6.636  15.603  0.1909  0.2398  2.0662
18272TIP3    H276308  -0.039   6.692  15.514  1.2711 -1.9221 -0.6753
18273TIP3   OH276309   4.961   6.718   3.293 -0.1819  0.2903 -0.0509
18273TIP3    H176310   4.891   6.668   3.251 -1.0586  1.9070 -0.5475
18273TIP3    H276311   4.938   6.717   3.386 -1.2514  1.4011 -0.2978
18274TIP3   OH276312   2.930   2.281   6.903 -0.7809 -0.1491  0.2239
18274TIP3    H176313   2.948   2.372   6.878 -1.2687  0.4436  1.9644
18274TIP3    H276314   2.900   2.240   6.822  0.5127  0.9377 -0.8456
18275TIP3   OH276315   4.507   6.543  14.273 -0.2502 -0.5514 -0.1862
18275TIP3    H176316   4.470   6.590  14.198  0.1233  0.2994  0.1485
18275TIP3    H276317   4.578   6.600  14.303 -0.4168 -0.8716  0.8232
18276TIP3   OH276318   0.697   0.136  17.160 -0.7842 -0.8085 -0.0563
18276TIP3    H176319   0.676   0.075  17.230  0.2189 -1.4770 -0.3296
18276TIP3    H276320   0.786   0.165  17.179 -2.1221  2.4879  1.4446
18277TIP3   OH276321   4.004   5.940   2.918  0.0523 -0.2524 -0.2670
18277TIP3    H176322   4.058   5.962   2.993  0.1124  0.0361 -0.3914
18277TIP3    H276323   4.025   5.849   2.898  1.2054  0.1447 -0.9043
18278TIP3   OH276324   3.137   0.016   4.337 -0.1065 -0.7016  0.3340
18278TIP3    H176325   3.230   0.014   4.314 -0.4179 -0.9992 -0.9680
18278TIP3    H276326   3.108   0.104   4.313 -0.2048 -0.6701  0.5653
18279TIP3   OH276327   3.025   3.245  10.716 -0.2333  0.1654  0.6308
18279TIP3    H176328   3.031   3.313  10.649 -0.0912  0.4746  0.9495
18279TIP3    H276329   3.113   3.242  10.754  0.4415 -1.9281 -1.0455
18280TIP3   OH276330   5.230   0.239   0.983 -0.5613  0.4243 -0.0804
18280TIP3    H176331   5.187   0.155   0.999  0.8557 -0.7355 -2.0244
18280TIP3    H276332   5.324   0.219   0.986 -0.2106  1.8184 -1.0248
18281TIP3   OH276333   2.453   2.247  15.792  0.2681  0.0880  0.2337
18281TIP3    H176334   2.503   2.321  15.756  0.2504 -0.3757 -0.7741
18281TIP3    H276335   2.479   2.242  15.884 -0.0286  1.6062  0.4106
18282TIP3   OH276336   4.361   3.746   2.093  0.1971  0.1322 -0.5202
18282TIP3    H176337   4.300   3.679   2.124  0.0224  1.1575  1.3864
18282TIP3    H276338   4.308   3.825   2.084  0.8507  0.5556 -0.6836
18283TIP3   OH276339   3.251   1.817   6.411  0.0281 -0.4694 -0.2175
18283TIP3    H176340   3.253   1.831   6.317  0.4118 -1.2268 -0.3241
18283TIP3    H276341   3.258   1.905   6.449  1.5189 -0.2860 -0.8775
18284TIP3   OH276342   5.842   5.378   3.191  0.2610 -0.1473  0.1358
18284TIP3    H176343   5.843   5.356   3.098  2.1525 -0.3931  0.1976
18284TIP3    H276344   5.847   5.294   3.236  0.1685  0.0183  0.4561
18285TIP3   OH276345   1.357   5.220   4.316  0.3113 -0.1649  0.3354
18285TIP3    H176346   1.412   5.216   4.238  0.7069 -0.5535  0.6288
18285TIP3    H276347   1.322   5.309   4.317 -2.9314 -1.3290 -2.4586
18286TIP3   OH276348   4.452   4.926  17.192  0.1518  0.4365 -0.3897
18286TIP3    H176349   4.400   4.895  17.119  0.2099 -0.5588 -0.0227
18286TIP3    H276350   4.527   4.866  17.195 -0.5983 -0.4632  1.3746
18287TIP3   OH276351   2.735   2.889   0.065 -0.2173  1.3240  0.8256
18287TIP3    H176352   2.823   2.906   0.099  0.4026 -2.7352  1.5413
18287TIP3    H276353   2.697   2.826   0.126 -2.3335  0.4416 -1.3097
18288TIP3   OH276354   5.468   3.439   1.987  0.0278 -0.5013  0.3984
18288TIP3    H176355   5.454   3.358   1.939  0.6604  0.2086 -1.0286
18288TIP3    H276356   5.398   3.497   1.959  1.0618  0.3071 -0.5633
18289TIP3   OH276357   1.272   3.172  14.388  0.2489 -0.2076  0.0171
18289TIP3    H176358   1.319   3.221  14.321  0.2945  0.5489  0.5940
18289TIP3    H276359   1.269   3.083  14.355  1.5253 -0.1335 -0.3259
18290TIP3   OH276360   5.306   6.326   5.862  0.0865  0.1046 -0.1553
18290TIP3    H176361   5.296   6.409   5.908 -1.7407  0.6314 -1.4741
18290TIP3    H276362   5.228   6.277   5.884  0.3744 -0.6161 -0.7276
18291TIP3   OH276363   1.270   6.311   1.351 -0.6092  0.3041  0.1259
18291TIP3    H176364   1.241   6.237   1.404 -0.1670  0.8024  1.0892
18291TIP3    H276365   1.209   6.381   1.372 -1.6929 -0.0951 -1.6194
18292TIP3   OH276366   6.671   1.237   5.548 -0.3287  0.3130  0.2087
18292TIP3    H176367   6.728   1.161   5.538  0.7255  0.9637  1.1789
18292TIP3    H276368   6.687   1.268   5.637 -0.1055  2.1824 -0.4528
18293TIP3   OH276369   5.358   2.703   3.677  0.5659  0.1562 -0.1794
18293TIP3    H176370   5.344   2.610   3.661  0.6738  0.4902 -2.2753
18293TIP3    H276371   5.412   2.733   3.604 -0.8347  2.1979 -0.4289
18294TIP3   OH276372   6.728   1.154   3.294  0.6785  0.6013 -0.6574
18294TIP3    H176373   6.814   1.194   3.279  2.8470 -3.5077 -0.1379
18294TIP3    H276374   6.713   1.165   3.388  0.5564  1.4997 -0.7834
18295TIP3   OH276375   5.218   3.517  15.198 -0.3134  0.3297  0.6349
18295TIP3    H176376   5.311   3.539  15.204 -0.4521  1.1485 -0.2474
18295TIP3    H276377   5.176   3.596  15.165 -1.4446  0.2372  1.8118
18296TIP3   OH276378   0.462   3.356   0.539  0.5798 -0.0105  0.1273
18296TIP3    H176379   0.535   3.345   0.600 -1.3078  0.4960  2.5279
18296TIP3    H276380   0.449   3.269   0.501  0.6991 -0.7225  1.6931
18297TIP3   OH276381   1.409   3.729  10.285 -0.7519  0.1849 -0.7145
18297TIP3    H176382   1.425   3.806  10.339  1.3588  0.3691 -1.5299
18297TIP3    H276383   1.439   3.656  10.339  2.0721  0.4356 -1.8482
18298TIP3   OH276384   5.719   4.440  15.373 -0.2022  0.2896  0.2255
18298TIP3    H176385   5.753   4.463  15.460 -1.4996  0.3209  0.7462
18298TIP3    H276386   5.669   4.360  15.388  1.4109 -0.9606 -0.9252
18299TIP3   OH276387   6.720   5.299  15.776 -0.2543 -0.3672  0.1822
18299TIP3    H176388   6.696   5.375  15.828  1.3815  1.8414 -2.2000
18299TIP3    H276389   6.780   5.250  15.832  0.7949  1.5009  0.7258
18300TIP3   OH276390   3.399   5.294   1.092  0.0745 -0.5397  0.0590
18300TIP3    H176391   3.451   5.338   1.025  0.0716  0.6953  0.8503
18300TIP3    H276392   3.311   5.330   1.082  0.0372 -0.4677  0.6135
18301TIP3   OH276393   6.754   1.515  14.077 -0.0282 -0.1134 -0.0303
18301TIP3    H176394   6.781   1.594  14.031  1.3777 -0.7715 -0.3539
18301TIP3    H276395   6.696   1.470  14.016  0.6196 -0.2250 -0.5759
18302TIP3   OH276396   4.274   3.562   5.139  0.5120  0.5527 -0.2721
18302TIP3    H176397   4.348   3.583   5.197  0.5879  0.8114 -0.4624
18302TIP3    H276398   4.214   3.512   5.195 -0.0458  1.9586  0.4395
18303TIP3   OH276399   3.716   3.671  12.733 -0.1238 -0.1526  0.5211
18303TIP3    H176400   3.646   3.607  12.747  0.2021 -0.6269  0.0036
18303TIP3    H276401   3.672   3.756  12.739 -0.5886 -0.4277  1.0578
18304TIP3   OH276402   5.400   3.882  17.011 -0.2322  0.0815 -0.1556
18304TIP3    H176403   5.476   3.886  17.068  0.1721 -3.6679 -0.2517
18304TIP3    H276404   5.435   3.852  16.927 -1.5591  0.1775 -0.7546
18305TIP3   OH276405   1.999   1.087   1.743  0.8414  0.3013 -0.3861
18305TIP3    H176406   2.072   1.137   1.706  0.4567  0.2052 -1.2841
18305TIP3    H276407   1.958   1.045   1.667  0.8420 -0.9541  0.3104
18306TIP3   OH276408   0.687   6.757   0.039 -0.7422 -1.0799  0.6360
18306TIP3    H176409   0.768   6.711   0.060 -0.2670 -1.7148 -2.3965
18306TIP3    H276410   0.654   6.714  -0.040 -1.3304  2.4601 -1.1567
18307TIP3   OH276411   0.192   5.735   3.243 -0.0891 -0.4052 -0.1343
18307TIP3    H176412   0.250   5.809   3.260 -0.0125 -0.4419 -0.2326
18307TIP3    H276413   0.238   5.683   3.177 -0.3400 -0.3155 -0.3780
18308TIP3   OH276414   4.773   6.749  16.364  0.1607 -0.1266  0.5176
18308TIP3    H176415   4.832   6.812  16.405 -1.1231 -1.1926  4.2713
18308TIP3    H276416   4.829   6.675  16.340  0.7283 -0.2773  2.2119
18309TIP3   OH276417   1.047   3.099   3.971 -0.3707 -0.1588  0.3362
18309TIP3    H176418   1.039   3.193   3.988  0.2430  0.0570 -0.5176
18309TIP3    H276419   1.073   3.094   3.879  0.8921 -1.1089  0.7262
18310TIP3   OH276420   5.846   0.292   3.791  0.4078  0.0865 -0.3338
18310TIP3    H176421   5.868   0.371   3.840  0.8944 -1.1635  1.4857
18310TIP3    H276422   5.925   0.274   3.739  0.7032  0.1519  0.0906
18311TIP3   OH276423   3.908   3.875   3.059 -0.7454  0.3819 -0.0305
18311TIP3    H176424   3.988   3.823   3.049 -0.8148  0.0515  1.0075
18311TIP3    H276425   3.847   3.816   3.103 -0.6318  1.4864  1.6758
18312TIP3   OH276426   0.343   0.711  13.235 -0.2374 -0.4027 -0.3670
18312TIP3    H176427   0.411   0.686  13.172 -2.3115 -0.8424 -2.5037
18312TIP3    H276428   0.300   0.628  13.257 -0.7678  0.0047  0.1267
18313TIP3   OH276429   1.994   2.034  12.416 -0.4079  0.2551 -0.1719
18313TIP3    H176430   1.938   1.975  12.366  0.5640 -0.0084 -0.9671
18313TIP3    H276431   1.940   2.112  12.430 -1.5167 -0.6119  0.4557
18314TIP3   OH276432   6.043   5.534   4.177 -0.1331 -0.0439  0.0586
18314TIP3    H176433   5.981   5.476   4.221 -0.2054 -2.1658 -2.7536
18314TIP3    H276434   6.125   5.484   4.176  0.5901  1.1165  0.1943
18315TIP3   OH276435   1.793   3.013  16.644  0.3746  0.5224 -0.1283
18315TIP3    H176436   1.824   2.923  16.637 -0.1822  0.3417 -0.2973
18315TIP3    H276437   1.860   3.065  16.601  0.8833  0.2297  0.2952
18316TIP3   OH276438   5.481   4.637  11.677  0.1586  0.4003 -0.0083
18316TIP3    H176439   5.454   4.709  11.734 -0.7122  1.1527 -1.3394
18316TIP3    H276440   5.504   4.566  11.737 -0.3228  1.3129  1.2811
18317TIP3   OH276441   0.128   1.855  15.301  0.4355  0.0915 -0.0312
18317TIP3    H176442   0.135   1.761  15.315  2.1905  0.2720  0.4279
18317TIP3    H276443   0.035   1.870  15.282  0.2688 -1.8059 -0.7941
18318TIP3   OH276444   5.466   0.347   6.037  0.2410  0.1971 -0.5973
18318TIP3    H176445   5.380   0.314   6.065 -0.7227  1.9783 -1.3496
18318TIP3    H276446   5.515   0.359   6.118  0.3308 -2.2804 -0.2689
18319TIP3   OH276447   2.784   3.978  11.284  0.0191  0.3290  0.0882
18319TIP3    H176448   2.836   4.058  11.290 -1.7380  1.4501  0.7799
18319TIP3    H276449   2.805   3.942  11.198 -0.8320  2.7375 -1.1770
18320TIP3   OH276450   3.131   6.009  12.729 -0.2467 -0.2583 -0.1289
18320TIP3    H176451   3.039   5.990  12.748  0.0921 -0.5030  1.3036
18320TIP3    H276452   3.154   5.949  12.658 -0.8714 -1.0052  0.2906
18321TIP3   OH276453   2.817   5.023  13.439  0.5405  0.0678 -0.0484
18321TIP3    H176454   2.845   4.933  13.458 -0.2371 -0.2241 -0.2410
18321TIP3    H276455   2.788   5.058  13.523  2.2355  0.6580  0.3142
18322TIP3   OH276456   1.918   5.881  14.642 -0.2335  0.2128 -0.2600
18322TIP3    H176457   1.923   5.888  14.737 -3.9929 -1.3127  0.1323
18322TIP3    H276458   1.911   5.971  14.611  0.3348  0.6718  0.9498
18323TIP3   OH276459   3.940   4.256  15.376 -0.0731  0.3587 -0.7923
18323TIP3    H176460   3.992   4.273  15.455 -1.0622 -2.8314  0.6561
18323TIP3    H276461   3.862   4.310  15.387  0.1422  0.5008  0.0709
18324TIP3   OH276462   2.862   4.409   4.157  1.1179 -0.3098 -0.2092
18324TIP3    H176463   2.926   4.476   4.133  1.5314  0.1153  1.9402
18324TIP3    H276464   2.786   4.428   4.103  1.1267  2.0966  0.5717
18325TIP3   OH276465   3.694   2.326  14.311  0.3372  0.0434  0.2100
18325TIP3    H176466   3.694   2.253  14.373  0.9595 -0.0134  0.1462
18325TIP3    H276467   3.762   2.385  14.344  1.9115 -0.8432 -1.4079
18326TIP3   OH276468   4.799   3.048  14.959 -0.1567  0.4444 -0.6380
18326TIP3    H176469   4.851   3.127  14.976  0.0839  0.4849 -1.5359
18326TIP3    H276470   4.850   3.000  14.894 -0.1625 -0.5927  0.1209
18327TIP3   OH276471   4.572   1.687  16.181 -0.3345 -0.6310  0.1224
18327TIP3    H176472   4.545   1.596  16.187  1.4387 -1.1652  0.2844
18327TIP3    H276473   4.493   1.734  16.154 -0.5298 -2.6698 -3.1517
18328TIP3   OH276474   1.095   4.056   1.250  0.2556  0.0170  0.4144
18328TIP3    H176475   1.040   4.128   1.218 -0.5470 -1.1695 -0.9162
18328TIP3    H276476   1.032   3.990   1.279  0.9931 -0.1712  1.5790
18329TIP3   OH276477   5.523   4.465  11.294 -0.4122 -0.4936  0.1040
18329TIP3    H176478   5.484   4.547  11.325 -1.1436 -0.7099 -0.2288
18329TIP3    H276479   5.539   4.480  11.201 -0.0095 -0.5260  0.1674
18330TIP3   OH276480   4.567   5.616  13.703 -0.1519 -0.7691  0.2804
18330TIP3    H176481   4.629   5.561  13.655  0.1783 -0.4096  0.2882
18330TIP3    H276482   4.562   5.576  13.790 -0.0800 -0.9102  0.2205
18331TIP3   OH276483   4.454   5.353   1.567  0.0767  0.2593  0.1630
18331TIP3    H176484   4.395   5.280   1.551 -0.6885  0.2961  2.5296
18331TIP3    H276485   4.442   5.411   1.491 -2.5528 -0.0066  0.3063
18332TIP3   OH276486   3.487   5.630  17.209 -0.5421 -0.4819  0.2654
18332TIP3    H176487   3.550   5.640  17.281 -2.6517  0.2211  2.0778
18332TIP3    H276488   3.535   5.658  17.131  1.0908  1.0174  1.7616
18333TIP3   OH276489   3.612   2.331   2.995  0.7470 -0.2770 -0.0405
18333TIP3    H176490   3.702   2.308   2.973  0.9131 -0.2437  0.6087
18333TIP3    H276491   3.563   2.250   2.982  0.7291 -0.0901 -1.1813
18334TIP3   OH276492   4.014   4.240   0.359  0.0820  0.4979 -0.5938
18334TIP3    H176493   3.987   4.288   0.281 -0.2482  1.9477  0.3887
18334TIP3    H276494   4.107   4.262   0.371  0.6229 -1.1421 -1.5726
18335TIP3   OH276495   4.637   4.025  13.002  0.1815 -0.1109  1.0060
18335TIP3    H176496   4.584   3.965  13.055 -1.4032 -1.0850 -1.5504
18335TIP3    H276497   4.615   4.112  13.033 -1.0113 -0.6503  1.6771
18336TIP3   OH276498   4.655   5.661  12.291  0.2497  0.2895  0.4341
18336TIP3    H176499   4.636   5.595  12.357 -1.0742 -1.1140 -1.2746
18336TIP3    H276500   4.655   5.612  12.208 -0.1246  2.3170 -0.7999
18337TIP3   OH276501   2.522   3.366   3.291  0.1109 -0.3891 -0.3999
18337TIP3    H176502   2.469   3.439   3.324  0.0507 -0.8053  0.4291
18337TIP3    H276503   2.596   3.408   3.248  0.5024  0.1509  0.7872
18338TIP3   OH276504   3.429   2.756  13.554 -0.0468 -0.9432  0.1389
18338TIP3    H176505   3.392   2.820  13.615  0.3071  0.1488 -0.7755
18338TIP3    H276506   3.444   2.805  13.473  0.5743 -2.0983 -0.4675
18339TIP3   OH276507   4.802   5.020  11.847  0.2737  0.1996 -0.4480
18339TIP3    H176508   4.846   5.068  11.917 -0.8152  0.0138  0.3810
18339TIP3    H276509   4.873   4.989  11.791  1.5105 -2.9051  2.6092
18340TIP3   OH276510   3.341   2.229   2.549 -0.0031 -0.0837  0.3218
18340TIP3    H176511   3.368   2.145   2.510 -0.4522 -0.0210 -0.1238
18340TIP3    H276512   3.420   2.261   2.593  0.1306 -0.8113  0.6149
18341TIP3   OH276513   5.064   6.087   4.784 -0.2406  0.5708  0.1296
18341TIP3    H176514   5.141   6.046   4.823 -0.6292  0.1432  0.4426
18341TIP3    H276515   5.079   6.181   4.794  0.6122  0.5154 -0.5175
18342TIP3   OH276516   1.370   5.012   3.790  0.1685  0.1054  0.1042
18342TIP3    H176517   1.440   4.955   3.758 -1.1782 -0.2480 -2.2821
18342TIP3    H276518   1.358   4.986   3.881  3.1938  0.2302  0.6033
18343TIP3   OH276519   1.207   0.980  13.914  0.7175  0.0646 -0.1927
18343TIP3    H176520   1.147   0.993  13.987  0.0879  1.6270 -0.9648
18343TIP3    H276521   1.292   0.962  13.955  0.3702  0.9538  0.9129
18344TIP3   OH276522   2.160   4.406  13.801 -0.4146  0.8576  0.0876
18344TIP3    H176523   2.212   4.385  13.879 -0.9390 -2.7820 -0.4619
18344TIP3    H276524   2.212   4.472  13.755  2.8672 -1.3065  0.5284
18345TIP3   OH276525   5.762   0.898   6.287  0.5039 -0.0781 -0.1522
18345TIP3    H176526   5.688   0.868   6.234  1.4073  0.5795 -1.8318
18345TIP3    H276527   5.840   0.870   6.238  1.3770 -0.2990  1.3242
18346TIP3   OH276528   0.604   5.370  14.600  0.1853 -0.5720 -0.2205
18346TIP3    H176529   0.533   5.340  14.542 -0.8920  0.8445  0.3394
18346TIP3    H276530   0.589   5.464  14.610  2.2809 -0.2127 -0.2455
18347TIP3   OH276531   2.925   1.372   1.377 -0.3135 -0.5587 -0.1105
18347TIP3    H176532   2.964   1.459   1.369  1.3057 -1.0923  1.5788
18347TIP3    H276533   2.833   1.388   1.397  0.1185  0.7594  0.8640
18348TIP3   OH276534   4.902   3.927  15.527 -0.1990 -0.4480 -0.1648
18348TIP3    H176535   4.834   3.923  15.460 -0.3419  1.7567 -0.2046
18348TIP3    H276536   4.984   3.922  15.479 -0.3207 -0.3318 -0.3860
18349TIP3   OH276537   1.102   0.217  15.169  0.1600 -0.0110 -0.3543
18349TIP3    H176538   1.092   0.145  15.107  0.9889  0.3172 -0.8714
18349TIP3    H276539   1.073   0.180  15.253  0.4699 -0.9186 -0.6410
18350TIP3   OH276540   0.119   1.402   3.066 -0.5592  0.5154 -0.2752
18350TIP3    H176541   0.122   1.364   2.978 -0.0786 -0.6459  0.2268
18350TIP3    H276542   0.111   1.496   3.052  1.5354  0.5268 -1.5830
18351TIP3   OH276543   2.419   3.011   2.914 -0.2060  0.4482  0.0802
18351TIP3    H176544   2.513   3.010   2.933 -0.1018 -0.2759 -0.4502
18351TIP3    H276545   2.385   3.082   2.968  0.4087 -0.2175  1.3716
18352TIP3   OH276546   4.338   6.739   5.653 -0.0959 -0.0001 -0.2392
18352TIP3    H176547   4.342   6.801   5.580 -2.7607  0.0255 -0.4059
18352TIP3    H276548   4.384   6.783   5.725 -0.4941  1.4452 -0.8608
18353TIP3   OH276549   3.501   1.782  12.050 -0.3554  0.5182  0.3340
18353TIP3    H176550   3.454   1.856  12.011 -1.0974  0.5962  1.3452
18353TIP3    H276551   3.564   1.823  12.110  0.7127  0.3970 -0.6878
18354TIP3   OH276552   3.690   0.790   0.649  0.2351  0.0730 -0.1825
18354TIP3    H176553   3.597   0.796   0.627  0.5333 -0.4613 -1.6634
18354TIP3    H276554   3.731   0.858   0.595  1.0993 -1.8844 -2.0650
18355TIP3   OH276555   3.584   5.914   4.811  0.0883 -0.3813  0.1205
18355TIP3    H176556   3.521   5.961   4.865  0.1888 -1.3850  1.1240
18355TIP3    H276557   3.633   5.983   4.766  0.3927  0.4848  1.7421
18356TIP3   OH276558   1.894   2.183  14.775 -0.1330 -0.1225 -0.1206
18356TIP3    H176559   1.978   2.136  14.773  0.7080  1.3584  0.1657
18356TIP3    H276560   1.911   2.265  14.729 -1.5956 -0.0764 -0.6042
18357TIP3   OH276561   3.841   1.239   6.116  0.3870  0.2007  0.4430
18357TIP3    H176562   3.923   1.287   6.126  0.2991  0.3308  0.5433
18357TIP3    H276563   3.862   1.167   6.057 -0.2671  2.2830 -2.4401
18358TIP3   OH276564   1.343   6.780   3.750  0.3737 -0.7612 -0.2702
18358TIP3    H176565   1.332   6.689   3.725 -0.7573 -0.4036 -1.1366
18358TIP3    H276566   1.398   6.778   3.828  0.2941 -2.1791 -0.2494
18359TIP3   OH276567   0.444   0.840  15.689  0.0962 -0.1343 -0.3298
18359TIP3    H176568   0.473   0.891  15.615  1.8168  0.7785  0.9446
18359TIP3    H276569   0.388   0.899  15.739  1.0311  0.1018  0.4533
18360TIP3   OH276570   0.792   0.533  13.419  0.7505 -0.0531  0.3334
18360TIP3    H176571   0.711   0.584  13.411 -0.1982 -1.3170  1.5781
18360TIP3    H276572   0.781   0.461  13.357  0.8852 -0.2670  0.5571
18361TIP3   OH276573   5.390   2.678  11.336  0.6193 -0.5131  0.5250
18361TIP3    H176574   5.348   2.759  11.365  0.4839 -0.8127  1.1799
18361TIP3    H276575   5.407   2.692  11.243  0.2678  0.1254  0.5520
18362TIP3   OH276576   4.786   1.044  15.555 -0.6639  0.0709  0.0989
18362TIP3    H176577   4.748   0.960  15.531 -0.3133 -0.2551  0.6713
18362TIP3    H276578   4.836   1.026  15.635 -0.5981  0.8215  0.2350
18363TIP3   OH276579   6.162   4.258   3.896  0.5505  0.2053 -0.2039
18363TIP3    H176580   6.186   4.346   3.926  1.6007  0.4044 -1.5460
18363TIP3    H276581   6.082   4.270   3.845  0.3923  0.2997  0.0665
18364TIP3   OH276582   1.082   5.134   2.714 -0.2786 -0.1150  0.8445
18364TIP3    H176583   1.043   5.083   2.786 -0.5774 -0.9122  0.1357
18364TIP3    H276584   1.176   5.118   2.722 -0.3628 -0.7076  0.6882
18365TIP3   OH276585   6.753   0.282  13.790  0.1379 -0.0226  0.4757
18365TIP3    H176586   6.693   0.217  13.753 -0.8563  0.6343  0.9248
18365TIP3    H276587   6.840   0.249  13.768 -0.3738 -1.2396  0.2423
18366TIP3   OH276588   6.156   3.585   3.249 -0.1681 -0.0734 -0.0393
18366TIP3    H176589   6.215   3.509   3.255  2.1278  1.7220  1.3837
18366TIP3    H276590   6.087   3.567   3.313  0.2746 -1.0564  0.1666
18367TIP3   OH276591   6.538   1.335   5.335 -1.0242  0.5885  0.1555
18367TIP3    H176592   6.557   1.275   5.407 -0.2474  0.3324 -0.2545
18367TIP3    H276593   6.509   1.277   5.264 -0.0167  0.6741 -0.3276
18368TIP3   OH276594   5.944   1.300  14.166 -0.3830 -0.0645 -0.3952
18368TIP3    H176595   5.864   1.352  14.157 -0.3287 -0.0547 -0.8366
18368TIP3    H276596   5.933   1.227  14.105 -0.0667 -0.0773 -0.4424
18369TIP3   OH276597   6.292   5.030  12.334 -0.1414 -0.1856  0.1324
18369TIP3    H176598   6.278   5.038  12.429  2.6850 -0.3681  0.5934
18369TIP3    H276599   6.229   5.091  12.296 -0.8139  0.4478  2.1638
18370TIP3   OH276600   5.600   2.718  14.398  0.5679  0.0295  0.2358
18370TIP3    H176601   5.511   2.735  14.431  0.0444  0.3174 -1.2754
18370TIP3    H276602   5.613   2.625  14.412  0.3122  0.1339  1.1626
18371TIP3   OH276603   1.924   0.446  12.906  0.2520 -0.3990 -0.1942
18371TIP3    H176604   1.957   0.406  12.986 -0.1203  3.3305  1.9798
18371TIP3    H276605   2.000   0.492  12.869 -0.6807  2.0734  0.8330
18372TIP3   OH276606   4.809   3.482  14.672  0.1827 -0.3998 -1.1950
18372TIP3    H176607   4.775   3.538  14.742 -0.3290 -0.9640 -0.9843
18372TIP3    H276608   4.781   3.524  14.591 -1.0237 -0.8506 -1.0249
18373TIP3   OH276609   4.179   3.589  12.636 -0.2727  1.1850 -0.1314
18373TIP3    H176610   4.248   3.531  12.667  0.0451  1.7079  0.1581
18373TIP3    H276611   4.134   3.540  12.567 -1.6910 -0.4161  1.8795
18374TIP3   OH276612   5.688   0.917   4.502 -0.1945 -0.1256  0.3107
18374TIP3    H176613   5.635   0.931   4.423 -1.6720  0.9690  1.4820
18374TIP3    H276614   5.684   1.000   4.549  0.8287 -0.7130  1.4621
18375TIP3   OH276615   3.580   0.827  12.805 -0.2685  0.4398  0.0292
18375TIP3    H176616   3.670   0.849  12.833  0.3731  0.5381 -2.0558
18375TIP3    H276617   3.559   0.894  12.740 -1.1129 -0.7476 -0.9268
18376TIP3   OH276618   4.908   6.187  15.495 -0.0434  0.1863 -0.2348
18376TIP3    H176619   4.878   6.216  15.409 -0.2363  0.6094 -0.0298
18376TIP3    H276620   4.855   6.109  15.514 -2.2700  1.8927  0.8621
18377TIP3   OH276621   2.770   1.892  15.507  0.4507  0.3707  0.3197
18377TIP3    H176622   2.802   1.825  15.448  1.8072  0.6948  0.6708
18377TIP3    H276623   2.846   1.917  15.559 -0.2946  1.3911  0.9471
18378TIP3   OH276624   0.268   4.174  15.521 -0.1568  0.7228 -0.1725
18378TIP3    H176625   0.188   4.191  15.571 -0.3737 -2.8015  0.8181
18378TIP3    H276626   0.336   4.168  15.588  0.2488 -0.1064 -0.6601
18379TIP3   OH276627   5.725   0.614   3.433  0.5317  0.5828 -0.2408
18379TIP3    H176628   5.645   0.666   3.422 -2.4920 -3.7931 -0.2602
18379TIP3    H276629   5.725   0.589   3.525  2.0619  0.8282 -0.1691
18380TIP3   OH276630   3.996   1.136  15.147 -0.2194 -0.0408  0.0684
18380TIP3    H176631   4.018   1.097  15.231  1.2607 -1.0745 -0.7796
18380TIP3    H276632   4.079   1.140  15.099 -1.3149 -1.2036 -2.0360
18381TIP3   OH276633   1.646   4.597   2.176 -0.2756 -0.5163 -0.0261
18381TIP3    H176634   1.586   4.524   2.165 -1.3365  0.1842  1.0102
18381TIP3    H276635   1.610   4.648   2.249  1.3183  0.1682  0.3134
18382TIP3   OH276636   0.134   6.148  15.434 -0.5252  0.0275 -0.0539
18382TIP3    H176637   0.060   6.093  15.406 -0.3433 -0.8072  1.0669
18382TIP3    H276638   0.171   6.102  15.509 -1.2970  2.4477  1.8632
18383TIP3   OH276639   0.108   3.074  16.747 -0.3898  0.2164  0.1645
18383TIP3    H176640   0.086   2.982  16.755 -3.1684  0.7802 -0.4865
18383TIP3    H276641   0.197   3.075  16.711 -0.0199 -2.1849  0.9717
18384TIP3   OH276642   1.918   3.865   6.151 -0.1287 -0.3240  0.3947
18384TIP3    H176643   1.831   3.885   6.188 -1.0286 -0.9317 -1.3503
18384TIP3    H276644   1.943   3.783   6.194 -1.2559 -1.1231 -0.4337
18385TIP3   OH276645   5.993   2.810  11.773 -0.2205 -0.2987  0.2082
18385TIP3    H176646   5.980   2.836  11.864  0.6995 -0.9882  0.5407
18385TIP3    H276647   6.076   2.849  11.749  0.3806 -1.5620  0.2058
18386TIP3   OH276648   3.863   4.629  12.902  0.3386 -0.2077 -0.2055
18386TIP3    H176649   3.785   4.682  12.917  1.2470  0.4323  2.4286
18386TIP3    H276650   3.829   4.541  12.886 -0.9944  0.3830 -0.7036
18387TIP3   OH276651   1.784   1.796   5.107  0.4035 -0.1166 -0.0821
18387TIP3    H176652   1.773   1.710   5.147 -1.0014  0.5482  1.0046
18387TIP3    H276653   1.795   1.778   5.014  0.7738 -1.5049  0.2219
18388TIP3   OH276654   5.828   0.739  16.296  0.5487 -0.0043 -0.5071
18388TIP3    H176655   5.745   0.736  16.248 -0.3150  1.2921  0.8565
18388TIP3    H276656   5.895   0.732  16.228 -0.6463 -2.7964 -1.5071
18389TIP3   OH276657   1.305   0.884   5.458  0.2433 -1.0743 -0.1522
18389TIP3    H176658   1.320   0.860   5.366 -0.1849  0.4353 -0.6387
18389TIP3    H276659   1.236   0.951   5.454  0.3903 -0.8221  1.2510
18390TIP3   OH276660   1.544   3.114   0.233  0.1110 -0.6223 -0.1891
18390TIP3    H176661   1.566   3.202   0.203  0.0167 -0.7750 -0.7099
18390TIP3    H276662   1.449   3.116   0.245 -0.3130 -1.5379 -3.1414
18391TIP3   OH276663   1.389   0.038  11.240  0.2517 -0.5166 -0.1625
18391TIP3    H176664   1.471   0.084  11.224  0.6208 -1.0435  0.1829
18391TIP3    H276665   1.361   0.009  11.154  0.1165  0.1884 -0.3579
18392TIP3   OH276666   5.743   3.426   5.729 -0.2106 -0.0422  0.1622
18392TIP3    H176667   5.732   3.505   5.782 -3.7968  0.3291 -1.0169
18392TIP3    H276668   5.690   3.360   5.773 -1.0180 -0.4784 -1.4396
18393TIP3   OH276669   6.568   4.154  16.683  0.7485 -0.9699 -0.6537
18393TIP3    H176670   6.555   4.150  16.588  0.3386 -1.6112 -0.5786
18393TIP3    H276671   6.654   4.117  16.698  1.5984  0.8272 -0.9329
18394TIP3   OH276672   0.881   2.281  12.163 -0.3266  0.0091  0.1514
18394TIP3    H176673   0.866   2.193  12.130  0.4235  1.0032 -3.0704
18394TIP3    H276674   0.973   2.281  12.190 -0.1941 -0.0885 -0.2904
18395TIP3   OH276675   3.997   4.562  16.064 -0.1677  0.3597 -0.9960
18395TIP3    H176676   3.927   4.575  16.127  0.7103 -0.5317  0.1957
18395TIP3    H276677   4.060   4.632  16.083  0.4398 -0.3384 -0.3787
18396TIP3   OH276678   0.400   3.429  14.647 -0.2065  0.7177 -0.3379
18396TIP3    H176679   0.477   3.477  14.677 -1.9462  1.3397  3.4491
18396TIP3    H276680   0.326   3.482  14.676 -2.1207 -1.8497 -0.3460
18397TIP3   OH276681   6.400   1.383   0.013  0.8242  0.3090  0.2038
18397TIP3    H176682   6.332   1.440   0.049 -0.3726 -0.2337 -1.1646
18397TIP3    H276683   6.480   1.435   0.020 -0.0446  1.6817  0.1422
18398TIP3   OH276684   1.388   1.071   5.980 -0.6069 -0.7183  0.3508
18398TIP3    H176685   1.435   1.073   6.063  0.5369  2.8396 -0.3047
18398TIP3    H276686   1.379   0.978   5.960  0.9494 -1.5918  3.4030
18399TIP3   OH276687   5.722   0.005   6.071  0.2506 -0.0919 -0.1221
18399TIP3    H176688   5.792  -0.018   6.132  2.3893  1.2925 -1.9373
18399TIP3    H276689   5.715  -0.071   6.012  1.8614  0.6668 -1.3324
18400TIP3   OH276690   3.863   5.461   6.167  0.1549  0.5090  0.0546
18400TIP3    H176691   3.903   5.390   6.218  0.0206  0.3994  0.0085
18400TIP3    H276692   3.930   5.484   6.102 -0.7400 -1.2860 -1.5494
18401TIP3   OH276693   0.903   3.672   3.586 -0.6738  0.8497 -0.4419
18401TIP3    H176694   0.914   3.577   3.587 -0.2016  0.8895  1.4669
18401TIP3    H276695   0.821   3.687   3.632 -1.2255  1.3280 -1.5701
18402TIP3   OH276696   4.235   6.699  16.483  0.1903  0.1682  0.1555
18402TIP3    H176697   4.310   6.755  16.463 -1.1212  1.2470 -1.8938
18402TIP3    H276698   4.231   6.698  16.579  0.4470  3.3644  0.2440
18403TIP3   OH276699   4.419   5.883  10.656 -0.2489 -0.1531  0.3291
18403TIP3    H176700   4.422   5.794  10.621  0.9446 -0.0753  0.2089
18403TIP3    H276701   4.500   5.890  10.708 -0.0800  1.0337 -0.1008
18404TIP3   OH276702   6.795   6.624  16.750 -0.6085  0.3170  0.2231
18404TIP3    H176703   6.783   6.542  16.797 -2.3024 -0.2600 -1.1966
18404TIP3    H276704   6.819   6.687  16.819 -2.1130 -0.7220  1.7378
18405TIP3   OH276705   3.711   1.649   2.554  0.0982  0.2061  0.0884
18405TIP3    H176706   3.776   1.586   2.523 -0.2511 -0.6793  1.1205
18405TIP3    H276707   3.749   1.735   2.534  0.5452 -0.3208 -1.3904
18406TIP3   OH276708   6.402   1.545  16.265 -0.2099  0.0243  0.1073
18406TIP3    H176709   6.375   1.518  16.353  0.1251 -0.3713  0.0899
18406TIP3    H276710   6.483   1.595  16.279  0.9914 -1.7994 -0.1513
18407TIP3   OH276711   6.552   3.521   1.576  0.2096  0.1415  0.3469
18407TIP3    H176712   6.600   3.567   1.645 -0.4671 -1.5806  2.0102
18407TIP3    H276713   6.486   3.584   1.546  1.8043  1.6094 -0.1591
18408TIP3   OH276714   6.302   5.010   2.908 -0.6142  0.4754 -0.4115
18408TIP3    H176715   6.282   4.917   2.903 -2.1523  0.8405 -1.2470
18408TIP3    H276716   6.353   5.019   2.989 -1.4260 -0.9116  0.2769
18409TIP3   OH276717   2.571   6.780  12.138 -0.6525  0.6964 -0.1390
18409TIP3    H176718   2.528   6.749  12.218 -1.5699 -0.4718 -1.0663
18409TIP3    H276719   2.665   6.771  12.156 -0.8548  0.3285  0.7537
18410TIP3   OH276720   1.937   0.916  15.929  0.1159 -0.1410 -0.6999
18410TIP3    H176721   1.875   0.900  15.858  0.0181 -3.3819  0.0160
18410TIP3    H276722   2.018   0.942  15.885  0.1131 -2.3261 -2.0753
18411TIP3   OH276723   0.182   0.885  15.291 -0.0833 -0.3006  0.4616
18411TIP3    H176724   0.180   0.935  15.209  1.2874 -0.9836 -0.0029
18411TIP3    H276725   0.273   0.891  15.321 -0.2647 -1.1695  1.2213
18412TIP3   OH276726   4.246   3.352   4.279  0.5063 -0.3845  0.4829
18412TIP3    H176727   4.274   3.338   4.189 -1.0478 -2.8383  0.3275
18412TIP3    H276728   4.321   3.328   4.332  0.2050 -2.5957 -0.0608
18413TIP3   OH276729   0.337   6.793  11.065  0.6630 -1.0565  0.1570
18413TIP3    H176730   0.315   6.870  11.012 -1.4269 -1.6946  0.0545
18413TIP3    H276731   0.355   6.829  11.152  0.3273 -0.3973 -0.0412
18414TIP3   OH276732   4.939   0.991   0.617 -0.2012  0.1037  0.4749
18414TIP3    H176733   4.851   0.985   0.580 -0.5304  0.0005  1.2570
18414TIP3    H276734   4.987   1.046   0.555 -0.8947  0.4004  0.1874
18415TIP3   OH276735   5.149   4.444  11.690  0.2897  0.2037 -0.1819
18415TIP3    H176736   5.217   4.389  11.652 -0.3882 -1.1469  0.5566
18415TIP3    H276737   5.182   4.533  11.679  2.5417 -0.4788  0.8791
18416TIP3   OH276738   6.426   0.539  13.394  0.2317  0.2951  0.2481
18416TIP3    H176739   6.450   0.570  13.306  0.7956  0.6357  0.5188
18416TIP3    H276740   6.408   0.446  13.381  1.3511  0.1062 -0.0456
18417TIP3   OH276741   2.609   5.682  10.907  1.0518 -0.1348 -0.6686
18417TIP3    H176742   2.677   5.748  10.892 -0.2509  0.7615 -2.8553
18417TIP3    H276743   2.575   5.703  10.995  2.6138  0.2701 -0.1367
18418TIP3   OH276744   5.343   1.609  17.021 -0.0667  0.6094  0.2130
18418TIP3    H176745   5.356   1.699  16.991 -0.3119  0.6650  0.2768
18418TIP3    H276746   5.291   1.568  16.952  0.6734  0.3079 -0.1707
18419TIP3   OH276747   0.276   4.237  16.871 -0.0894 -0.2735  0.1849
18419TIP3    H176748   0.261   4.187  16.951 -0.9842  2.6047  1.8748
18419TIP3    H276749   0.359   4.282  16.886  1.0669 -1.7145 -1.6144
18420TIP3   OH276750   1.581   4.855   3.719  0.3664 -0.2524  0.6046
18420TIP3    H176751   1.613   4.777   3.673 -1.0607 -0.5221  0.0441
18420TIP3    H276752   1.643   4.867   3.791 -0.1421 -2.7537  1.5323
18421TIP3   OH276753   5.836   1.411  11.768 -0.1512  0.4500  0.2993
18421TIP3    H176754   5.915   1.394  11.820 -0.1862 -0.7520 -0.0089
18421TIP3    H276755   5.864   1.396  11.677 -0.8899 -0.6909  0.2435
18422TIP3   OH276756   4.657   0.409  11.409 -0.8571  0.3077  0.1110
18422TIP3    H176757   4.734   0.467  11.402  0.0739 -0.8883  0.2669
18422TIP3    H276758   4.675   0.339  11.346 -0.2906 -1.6917  2.4463
18423TIP3   OH276759   1.144   5.607  11.192  0.4063 -0.9029  0.2643
18423TIP3    H176760   1.125   5.680  11.252 -0.9796 -1.1944  0.2064
18423TIP3    H276761   1.163   5.533  11.250 -0.1964 -1.0001  0.3380
18424TIP3   OH276762   5.209   0.493   2.029 -0.1938 -0.1562  1.2261
18424TIP3    H176763   5.288   0.495   1.974 -0.8034 -0.8551  0.3148
18424TIP3    H276764   5.236   0.445   2.107  0.2624 -0.4571  0.8873
18425TIP3   OH276765   0.475   4.933   2.514 -0.1264  0.2443  0.0745
18425TIP3    H176766   0.497   5.000   2.449 -0.9348 -0.7041 -1.1982
18425TIP3    H276767   0.531   4.859   2.492 -1.8957 -0.8349 -0.8717
18426TIP3   OH276768   6.222   6.557  16.176 -1.0062 -0.0587  0.7084
18426TIP3    H176769   6.214   6.613  16.253 -0.7202  2.1756 -0.8119
18426TIP3    H276770   6.309   6.517  16.184  0.0548  2.1146  0.3088
18427TIP3   OH276771   2.718   2.454   5.765  0.2891  0.2111 -0.5320
18427TIP3    H176772   2.669   2.375   5.745  0.7566 -0.5319  1.1632
18427TIP3    H276773   2.768   2.473   5.686 -1.0689 -0.2517 -1.5098
18428TIP3   OH276774   2.999   3.011   4.535  0.1842  0.3433  0.0079
18428TIP3    H176775   3.032   2.931   4.495  1.2000  1.3284 -1.1772
18428TIP3    H276776   3.034   3.081   4.480  0.7263  1.6899  2.0025
18429TIP3   OH276777   3.271   2.834  16.998  0.3342  0.3997  0.5834
18429TIP3    H176778   3.232   2.911  17.039 -1.3501 -0.4245  0.5583
18429TIP3    H276779   3.242   2.837  16.907  0.6887  0.0008  0.4548
18430TIP3   OH276780   5.080   0.304  12.512 -0.0792 -0.4170 -0.5114
18430TIP3    H176781   5.038   0.316  12.597  0.6465 -0.3328 -0.1548
18430TIP3    H276782   5.157   0.250  12.531  0.5521  0.3007 -0.9805
18431TIP3   OH276783   0.477   1.233  16.463  0.0458  0.2195  0.0574
18431TIP3    H176784   0.550   1.183  16.425  0.7214  1.2453 -0.0073
18431TIP3    H276785   0.422   1.255  16.388  0.2189  0.3518 -0.0304
18432TIP3   OH276786   3.743   6.315   1.279  0.1276  0.0677  0.3352
18432TIP3    H176787   3.693   6.234   1.283  1.8463 -1.0442 -0.0770
18432TIP3    H276788   3.835   6.287   1.281  0.7525  1.9927  0.0581
18433TIP3   OH276789   1.752   2.755   1.603  0.3712 -0.0630 -0.1227
18433TIP3    H176790   1.683   2.695   1.574  1.2278 -1.3313  0.3967
18433TIP3    H276791   1.753   2.824   1.537 -0.4587 -0.7624 -0.8829
18434TIP3   OH276792   4.744   1.182   3.598 -0.5442 -0.0001  0.9751
18434TIP3    H176793   4.725   1.203   3.507 -1.1266 -0.1398  1.0614
18434TIP3    H276794   4.789   1.260   3.632 -3.1830  1.3844  1.4447
18435TIP3   OH276795   4.060   3.355   4.480 -0.2050 -0.8815 -0.1432
18435TIP3    H176796   3.988   3.370   4.418 -0.4386 -0.0654  0.3202
18435TIP3    H276797   4.135   3.333   4.425 -0.2224  0.5367 -0.7707
18436TIP3   OH276798   4.398   4.525  16.436 -0.2432  0.1217 -0.0238
18436TIP3    H176799   4.444   4.446  16.466 -0.0205  0.4991  0.6273
18436TIP3    H276800   4.393   4.514  16.341 -0.5462 -0.8609  0.0943
18437TIP3   OH276801   2.613   5.358  12.117  0.1358  0.4138 -0.3603
18437TIP3    H176802   2.646   5.444  12.093 -0.6399  1.7659  3.1022
18437TIP3    H276803   2.626   5.305  12.039  3.9596  2.7012 -1.4341
18438TIP3   OH276804   5.583   0.003   2.055 -0.4436  0.0947 -0.3846
18438TIP3    H176805   5.628  -0.051   1.989 -0.7357  0.0822 -0.5716
18438TIP3    H276806   5.615  -0.031   2.139  1.1822  1.1865 -0.5358
18439TIP3   OH276807   6.436   4.295   1.010  0.0529 -0.1906 -0.2321
18439TIP3    H176808   6.455   4.312   0.917  0.3536 -2.2039 -0.5552
18439TIP3    H276809   6.374   4.222   1.009  1.8698 -1.7975  1.2179
18440TIP3   OH276810   0.790   4.108   1.653 -0.6686 -0.1472 -0.3282
18440TIP3    H176811   0.862   4.120   1.715 -0.3108  0.0632 -0.7852
18440TIP3    H276812   0.725   4.058   1.702 -0.5131  0.2748  0.3167
18441TIP3   OH276813   3.735   2.073   2.102 -0.5371  0.7142  0.2154
18441TIP3    H176814   3.682   2.152   2.091 -0.7341  0.4724 -0.6160
18441TIP3    H276815   3.674   2.008   2.136 -0.6009  0.6514 -0.0173
18442TIP3   OH276816   2.975   4.709  12.057 -1.0460  0.0907 -0.4124
18442TIP3    H176817   2.937   4.680  11.974  1.4205 -0.9111 -1.2382
18442TIP3    H276818   3.033   4.637  12.084 -1.6117  0.5162  2.0504
18443TIP3   OH276819   2.297   5.347  13.282 -0.1218  0.4911 -0.3072
18443TIP3    H176820   2.328   5.394  13.359 -1.8959 -0.4030  1.0090
18443TIP3    H276821   2.284   5.415  13.216  0.7914  1.3650  0.3965
18444TIP3   OH276822   2.860   6.529   3.526 -0.4935  0.5026  0.0604
18444TIP3    H176823   2.796   6.594   3.496  0.1123  1.0282 -0.0964
18444TIP3    H276824   2.844   6.453   3.470 -1.1723  0.5312  0.2076
18445TIP3   OH276825   1.354   2.954   2.863  0.0198  0.3434 -0.2668
18445TIP3    H176826   1.310   2.877   2.899  0.6127  0.0102 -0.2447
18445TIP3    H276827   1.353   3.018   2.934  0.5142 -0.0415  0.0890
18446TIP3   OH276828   6.455   6.708  15.626 -0.5201  0.3827  0.2444
18446TIP3    H176829   6.440   6.722  15.719 -0.9017  1.4304  0.0283
18446TIP3    H276830   6.520   6.637  15.622 -1.6011 -0.6705  1.2636
18447TIP3   OH276831   3.257   1.744  12.344  0.2680 -0.0862  0.1732
18447TIP3    H176832   3.247   1.666  12.398  2.1352 -0.9395 -0.6638
18447TIP3    H276833   3.229   1.716  12.257  0.1560  0.4183  0.0471
18448TIP3   OH276834   2.878   4.424   0.973  0.1297 -0.1261 -0.0090
18448TIP3    H176835   2.804   4.418   0.913 -0.2383  1.5078  0.2686
18448TIP3    H276836   2.849   4.484   1.042  0.7796 -1.4543  1.4681
18449TIP3   OH276837   1.764   4.267   1.039  0.4705  0.2681  0.4466
18449TIP3    H176838   1.673   4.243   1.023  1.1223 -1.7889 -0.3978
18449TIP3    H276839   1.793   4.205   1.106  1.9891 -0.8620 -1.2077
18450TIP3   OH276840   2.556   1.249   4.661 -0.1260 -0.3141 -0.4212
18450TIP3    H176841   2.582   1.166   4.619  2.7724  0.4993 -0.3255
18450TIP3    H276842   2.577   1.316   4.597 -3.0733  0.3568 -0.7534
18451TIP3   OH276843   2.245   3.054   1.390  0.0637  0.1461  0.0232
18451TIP3    H176844   2.300   3.022   1.318 -1.1182  0.1645 -0.9128
18451TIP3    H276845   2.234   2.979   1.447 -0.2861 -0.3247 -0.6478
18452TIP3   OH276846   5.708   6.654   0.775  1.0572 -0.0611  0.0832
18452TIP3    H176847   5.760   6.729   0.806  0.0055  0.8505 -0.3112
18452TIP3    H276848   5.751   6.578   0.813  2.4006  0.7144  0.1479
18453TIP3   OH276849   0.485   3.471  16.069 -0.1024 -0.2540 -0.3862
18453TIP3    H176850   0.522   3.518  15.994 -2.3138 -0.5979 -1.7380
18453TIP3    H276851   0.414   3.418  16.032 -1.2074 -0.4675  1.9349
18454TIP3   OH276852   6.430   4.530   5.200  0.1401  0.4074  0.4069
18454TIP3    H176853   6.342   4.544   5.164  0.8685  2.1109 -0.7798
18454TIP3    H276854   6.415   4.519   5.294 -1.3819  0.3233  0.1712
18455TIP3   OH276855   5.163   3.967   6.259 -0.3153  0.0666  0.9120
18455TIP3    H176856   5.148   3.918   6.339 -0.7237  0.8955  1.3530
18455TIP3    H276857   5.258   3.971   6.250 -0.2799 -0.5961  0.9981
18456TIP3   OH276858   2.118   0.879   5.552  0.1987 -0.0703  0.0997
18456TIP3    H176859   2.143   0.789   5.574 -0.2794 -0.1862  0.1769
18456TIP3    H276860   2.035   0.869   5.505 -1.9290  0.5794  3.5057
18457TIP3   OH276861   6.295   2.190   5.493 -0.1876  0.0668  0.2185
18457TIP3    H176862   6.271   2.100   5.515 -1.5550  0.5688  0.7851
18457TIP3    H276863   6.370   2.210   5.549 -1.0076 -0.1101  1.3838
18458TIP3   OH276864   1.334   4.039   5.085  0.0919 -0.7592  0.2821
18458TIP3    H176865   1.387   3.986   5.025 -1.2555  0.0655 -1.7014
18458TIP3    H276866   1.344   4.128   5.054 -0.2465 -0.2484  1.6004
18459TIP3   OH276867   0.530   4.925  14.209  0.0844  0.0554 -0.8120
18459TIP3    H176868   0.561   5.008  14.243  1.3077  0.3018 -2.4787
18459TIP3    H276869   0.519   4.940  14.115  1.4540 -1.9919 -1.3296
18460TIP3   OH276870   1.958   2.864  13.950  0.2950 -0.2667  0.7192
18460TIP3    H176871   1.965   2.885  14.043  0.6088  0.2100  0.5908
18460TIP3    H276872   1.975   2.947  13.905 -0.4815 -0.3618  0.2516
18461TIP3   OH276873   2.245   1.263   4.452 -0.2956  0.1966 -0.3003
18461TIP3    H176874   2.163   1.263   4.404 -1.5839  0.9690  1.7997
18461TIP3    H276875   2.247   1.179   4.497  0.0937  0.1606 -0.3812
18462TIP3   OH276876   3.036   3.889  17.225  0.0514 -0.4656  0.7152
18462TIP3    H176877   3.042   3.877  17.320 -0.9861 -0.3011  0.8121
18462TIP3    H276878   3.002   3.978  17.214  2.4386  0.4029  0.1295
18463TIP3   OH276879   6.186   5.216  17.196  0.2659  0.7036  0.6138
18463TIP3    H176880   6.110   5.163  17.221 -0.6407  1.8937  0.4464
18463TIP3    H276881   6.261   5.157  17.206 -0.6053 -0.2890  1.4368
18464TIP3   OH276882   4.237   1.944  13.701 -0.0593  0.0574  0.1354
18464TIP3    H176883   4.270   1.960  13.613  0.3564 -1.2648  0.0358
18464TIP3    H276884   4.159   1.890  13.687  0.2270 -0.4815  0.5791
18465TIP3   OH276885   4.487   3.146   4.760  0.1295  0.2147 -0.1068
18465TIP3    H176886   4.416   3.206   4.782 -0.2502 -0.7662  1.3349
18465TIP3    H276887   4.543   3.145   4.838 -0.5720 -2.3313  0.3821
18466TIP3   OH276888   3.918   6.479  15.879  0.2519 -0.0131  0.1048
18466TIP3    H176889   3.951   6.501  15.966 -0.4552 -0.8355  0.5853
18466TIP3    H276890   3.971   6.404  15.852  0.0929 -0.1077  0.0584
18467TIP3   OH276891   5.485   0.396  15.926 -0.0502  0.5194 -0.0182
18467TIP3    H176892   5.569   0.417  15.885  0.0494 -2.6308 -1.5337
18467TIP3    H276893   5.508   0.371  16.015  0.6310 -0.3178 -0.4234
18468TIP3   OH276894   5.240   0.415  12.953 -0.5354 -0.0170  0.1522
18468TIP3    H176895   5.203   0.480  12.893 -1.1326 -0.5674 -0.0824
18468TIP3    H276896   5.174   0.346  12.957 -0.2824 -0.2073  1.0729
18469TIP3   OH276897   1.813   1.280   1.446 -0.1628  0.1985  0.5544
18469TIP3    H176898   1.844   1.217   1.381 -0.2269 -0.0871  0.8044
18469TIP3    H276899   1.893   1.321   1.480 -0.1287  0.3473  0.2986
18470TIP3   OH276900   2.484   4.297   0.460 -0.2545  0.3859 -0.7366
18470TIP3    H176901   2.440   4.212   0.459  1.6354 -0.6221 -1.6267
18470TIP3    H276902   2.565   4.281   0.510 -0.4319  1.9591  0.0862
18471TIP3   OH276903   3.808   3.771   1.257 -0.9049  0.0672 -0.3007
18471TIP3    H176904   3.888   3.765   1.205 -1.2709 -0.2923 -0.8254
18471TIP3    H276905   3.828   3.836   1.324  0.6049 -1.6357  0.9492
18472TIP3   OH276906   5.773   2.923  16.750 -0.3042  0.3192  0.4866
18472TIP3    H176907   5.790   2.906  16.842 -0.1249 -0.1208  0.3742
18472TIP3    H276908   5.788   3.017  16.739 -0.5962  0.4200  0.9588
18473TIP3   OH276909   0.113   4.820  12.261  0.4294  0.1848  0.3789
18473TIP3    H176910   0.139   4.807  12.170 -0.2961  2.4398 -0.1765
18473TIP3    H276911   0.038   4.762  12.274 -0.2664  0.8083 -0.8365
18474TIP3   OH276912   2.370   0.041  17.281 -0.6948  0.3157 -0.2948
18474TIP3    H176913   2.341   0.019  17.192 -0.5498 -0.1814 -0.2183
18474TIP3    H276914   2.446   0.098  17.268 -1.8452  1.8514 -0.4939
18475TIP3   OH276915   3.852   6.282  13.723 -0.0233  0.1874 -0.0015
18475TIP3    H176916   3.786   6.253  13.785  0.1598  0.8023  0.4852
18475TIP3    H276917   3.804   6.336  13.660 -0.1662 -0.2321 -0.2501
18476TIP3   OH276918   2.275   2.073   0.891 -0.0235 -0.6280  0.0033
18476TIP3    H176919   2.363   2.079   0.853  0.0984 -0.0887  0.3611
18476TIP3    H276920   2.218   2.111   0.823  0.1646  0.1074  0.2535
18477TIP3   OH276921   3.601   1.538   1.716  0.1524  0.0013 -0.4598
18477TIP3    H176922   3.507   1.543   1.732  0.2826 -1.3737  0.8708
18477TIP3    H276923   3.635   1.487   1.790  2.2615  2.4599  0.3482
18478TIP3   OH276924   0.650   6.269   5.270 -0.2233  0.3996 -0.4966
18478TIP3    H176925   0.634   6.198   5.209  0.4088 -0.2730  0.1085
18478TIP3    H276926   0.741   6.293   5.257 -0.0875  0.2649  0.1540
18479TIP3   OH276927   5.864   0.277   1.572 -0.3051 -0.1988 -0.1394
18479TIP3    H176928   5.887   0.227   1.494 -0.4789 -0.8794  0.2418
18479TIP3    H276929   5.811   0.217   1.624 -1.0124  0.5849  0.0527
18480TIP3   OH276930   2.184   1.168   2.228 -0.1883  0.3252 -0.2891
18480TIP3    H176931   2.152   1.125   2.149 -0.2123  2.0394 -1.2465
18480TIP3    H276932   2.119   1.236   2.246 -1.0671 -1.0960  2.1929
18481TIP3   OH276933   2.386   3.497   4.085 -0.2428 -0.6578  0.4344
18481TIP3    H176934   2.308   3.447   4.109  1.6775 -2.4980  3.1337
18481TIP3    H276935   2.413   3.460   4.001 -3.5335  1.6287 -1.7586
18482TIP3   OH276936   4.715   1.368   2.439 -0.2497  0.4742  0.1205
18482TIP3    H176937   4.700   1.277   2.463 -0.0725  0.5902  0.6923
18482TIP3    H276938   4.803   1.369   2.400 -0.4739  0.3101 -0.3794
18483TIP3   OH276939   0.779   2.770   2.406  0.1655  0.4773  0.1488
18483TIP3    H176940   0.834   2.786   2.483 -1.1168  0.9222  0.9972
18483TIP3    H276941   0.820   2.820   2.336  0.1732  1.7664  1.0554
18484TIP3   OH276942   2.039   5.820  15.892 -0.2930  0.3960 -0.0474
18484TIP3    H176943   2.128   5.792  15.869 -0.3814  0.1309 -0.0724
18484TIP3    H276944   2.052   5.890  15.957 -0.0571  0.7070 -0.4303
18485TIP3   OH276945   1.554   0.731  11.651 -0.0011  0.3164  0.0906
18485TIP3    H176946   1.583   0.665  11.588 -1.9821 -0.7981  0.2917
18485TIP3    H276947   1.604   0.713  11.730 -0.9008 -1.3292  0.3177
18486TIP3   OH276948   4.010   2.562   5.781 -0.8554  0.4313 -0.2296
18486TIP3    H176949   3.983   2.514   5.703 -0.4342  0.3908 -0.3493
18486TIP3    H276950   4.028   2.651   5.750 -1.3067  0.5787 -0.0669
18487TIP3   OH276951   6.409   6.440  13.810  0.3793 -0.3493  0.7882
18487TIP3    H176952   6.370   6.467  13.727 -1.5543 -0.9347  1.4853
18487TIP3    H276953   6.409   6.344  13.806 -1.3351 -0.4246  2.1765
18488TIP3   OH276954   6.571   2.699  14.884 -0.1145  0.1495 -0.0691
18488TIP3    H176955   6.625   2.678  14.960  0.7930  2.1802 -0.1265
18488TIP3    H276956   6.519   2.620  14.869  1.9260 -1.3828  0.7563
18489TIP3   OH276957   5.494   1.458   0.183  0.5231  0.2143  0.4458
18489TIP3    H176958   5.513   1.535   0.129 -4.1970  1.2533  0.0741
18489TIP3    H276959   5.475   1.389   0.119  2.0394 -0.5406  0.7980
18490TIP3   OH276960   1.709   6.535   3.046  0.2790 -0.2127 -0.2736
18490TIP3    H176961   1.798   6.567   3.060  0.4493 -1.8646  2.9702
18490TIP3    H276962   1.720   6.450   3.002  0.4474 -1.3008  1.8124
18491TIP3   OH276963   5.345   3.727  16.741 -0.1029 -0.5978 -0.2635
18491TIP3    H176964   5.401   3.785  16.690  0.2068 -1.6547 -1.1529
18491TIP3    H276965   5.406   3.668  16.785 -0.3056  0.9953  2.2277
18492TIP3   OH276966   5.451   0.575  11.907  0.5929  0.5335  0.1961
18492TIP3    H176967   5.427   0.484  11.894 -0.5599  0.8773 -0.1731
18492TIP3    H276968   5.405   0.602  11.986  0.9894  0.7660  0.3480
18493TIP3   OH276969   4.450   3.796   1.848 -0.0634 -0.2645  0.3705
18493TIP3    H176970   4.420   3.796   1.939  0.8258  0.0022  0.6718
18493TIP3    H276971   4.523   3.857   1.847 -0.9622  0.8138 -0.8366
18494TIP3   OH276972   5.538   6.471  12.498  0.1191  0.3139 -0.1974
18494TIP3    H176973   5.520   6.405  12.431 -2.7455  0.5564  0.2666
18494TIP3    H276974   5.632   6.487  12.491  0.6572 -2.8515 -1.2120
18495TIP3   OH276975   3.218   0.294  11.743  0.7741 -0.2353  0.0509
18495TIP3    H176976   3.196   0.383  11.715 -0.6506 -0.2764  0.9887
18495TIP3    H276977   3.313   0.288  11.732  0.5749  0.5381 -2.4533
18496TIP3   OH276978   2.561   2.576   6.157 -0.1041  0.5689 -0.0486
18496TIP3    H176979   2.532   2.485   6.170  0.3673  0.4536  0.1919
18496TIP3    H276980   2.494   2.629   6.200 -0.1811  0.3190  0.1410
18497TIP3   OH276981   6.060   0.198  13.183 -0.2610  0.1097 -0.3398
18497TIP3    H176982   6.025   0.109  13.171 -1.5120  0.3926  1.1278
18497TIP3    H276983   6.006   0.253  13.126 -1.0848  0.2800  0.5909
18498TIP3   OH276984   1.526   1.422   0.686  0.5944  0.5945 -0.2484
18498TIP3    H176985   1.569   1.497   0.728  0.4838  0.6314 -0.1992
18498TIP3    H276986   1.438   1.455   0.665  1.6465  1.6179 -3.3854
18499TIP3   OH276987   0.093   2.848   0.325  0.0624  0.7278  0.3582
18499TIP3    H176988   0.045   2.916   0.372  0.6571  1.4782 -0.1025
18499TIP3    H276989   0.162   2.895   0.279 -0.8369  0.1048 -1.7139
18500TIP3   OH276990   3.324   0.751   5.345  0.3602  0.1637 -0.0229
18500TIP3    H176991   3.375   0.671   5.363  1.4402  0.1666 -2.7658
18500TIP3    H276992   3.374   0.821   5.387 -0.2151 -0.5053  1.7987
18501TIP3   OH276993   4.718   4.329  15.943 -0.0021 -0.1467  0.1177
18501TIP3    H176994   4.660   4.267  15.900 -0.0284 -0.3158  0.3990
18501TIP3    H276995   4.734   4.397  15.877 -1.1332  0.2975  0.2934
18502TIP3   OH276996   4.204   5.448  14.667 -0.2127 -0.4919  0.3610
18502TIP3    H176997   4.152   5.407  14.737 -1.3598  0.1415 -0.1008
18502TIP3    H276998   4.138   5.482  14.606  0.7434  0.9843  0.1424
18503TIP3   OH276999   6.772   6.806   2.680  0.3949 -0.0555  0.3432
18503TIP3    H177000   6.815   6.817   2.765  1.5162  0.1629 -0.2379
18503TIP3    H277001   6.680   6.794   2.701  0.6405  0.1482  1.5862
18504TIP3   OH277002   1.201   4.743  14.407 -0.0981 -0.3570 -0.0912
18504TIP3    H177003   1.286   4.778  14.434 -0.0150 -0.8464  0.2988
18504TIP3    H277004   1.168   4.805  14.342 -0.0085  0.4982  0.6728
18505TIP3   OH277005   6.460   0.553   5.283 -0.0562 -0.1082 -0.4070
18505TIP3    H177006   6.474   0.473   5.233  0.1709  0.6805 -1.6305
18505TIP3    H277007   6.513   0.619   5.238 -0.4357  0.7822  0.4351
18506TIP3   OH277008   4.796   1.326  14.488 -0.6599 -0.3335  0.0607
18506TIP3    H177009   4.780   1.414  14.522 -0.1191 -0.2303  0.0486
18506TIP3    H277010   4.798   1.336  14.393  0.4409 -0.1861  0.1001
18507TIP3   OH277011   1.835   1.676  17.098 -0.2302  0.1029  0.3781
18507TIP3    H177012   1.898   1.744  17.121  0.2041 -0.5866  1.2755
18507TIP3    H277013   1.751   1.722  17.091  0.5068  1.1559 -1.6747
18508TIP3   OH277014   3.421   1.949  12.343  0.3021 -0.1258  0.2689
18508TIP3    H177015   3.366   1.870  12.341  0.9410 -0.5860  0.5222
18508TIP3    H277016   3.401   1.995  12.261 -0.3461 -0.3664  0.2902
18509TIP3   OH277017   3.194   1.533   2.022 -0.3643 -0.2989  0.0691
18509TIP3    H177018   3.189   1.575   2.108  1.4667  0.0328  0.0257
18509TIP3    H277019   3.132   1.460   2.028  0.0343 -0.5161  1.7960
18510TIP3   OH277020   4.042   5.200   6.082 -0.2638  0.2493 -0.1179
18510TIP3    H177021   4.026   5.183   6.175 -1.4007  1.1965 -0.1252
18510TIP3    H277022   4.137   5.213   6.077 -0.2266  0.5393  0.9801
18511TIP3   OH277023   2.563   4.122   4.479 -0.0263 -0.6838 -0.2074
18511TIP3    H177024   2.632   4.067   4.516  0.6950 -0.5026 -1.2620
18511TIP3    H277025   2.532   4.073   4.403 -1.7866 -1.2525  0.8451
18512TIP3   OH277026   4.207   5.886  15.951 -0.3949 -0.1870  0.4219
18512TIP3    H177027   4.161   5.957  15.995 -0.4569 -0.2104  0.3961
18512TIP3    H277028   4.264   5.929  15.887 -1.0751 -0.1983 -0.2009
18513TIP3   OH277029   5.303   4.737   5.583  0.0007  0.6135 -0.4310
18513TIP3    H177030   5.362   4.725   5.509  1.0835 -0.8850  0.6426
18513TIP3    H277031   5.230   4.677   5.566 -0.4043  1.2434 -0.9307
18514TIP3   OH277032   6.503   5.044  16.209  0.3540  0.9390 -0.2107
18514TIP3    H177033   6.537   5.104  16.143  0.0936 -0.3302 -1.5333
18514TIP3    H277034   6.466   4.972  16.159 -0.8691  0.4770  1.3025
18515TIP3   OH277035   6.013   1.497  16.502  0.5659 -0.0130  0.5161
18515TIP3    H177036   6.103   1.468  16.510  0.4431 -0.5464  0.0257
18515TIP3    H277037   5.966   1.451  16.572  0.4950 -0.4864  0.1597
18516TIP3   OH277038   3.522   6.380  15.186  0.4755 -0.3012 -0.3277
18516TIP3    H177039   3.580   6.324  15.238 -0.2384  0.2785  1.1440
18516TIP3    H277040   3.446   6.326  15.167 -1.2086  0.7264  2.9536
18517TIP3   OH277041   4.239   3.100  12.172 -0.1144  0.0637 -0.8745
18517TIP3    H177042   4.270   3.185  12.143  0.6084  0.0070 -0.3035
18517TIP3    H277043   4.146   3.099  12.150 -0.0888  0.9302 -1.0429
18518TIP3   OH277044   0.608   3.204   3.337 -0.2816 -0.5017  0.6525
18518TIP3    H177045   0.522   3.165   3.352  0.4554 -2.7665 -0.7821
18518TIP3    H277046   0.590   3.279   3.280 -1.4336 -0.1636  1.4368
18519TIP3   OH277047   5.196   4.230  15.370  0.4482  0.1544  0.4991
18519TIP3    H177048   5.185   4.323  15.390 -1.6480 -0.0664  0.4696
18519TIP3    H277049   5.186   4.186  15.454  0.7941 -0.0995  0.4113
18520TIP3   OH277050   2.946   1.557   1.838 -0.2335  0.1234 -0.2628
18520TIP3    H177051   2.954   1.476   1.788  1.6349 -0.2271  0.5826
18520TIP3    H277052   2.916   1.622   1.774  0.8430 -0.6218 -1.5494
18521TIP3   OH277053   3.756   4.883  12.627 -0.0147 -0.2669  0.2180
18521TIP3    H177054   3.752   4.878  12.722 -2.2029  3.0892  0.3796
18521TIP3    H277055   3.664   4.883  12.599  0.5906 -1.1397 -1.9135
18522TIP3   OH277056   6.232   0.247  15.644  0.1023  0.1378  0.6937
18522TIP3    H177057   6.260   0.184  15.577 -0.5167  1.2262 -0.6327
18522TIP3    H277058   6.314   0.282  15.679  0.4662  0.9900 -0.9211
18523TIP3   OH277059   6.014   1.846   2.444 -0.4623  0.4787  0.5114
18523TIP3    H177060   6.053   1.921   2.399  1.3327 -0.8022 -0.1296
18523TIP3    H277061   5.997   1.782   2.374  1.1770 -1.0249  1.4405
18524TIP3   OH277062   5.330   0.963   6.087  0.0218 -0.0695  0.0839
18524TIP3    H177063   5.353   0.922   6.170 -1.4801 -2.9880 -0.8833
18524TIP3    H277064   5.274   1.037   6.112  0.6395 -0.1168  1.7062
18525TIP3   OH277065   1.611   2.661  11.032  0.5442  0.3681 -0.1805
18525TIP3    H177066   1.670   2.606  10.982 -0.2538  0.7718 -1.5791
18525TIP3    H277067   1.604   2.618  11.117  1.9997 -0.2493 -0.3608
18526TIP3   OH277068   3.441   3.712  11.717  0.9173 -0.6432  0.8002
18526TIP3    H177069   3.478   3.786  11.766  1.1667 -1.3999  1.7688
18526TIP3    H277070   3.515   3.652  11.707  0.7079 -0.7747  0.0264
18527TIP3   OH277071   5.800   3.989   4.949 -0.4739 -0.5327 -0.2889
18527TIP3    H177072   5.737   3.918   4.956 -1.3057  0.1264 -0.8720
18527TIP3    H277073   5.807   4.025   5.038 -0.6488 -0.8450 -0.1506
18528TIP3   OH277074   6.188   3.176  14.476 -0.2303  0.1011  0.0829
18528TIP3    H177075   6.133   3.146  14.404  0.2178  0.1122 -0.2661
18528TIP3    H277076   6.271   3.201  14.435  0.1135 -0.1100  0.6277
18529TIP3   OH277077   0.704   3.129   3.802  0.0785 -0.1143 -0.4212
18529TIP3    H177078   0.673   3.140   3.892 -0.7566 -0.0937 -0.7013
18529TIP3    H277079   0.750   3.045   3.802 -0.3667 -0.3626 -0.0922
18530TIP3   OH277080   5.260   1.107  15.492  0.0485  0.2158 -0.4015
18530TIP3    H177081   5.173   1.094  15.455 -0.2635 -1.7313  0.9602
18530TIP3    H277082   5.319   1.068  15.427 -0.2043  0.2238 -0.6378
18531TIP3   OH277083   1.641   2.272  14.485  0.4535  0.1273  0.2301
18531TIP3    H177084   1.610   2.322  14.560  0.3101  1.9992 -1.0303
18531TIP3    H277085   1.692   2.335  14.434 -0.7856 -0.6571 -2.0654
18532TIP3   OH277086   4.453   0.985  12.353  0.5449  0.0632  0.4584
18532TIP3    H177087   4.420   1.071  12.377  1.6059  1.0554 -1.5142
18532TIP3    H277088   4.376   0.938  12.320 -0.1971 -0.0534  2.3129
18533TIP3   OH277089   3.982   3.404   1.688  0.4652 -0.8713  0.2394
18533TIP3    H177090   3.963   3.420   1.596 -0.9577 -0.8816  0.5220
18533TIP3    H277091   3.937   3.322   1.708 -1.1993  0.3527  1.5458
18534TIP3   OH277092   5.344   4.109  12.727 -0.1759  0.3377  0.3327
18534TIP3    H177093   5.354   4.188  12.675  0.4367  0.2550  0.3218
18534TIP3    H277094   5.253   4.081  12.712 -0.4726  1.1771  0.5365
18535TIP3   OH277095   3.312   5.956  16.979  0.4124 -0.4326  0.9362
18535TIP3    H177096   3.356   6.031  17.019 -0.1728  0.4512 -0.0374
18535TIP3    H277097   3.231   5.946  17.029  0.0836  0.1356  0.5281
18536TIP3   OH277098   4.760   0.573  14.319 -0.3135 -0.0958 -0.1197
18536TIP3    H177099   4.776   0.650  14.265 -1.7699  0.8329  0.7483
18536TIP3    H277100   4.844   0.527  14.319  0.1341  0.6494 -1.9387
18537TIP3   OH277101   4.202   6.186   3.045  0.0930  0.1090  0.0259
18537TIP3    H177102   4.192   6.111   3.104 -0.7900 -0.7818 -1.2359
18537TIP3    H277103   4.116   6.229   3.045  1.0747  2.1552  2.0880
18538TIP3   OH277104   3.011   6.559  12.517  0.1915  0.0150  0.2009
18538TIP3    H177105   3.007   6.655  12.515 -0.0846  0.0585  2.3127
18538TIP3    H277106   2.923   6.531  12.493 -0.0885  0.3099  0.8830
18539TIP3   OH277107   0.920   2.858  11.732  0.2724 -0.0742  0.0391
18539TIP3    H177108   0.829   2.839  11.708 -0.9145  1.5469  3.0796
18539TIP3    H277109   0.958   2.772  11.749 -0.4024 -0.8348 -2.0779
18540TIP3   OH277110   4.336   1.454  12.509  0.0642 -0.1329  0.0424
18540TIP3    H177111   4.249   1.457  12.550  0.6344 -0.2982  1.2759
18540TIP3    H277112   4.350   1.542  12.476  0.1276  0.3488  1.3286
18541TIP3   OH277113   3.640   2.540   0.852 -0.2013 -0.8159 -0.0736
18541TIP3    H177114   3.679   2.461   0.817 -1.8931 -1.9738  0.6006
18541TIP3    H277115   3.546   2.527   0.842 -0.4712  1.7665 -1.3759
18542TIP3   OH277116   1.471   3.351  13.593 -0.1301 -0.1854 -0.1859
18542TIP3    H177117   1.497   3.266  13.557  0.5986  0.0530 -0.2326
18542TIP3    H277118   1.476   3.411  13.519 -1.7180 -0.3122 -0.4029
18543TIP3   OH277119   6.218   4.255  16.173 -0.1155 -0.0254  0.2427
18543TIP3    H177120   6.205   4.223  16.263 -1.6158 -0.7156 -0.2056
18543TIP3    H277121   6.242   4.177  16.123 -2.2927 -0.2253 -0.5491
18544TIP3   OH277122   4.333   1.537   6.664  0.0226  0.0854  0.2917
18544TIP3    H177123   4.392   1.571   6.732 -0.7770  0.0239  1.0362
18544TIP3    H277124   4.287   1.614   6.632  0.1444  0.0657  0.0722
18545TIP3   OH277125   3.677   3.389   1.460  0.3026 -0.6764 -0.2965
18545TIP3    H177126   3.724   3.408   1.379 -0.3046  0.4450 -0.4009
18545TIP3    H277127   3.603   3.450   1.460 -1.0493 -2.2949 -0.0561
18546TIP3   OH277128   4.944   4.661   3.541 -0.1163 -0.2442 -0.2711
18546TIP3    H177129   4.952   4.566   3.541  1.5516 -0.1134  0.5929
18546TIP3    H277130   4.953   4.687   3.632 -1.9976  0.6508 -0.3128
18547TIP3   OH277131   3.903   5.135  14.582 -0.6743  0.2599  0.0980
18547TIP3    H177132   3.952   5.191  14.643  1.0356 -0.1152 -0.8879
18547TIP3    H277133   3.822   5.183  14.565 -1.0652  0.4757  2.4696
18548TIP3   OH277134   6.409   1.986   2.928 -0.2705 -0.3497  0.0989
18548TIP3    H177135   6.352   1.974   3.004  0.6108 -1.5680  0.5846
18548TIP3    H277136   6.462   1.906   2.925  0.1742 -0.0087 -1.3949
18549TIP3   OH277137   0.730   1.124  12.230  0.1532  0.3960 -0.6990
18549TIP3    H177138   0.691   1.210  12.242 -1.0125  0.0553 -1.7798
18549TIP3    H277139   0.801   1.138  12.168 -1.1387  0.3281 -2.2338
18550TIP3   OH277140   0.479   4.977   0.955 -0.3430  0.1641 -0.1611
18550TIP3    H177141   0.573   4.980   0.974 -0.1267  2.0538 -1.3470
18550TIP3    H277142   0.440   5.029   1.025 -0.5704 -1.0100  0.5969
18551TIP3   OH277143   4.136   3.918   4.453  0.3244 -0.2563 -0.7101
18551TIP3    H177144   4.041   3.922   4.465  0.2387 -0.3769 -1.3223
18551TIP3    H277145   4.153   3.828   4.426  0.6657 -0.3565 -0.1610
18552TIP3   OH277146   1.314   5.357   0.749 -0.2421  0.4922  0.0051
18552TIP3    H177147   1.363   5.405   0.683  0.3613  2.3663  1.7787
18552TIP3    H277148   1.376   5.294   0.785 -0.0089  0.8107  0.1570
18553TIP3   OH277149   4.925   0.723  12.466 -0.3711 -0.2726 -0.0118
18553TIP3    H177150   4.979   0.771  12.403  1.4121 -0.9611  0.9402
18553TIP3    H277151   4.904   0.641  12.422  0.8720 -0.7521  0.2714
18554TIP3   OH277152   4.564   2.197   5.332  0.0332  0.1809 -0.3482
18554TIP3    H177153   4.542   2.285   5.302 -1.8969 -0.6359 -1.4269
18554TIP3    H277154   4.555   2.201   5.427 -0.1978  1.1223 -0.4072
18555TIP3   OH277155   1.414   1.604   2.319  0.3314 -0.1213 -0.0726
18555TIP3    H177156   1.485   1.660   2.349 -0.0320  0.0853  0.4093
18555TIP3    H277157   1.423   1.603   2.223 -0.0874  1.3462 -0.1360
18556TIP3   OH277158   5.602   0.216  17.185  0.0403 -0.1632 -0.1351
18556TIP3    H177159   5.594   0.290  17.125 -1.7838  0.2282  0.5377
18556TIP3    H277160   5.696   0.197  17.187  0.4102  1.3744 -1.2168
18557TIP3   OH277161   1.905   1.062  13.018  0.4718 -0.7178  0.3661
18557TIP3    H177162   1.831   1.114  12.986  2.5136  0.8880 -1.9458
18557TIP3    H277163   1.904   1.075  13.113 -3.5719 -2.6461  0.6667
18558TIP3   OH277164   6.749   6.306   1.068  0.3816  0.0090 -0.0116
18558TIP3    H177165   6.703   6.370   1.014  0.0887  0.2644  0.5413
18558TIP3    H277166   6.772   6.353   1.148  0.5228 -0.4604  0.2274
18559TIP3   OH277167   2.009   5.988   6.312 -0.2474  0.1304 -0.0037
18559TIP3    H177168   1.990   6.044   6.236  0.6536  0.5532  0.0703
18559TIP3    H277169   2.041   6.049   6.378  0.4171 -0.4377  0.1944
18560TIP3   OH277170   3.309   1.871   5.435  0.3164  0.0280  0.4564
18560TIP3    H177171   3.244   1.802   5.425 -1.0435  1.3890 -0.4990
18560TIP3    H277172   3.385   1.841   5.386 -0.4280 -0.5996 -0.3231
18561TIP3   OH277173   0.942   5.593  11.663 -0.1611 -0.0006  0.7030
18561TIP3    H177174   0.978   5.637  11.740  1.8009  0.0472 -0.2090
18561TIP3    H277175   0.996   5.624  11.590 -0.7078 -1.5629 -0.3960
18562TIP3   OH277176   5.884   2.583   1.963 -0.1422 -0.1707  0.0726
18562TIP3    H177177   5.836   2.542   2.036  0.1089  0.6515  0.7102
18562TIP3    H277178   5.948   2.517   1.936 -0.9595 -0.8971 -0.1260
18563TIP3   OH277179   2.553   3.533  14.727 -0.2822 -0.2031  0.5474
18563TIP3    H177180   2.493   3.607  14.732  0.6330  0.5429  0.7172
18563TIP3    H277181   2.573   3.525  14.633  0.1324  0.1792  0.6052
18564TIP3   OH277182   2.187   6.010   5.438  0.3998  0.2832 -0.6962
18564TIP3    H177183   2.245   5.941   5.406  0.4061  0.3189 -0.7619
18564TIP3    H277184   2.163   5.982   5.527  1.3925  0.7961 -0.2560
18565TIP3   OH277185   5.208   5.564   1.016 -0.8426 -0.0252 -1.0213
18565TIP3    H177186   5.303   5.570   1.013 -0.7184  1.1867  2.5072
18565TIP3    H277187   5.179   5.652   1.037 -2.7045 -0.5400 -1.3099
18566TIP3   OH277188   6.004   0.653  16.101  0.2868  1.1104 -0.2008
18566TIP3    H177189   5.956   0.702  16.034  1.3249  1.1447 -0.9445
18566TIP3    H277190   6.042   0.578  16.053 -0.1499  0.3420  0.6435
18567TIP3   OH277191   5.719   4.521   2.651 -0.3207  0.0998  0.2566
18567TIP3    H177192   5.652   4.469   2.607 -0.0890 -0.2604  0.3331
18567TIP3    H277193   5.712   4.608   2.610 -0.7267  0.0191  0.1557
18568TIP3   OH277194   3.707   1.040   5.317  0.0824 -0.1900 -0.5066
18568TIP3    H177195   3.688   1.131   5.292 -1.3507 -0.6635 -1.1651
18568TIP3    H277196   3.720   1.044   5.412  2.1381  1.0375 -0.7921
18569TIP3   OH277197   0.630   1.999  16.544 -0.3777 -0.2450  0.2371
18569TIP3    H177198   0.700   1.993  16.610  0.1732 -0.1621 -0.3317
18569TIP3    H277199   0.632   1.913  16.500 -0.2087 -0.0185 -0.2035
18570TIP3   OH277200   1.447   3.045   6.594 -0.0309  1.0974  0.5637
18570TIP3    H177201   1.509   3.007   6.532  0.0322 -0.1974  1.3923
18570TIP3    H277202   1.473   3.008   6.679 -1.4155  1.1796  1.0294
18571TIP3   OH277203   2.671   0.621   3.196  0.0777  0.1618  0.1373
18571TIP3    H177204   2.731   0.632   3.122 -0.0736  2.0367  0.2631
18571TIP3    H277205   2.608   0.555   3.166  0.4843  0.3204 -1.1106
18572TIP3   OH277206   3.803   4.475  14.198 -0.2727 -0.1609  0.7103
18572TIP3    H177207   3.823   4.568  14.210  0.3115 -0.2350  0.2879
18572TIP3    H277208   3.730   4.475  14.136  1.2956 -0.0775 -1.1793
18573TIP3   OH277209   2.955   1.630   0.507  0.3878 -0.7499  0.5996
18573TIP3    H177210   3.048   1.642   0.488  0.7783  0.8709  3.2105
18573TIP3    H277211   2.944   1.536   0.519  1.8499 -0.8709  0.9960
18574TIP3   OH277212   5.818   5.800  12.397 -0.3633  0.4174  0.0450
18574TIP3    H177213   5.776   5.733  12.343  0.5156 -1.6982  1.9225
18574TIP3    H277214   5.749   5.828  12.457  0.3622 -1.7204  1.9064
18575TIP3   OH277215   1.240   0.238   2.279 -0.4113  0.1308 -0.0234
18575TIP3    H177216   1.204   0.292   2.209 -1.4056  0.9919  1.1284
18575TIP3    H277217   1.252   0.152   2.239  0.5830  1.0297 -1.7004
18576TIP3   OH277218   5.538   3.477  12.804  0.0383  0.1341  0.1193
18576TIP3    H177219   5.505   3.444  12.888  0.4153  1.1477  0.6732
18576TIP3    H277220   5.550   3.571  12.818  1.4687  0.0778 -0.6201
18577TIP3   OH277221   1.722   2.124  12.951 -0.1854 -0.2895  0.5585
18577TIP3    H177222   1.683   2.056  12.895 -2.0257  1.6560 -0.6260
18577TIP3    H277223   1.646   2.169  12.988  1.0088  1.3889  0.9791
18578TIP3   OH277224   1.902   2.567  11.273 -0.1043 -0.0837 -0.0537
18578TIP3    H177225   1.983   2.525  11.242 -0.5280 -1.2654  0.4047
18578TIP3    H277226   1.908   2.657  11.241  0.7657 -0.5208 -1.1690
18579TIP3   OH277227   2.376   6.697  13.079 -0.8554  0.3698  0.4101
18579TIP3    H177228   2.441   6.637  13.115 -1.4161 -0.3331  0.2573
18579TIP3    H277229   2.300   6.642  13.059 -0.8913  0.8991 -0.9769
18580TIP3   OH277230   1.402   2.263  11.127  0.5767  0.0157 -0.4422
18580TIP3    H177231   1.321   2.294  11.087 -0.0225 -0.3064  0.5069
18580TIP3    H277232   1.454   2.231  11.053 -0.1362  0.2668 -1.0655
18581TIP3   OH277233   4.041   5.264  14.883  0.2140 -0.5749  0.1823
18581TIP3    H177234   4.083   5.340  14.925  1.1243 -0.6850 -0.4940
18581TIP3    H277235   3.962   5.249  14.933 -1.1245  2.1990 -1.0042
18582TIP3   OH277236   2.835   1.254  13.884  0.1293 -0.1097 -0.1749
18582TIP3    H177237   2.905   1.316  13.866 -0.0503  0.3520  0.6932
18582TIP3    H277238   2.859   1.176  13.834 -0.1626  0.9905 -2.0713
18583TIP3   OH277239   4.303   1.918   4.188  0.3175  0.0208  0.1967
18583TIP3    H177240   4.314   1.965   4.270  0.5771 -1.4990  1.0414
18583TIP3    H277241   4.319   1.827   4.210 -1.2388 -0.6126 -1.2036
18584TIP3   OH277242   5.588   1.137  11.860 -0.1713 -0.0859  0.3253
18584TIP3    H177243   5.526   1.158  11.929  0.2364 -1.3841  1.1113
18584TIP3    H277244   5.671   1.123  11.906  1.2556  3.7459 -0.9092
18585TIP3   OH277245   5.040   2.918  11.780  0.3256 -0.3360 -0.1096
18585TIP3    H177246   5.114   2.944  11.724  0.3777  3.1799  1.4671
18585TIP3    H277247   4.966   2.967  11.745 -0.4265 -0.8836  0.7149
18586TIP3   OH277248   5.759   4.418   1.281 -0.0607 -0.1891 -0.1882
18586TIP3    H177249   5.697   4.351   1.313 -2.1327  1.3438 -0.8669
18586TIP3    H277250   5.810   4.442   1.358 -0.7305 -1.0467  0.5465
18587TIP3   OH277251   6.742   0.467  13.223 -0.1086 -0.0442 -0.1812
18587TIP3    H177252   6.707   0.421  13.300 -0.0401 -0.3418 -0.3293
18587TIP3    H277253   6.687   0.438  13.151  0.3691 -0.4179 -0.3949
18588TIP3   OH277254   1.521   0.434   1.214  0.8707  0.0175  0.3549
18588TIP3    H177255   1.605   0.409   1.253  0.4901  0.6299  1.6066
18588TIP3    H277256   1.497   0.515   1.260  0.0844  0.3920 -0.7081
18589TIP3   OH277257   0.830   2.690   3.159  0.2263 -0.2937 -0.2238
18589TIP3    H177258   0.908   2.738   3.134 -0.1133  0.1128 -0.5033
18589TIP3    H277259   0.757   2.749   3.140 -0.0024  0.3536  2.4521
18590TIP3   OH277260   0.869   3.758  14.741  0.6187  0.4360  0.6976
18590TIP3    H177261   0.856   3.688  14.678  0.0562 -0.5033  1.8358
18590TIP3    H277262   0.870   3.838  14.688 -0.3709 -0.2919 -0.4433
18591TIP3   OH277263   4.867   2.730   5.317  0.1249  0.1641 -0.3079
18591TIP3    H177264   4.955   2.767   5.307  0.6767 -0.2959  2.5193
18591TIP3    H277265   4.809   2.806   5.320  0.5831  0.5320 -0.7422
18592TIP3   OH277266   5.762   1.358   4.819 -0.3688  0.5205  0.4439
18592TIP3    H177267   5.682   1.344   4.869  0.8187 -1.2174  1.9240
18592TIP3    H277268   5.817   1.410   4.877  0.9429 -1.3446  0.9175
18593TIP3   OH277269   6.270   5.524   1.995 -0.2799 -0.2388 -0.0711
18593TIP3    H177270   6.273   5.483   2.081  0.1249 -0.1044 -0.0215
18593TIP3    H277271   6.247   5.453   1.934 -0.5665 -0.3328  0.1458
18594TIP3   OH277272   6.380   0.767   0.516  0.9518  0.2964 -0.0288
18594TIP3    H177273   6.450   0.832   0.505  0.5435  0.4409 -1.9179
18594TIP3    H277274   6.425   0.688   0.546  1.6535  1.0074  0.8014
18595TIP3   OH277275   6.199   0.282  14.970 -0.4344 -0.7701  0.0869
18595TIP3    H177276   6.109   0.313  14.977 -0.2466  0.0953 -1.1414
18595TIP3    H277277   6.252   0.354  15.006 -0.0377  0.1243 -2.1849
18596TIP3   OH277278   0.709   6.692  13.334 -0.0199  0.2101  0.0043
18596TIP3    H177279   0.664   6.763  13.289  0.1381 -0.0128 -0.5107
18596TIP3    H277280   0.639   6.635  13.366 -0.0901 -0.5162 -1.4151
18597TIP3   OH277281   1.037   5.480  16.892 -0.3031 -0.2540 -0.4326
18597TIP3    H177282   0.998   5.560  16.926  2.0584  0.0024  1.8835
18597TIP3    H277283   1.104   5.509  16.830  0.0472 -0.4181 -0.1419
18598TIP3   OH277284   2.335   4.571  13.652  0.2371  0.1898 -0.4701
18598TIP3    H177285   2.372   4.602  13.735 -2.4328 -1.1624  1.3003
18598TIP3    H277286   2.286   4.647  13.619 -0.9086 -0.0748  0.5756
18599TIP3   OH277287   6.326   6.373   3.137  0.4734  0.3064  0.0560
18599TIP3    H177288   6.287   6.391   3.052 -1.4012 -2.8721  0.1409
18599TIP3    H277289   6.407   6.326   3.117 -0.0455 -0.5803 -0.0042
18600TIP3   OH277290   4.058   6.306   4.878 -0.2385 -0.2048  0.1283
18600TIP3    H177291   4.017   6.246   4.815  0.2509  1.3002 -1.6436
18600TIP3    H277292   4.101   6.247   4.941 -1.1036 -1.7450 -0.6775
18601TIP3   OH277293   3.173   5.934   1.624  0.0209 -0.4154 -0.2920
18601TIP3    H177294   3.130   5.961   1.705  0.6906  1.8916 -0.6689
18601TIP3    H277295   3.186   5.840   1.634 -0.6089 -0.2916  1.9348
18602TIP3   OH277296   3.783   5.049   3.207 -0.2050 -0.5831  0.4331
18602TIP3    H177297   3.821   5.012   3.286  0.4864  0.4329  0.5777
18602TIP3    H277298   3.819   5.137   3.201 -0.2388 -0.6556 -1.0281
18603TIP3   OH277299   6.179   6.488  13.078  0.1313  0.3096 -0.6025
18603TIP3    H177300   6.241   6.437  13.129  0.6968  2.1333  0.6046
18603TIP3    H277301   6.232   6.527  13.008  0.2725  1.4514  0.1230
18604TIP3   OH277302   1.370   5.011  10.671  0.3471 -0.3919 -0.2872
18604TIP3    H177303   1.369   5.059  10.588 -0.8275 -0.1990 -0.1674
18604TIP3    H277304   1.439   5.054  10.723 -0.3623  0.8635 -0.3616
18605TIP3   OH277305   4.850   3.540   2.905  0.3352 -0.1869 -0.1841
18605TIP3    H177306   4.945   3.541   2.893  0.2728  0.8648 -0.6219
18605TIP3    H277307   4.828   3.448   2.917  1.5792 -0.3208  1.2167
18606TIP3   OH277308   1.557   6.023   6.094  0.1995  0.1709  0.2880
18606TIP3    H177309   1.523   6.080   6.024 -0.7720  1.5929  1.8805
18606TIP3    H277310   1.507   5.942   6.085  0.0942  0.3344 -0.6759
18607TIP3   OH277311   3.765   6.312  13.278 -0.5639  0.4990  0.2814
18607TIP3    H177312   3.780   6.219  13.293 -0.2305  0.3830 -0.8103
18607TIP3    H277313   3.670   6.320  13.272 -0.6717  0.4363  1.7145
18608TIP3   OH277314   1.058   1.209  12.167  0.5932  0.5373  0.0978
18608TIP3    H177315   1.133   1.205  12.225  0.9712 -0.5636 -0.4352
18608TIP3    H277316   1.059   1.297  12.131  1.8628  0.4159 -0.1938
18609TIP3   OH277317   2.058   3.310  11.406 -0.0694 -0.0815 -0.3160
18609TIP3    H177318   2.102   3.384  11.448 -0.9948  0.1400  0.2600
18609TIP3    H277319   2.125   3.241  11.405  0.4124  0.3690  0.2442
18610TIP3   OH277320   6.255   3.781  10.516  0.5809  0.3725  0.0111
18610TIP3    H177321   6.292   3.866  10.494 -0.1139  0.6611 -0.0618
18610TIP3    H277322   6.167   3.782  10.478 -0.2073  0.4350  1.7705
18611TIP3   OH277323   3.552   3.459  15.744  0.6763  0.0648 -0.1288
18611TIP3    H177324   3.580   3.385  15.689  0.7419 -0.2449  0.3245
18611TIP3    H277325   3.523   3.419  15.825  1.1616  0.5755  0.3023
18612TIP3   OH277326   3.788   4.871  15.604 -0.1866  0.1124 -0.4074
18612TIP3    H177327   3.752   4.901  15.521 -1.7595  1.2357  0.6655
18612TIP3    H277328   3.744   4.924  15.671 -2.3284 -3.7770  1.4698
18613TIP3   OH277329   5.806   1.686   2.324  0.2234 -0.2406 -0.3899
18613TIP3    H177330   5.728   1.634   2.307 -0.1191  0.0465  0.2815
18613TIP3    H277331   5.830   1.722   2.238 -1.8831  1.7343 -0.2066
18614TIP3   OH277332   6.559   6.018  12.932 -0.0375 -0.1747 -0.0980
18614TIP3    H177333   6.562   6.112  12.913  0.7701 -0.5931 -2.1507
18614TIP3    H277334   6.489   6.009  12.997 -0.6041  1.7513 -0.4013
18615TIP3   OH277335   0.764   4.023   4.919 -0.1727  0.1865 -0.6880
18615TIP3    H177336   0.773   3.973   4.837 -0.0856 -1.1799  0.1353
18615TIP3    H277337   0.854   4.034   4.950 -0.2426  0.1967 -0.4870
18616TIP3   OH277338   1.277   6.041  16.490  0.1914  0.3512 -0.3446
18616TIP3    H177339   1.243   6.127  16.466 -2.8976 -0.9805 -0.9989
18616TIP3    H277340   1.225   5.980  16.439  0.2264 -2.0679  2.3825
18617TIP3   OH277341   3.152   3.980   4.336  0.6249 -0.5805  0.6340
18617TIP3    H177342   3.128   4.043   4.267  0.2907 -0.7515  0.5943
18617TIP3    H277343   3.073   3.972   4.389  0.6576 -1.0001  0.6165
18618TIP3   OH277344   4.633   4.741  16.193  0.2207 -0.1705  0.0827
18618TIP3    H177345   4.554   4.777  16.151  0.2710  0.1223  0.2423
18618TIP3    H277346   4.640   4.788  16.276 -0.0304 -0.9481  0.5490
18619TIP3   OH277347   0.408   1.172   1.873  0.0085 -0.0794 -0.2589
18619TIP3    H177348   0.497   1.177   1.838  0.0392 -1.5165 -0.4353
18619TIP3    H277349   0.417   1.195   1.965  0.5220  0.0619 -0.3413
18620TIP3   OH277350   1.409   6.583  16.011 -0.2559  0.6979 -0.4054
18620TIP3    H177351   1.333   6.636  16.037 -0.4144  1.1563 -1.7713
18620TIP3    H277352   1.485   6.637  16.033 -0.3294  0.4560  0.4802
18621TIP3   OH277353   0.147   1.445  17.200 -0.5055 -0.4681  0.2528
18621TIP3    H177354   0.229   1.417  17.242 -0.6700  1.2556  1.8301
18621TIP3    H277355   0.175   1.481  17.116  0.3369 -0.1442  0.6610
18622TIP3   OH277356   4.016   3.843   6.005 -0.2478  0.4818  0.2108
18622TIP3    H177357   4.039   3.935   6.018  1.8705 -0.0538  0.2856
18622TIP3    H277358   3.965   3.819   6.083 -1.8174  1.8909 -0.3470
18623TIP3   OH277359   6.244   0.881  16.108  0.0551 -0.2350 -0.3462
18623TIP3    H177360   6.337   0.903  16.101 -0.0696  0.3151 -0.2300
18623TIP3    H277361   6.227   0.824  16.032 -0.1546  1.8583 -1.9012
18624TIP3   OH277362   4.679   3.577   4.951 -0.4335 -0.0243  0.6974
18624TIP3    H177363   4.602   3.631   4.938  0.3445  0.6454 -1.3359
18624TIP3    H277364   4.729   3.620   5.020 -0.6361  0.9416  0.2384
18625TIP3   OH277365   6.816   3.082  11.693  0.6380 -0.5849  0.2891
18625TIP3    H177366   6.788   3.171  11.670  1.2825 -0.4224  0.1481
18625TIP3    H277367   6.857   3.048  11.614  0.6694 -0.8967  0.4397
18626TIP3   OH277368   1.431   1.328   0.027 -0.2205  0.2008 -0.6433
18626TIP3    H177369   1.407   1.357  -0.061 -2.3668 -1.5381 -0.6643
18626TIP3    H277370   1.443   1.409   0.077  0.1451  1.1765 -2.3029
18627TIP3   OH277371   3.878   4.901   2.589  0.3507  0.1532 -0.1188
18627TIP3    H177372   3.851   4.936   2.674 -0.8391  0.4432 -0.6045
18627TIP3    H277373   3.843   4.963   2.525  0.2019 -0.6941 -0.8747
18628TIP3   OH277374   0.520   1.261  12.914 -0.9548  0.6784  0.6623
18628TIP3    H177375   0.476   1.311  12.983  0.8282  2.9422  0.2162
18628TIP3    H277376   0.457   1.258  12.842 -1.6108  1.0883  1.2163
18629TIP3   OH277377   5.194   1.270  16.331  0.1628  0.1439  0.2342
18629TIP3    H177378   5.106   1.242  16.356 -0.2524 -0.3267 -1.6641
18629TIP3    H277379   5.181   1.357  16.292  0.5687  0.1853  0.1950
18630TIP3   OH277380   1.427   2.331  12.710 -0.1456 -0.4839 -0.3322
18630TIP3    H177381   1.396   2.388  12.780 -0.6223 -0.4854 -0.5349
18630TIP3    H277382   1.487   2.270  12.752  0.8638  0.5688 -0.2323
18631TIP3   OH277383   1.444   0.733   6.162  0.0411  0.1998 -0.5522
18631TIP3    H177384   1.426   0.761   6.072 -0.9814  1.8296  0.1360
18631TIP3    H277385   1.370   0.675   6.184  0.5563 -0.6126 -0.9156
18632TIP3   OH277386   2.860   3.463   1.906  0.4997  0.2037  0.7266
18632TIP3    H177387   2.831   3.375   1.886  0.7403  0.0012  1.2448
18632TIP3    H277388   2.951   3.466   1.874  0.4079  0.3455  0.4789
18633TIP3   OH277389   1.013   4.961   2.929 -1.7161  0.5376  0.2207
18633TIP3    H177390   1.079   4.941   2.995  0.0137  2.7087 -0.7929
18633TIP3    H277391   0.992   4.876   2.891 -0.1952 -0.3114  1.1946
18634TIP3   OH277392   4.469   4.297   5.284  0.2965 -0.4063 -0.4190
18634TIP3    H177393   4.489   4.216   5.237  0.2747 -1.4551  1.3331
18634TIP3    H277394   4.496   4.280   5.374  1.8453  2.1422 -0.3523
18635TIP3   OH277395   3.318   0.388  15.779  0.0604 -0.0812 -0.2418
18635TIP3    H177396   3.296   0.310  15.830 -1.6160  0.7725  0.3766
18635TIP3    H277397   3.278   0.461  15.827 -0.7525  0.8571 -2.2508
18636TIP3   OH277398   0.125   1.120   0.677  0.2805  0.4229 -0.5251
18636TIP3    H177399   0.189   1.119   0.606  0.7869  0.3937 -0.0704
18636TIP3    H277400   0.177   1.135   0.756 -0.0251 -1.8195  0.1201
18637TIP3   OH277401   4.013   3.699   3.362  0.6669  0.5056 -0.0518
18637TIP3    H177402   4.066   3.779   3.361  0.0341  0.9267 -0.4253
18637TIP3    H277403   3.928   3.726   3.325 -0.6772  0.4609  2.8483
18638TIP3   OH277404   3.758   0.120   1.890 -0.2445 -0.1200 -0.1217
18638TIP3    H177405   3.755   0.134   1.985 -0.9833 -1.3751  0.0479
18638TIP3    H277406   3.679   0.162   1.857  0.0841  0.4415 -0.2119
18639TIP3   OH277407   2.953   5.892  15.152 -0.2049 -0.4293  0.2345
18639TIP3    H177408   2.940   5.947  15.229  0.8047 -0.0944  0.1769
18639TIP3    H277409   2.890   5.925  15.088 -0.7494 -0.4254  0.7688
18640TIP3   OH277410   5.284   3.404  15.593 -0.4602  0.1112 -1.1183
18640TIP3    H177411   5.374   3.401  15.562 -0.8822 -1.4529 -2.2498
18640TIP3    H277412   5.244   3.475  15.542  0.4041  1.5701  0.2013
18641TIP3   OH277413   0.145   6.810   3.167 -0.1181  0.1384 -0.5634
18641TIP3    H177414   0.187   6.744   3.221 -0.2400 -0.5163 -1.2522
18641TIP3    H277415   0.216   6.869   3.141  0.0730  0.0102 -0.3351
18642TIP3   OH277416   6.105   4.564  15.214 -1.1874  0.3065 -0.0838
18642TIP3    H177417   6.159   4.546  15.138 -0.8845 -0.4704  0.3060
18642TIP3    H277418   6.051   4.486  15.225 -0.0954 -0.2596  1.4406
18643TIP3   OH277419   3.669   3.124  12.440  0.3205  0.7870 -0.8184
18643TIP3    H177420   3.698   3.100  12.528 -1.2203 -1.7067 -0.9427
18643TIP3    H277421   3.706   3.056  12.383 -0.0162  1.4790 -1.8806
18644TIP3   OH277422   5.209   4.529  15.385 -0.2795 -0.7177 -0.4406
18644TIP3    H177423   5.191   4.568  15.471 -0.2472 -1.4439 -0.1051
18644TIP3    H277424   5.296   4.562  15.362 -1.5652  2.0343 -1.6422
18645TIP3   OH277425   4.900   5.262  12.736  0.7661  0.0454  0.2196
18645TIP3    H177426   4.847   5.211  12.674 -0.7452 -0.2714  1.7253
18645TIP3    H277427   4.835   5.306  12.791  2.0931  0.2813  1.6088
18646TIP3   OH277428   6.598   0.578   2.206  0.5810  0.0391 -0.2379
18646TIP3    H177429   6.600   0.541   2.295  1.2140  0.6153 -0.0086
18646TIP3    H277430   6.628   0.669   2.217  0.2016  0.2581 -0.9714
18647TIP3   OH277431   5.105   1.518  16.235  0.2409  0.3075  0.2575
18647TIP3    H177432   5.122   1.568  16.315 -0.5046 -1.9281  1.8711
18647TIP3    H277433   5.011   1.530  16.218  0.6302  1.7458 -0.9946
18648TIP3   OH277434   3.354   4.505   5.756 -0.0324 -0.1460  0.0561
18648TIP3    H177435   3.303   4.428   5.782  0.2111 -0.5135 -0.5553
18648TIP3    H277436   3.358   4.500   5.661  0.6561  0.1972  0.0655
18649TIP3   OH277437   3.221   3.979  11.019  0.1219  0.3523  0.2629
18649TIP3    H177438   3.183   3.895  11.044  1.1631 -0.4870 -0.8995
18649TIP3    H277439   3.159   4.015  10.956  0.9400 -0.7435 -1.1898
18650TIP3   OH277440   5.101   2.824  13.948  0.0081 -0.1182 -0.0397
18650TIP3    H177441   5.195   2.807  13.942  0.0178  0.1280 -0.6305
18650TIP3    H277442   5.084   2.834  14.042  1.0340  2.4369 -0.0907
18651TIP3   OH277443   2.493   1.202   2.802 -0.0503 -0.0583 -0.5941
18651TIP3    H177444   2.494   1.261   2.877  0.0664 -0.7466 -0.0482
18651TIP3    H277445   2.416   1.228   2.752 -0.1393  0.3891 -0.2285
18652TIP3   OH277446   5.387   2.528   1.601  0.0746  0.6887 -0.4150
18652TIP3    H177447   5.366   2.435   1.602 -2.9135  1.3125  1.3840
18652TIP3    H277448   5.428   2.544   1.685 -2.8577  1.6613  0.8887
18653TIP3   OH277449   1.990   2.948   0.019  0.4002  0.0476 -0.8350
18653TIP3    H177450   2.075   2.989   0.032  1.1715 -1.7716 -0.0463
18653TIP3    H277451   1.927   3.020   0.027  1.7831  1.2341 -0.4926
18654TIP3   OH277452   0.875   2.743  15.787 -0.2116  0.2839 -0.0185
18654TIP3    H177453   0.936   2.673  15.763  0.3016  0.5679  0.4457
18654TIP3    H277454   0.924   2.824  15.771 -2.0757  0.7247 -4.2811
18655TIP3   OH277455   5.215   4.487  12.623  0.1131  0.1602  0.4132
18655TIP3    H177456   5.126   4.491  12.589  0.0979 -2.7038 -0.0538
18655TIP3    H277457   5.253   4.572  12.602 -2.0769  0.9162 -0.6075
18656TIP3   OH277458   1.202   6.441   0.643 -0.5783 -0.2954  0.1308
18656TIP3    H177459   1.189   6.422   0.736 -0.7773  3.7205  1.0043
18656TIP3    H277460   1.120   6.414   0.601 -1.1312 -0.5956  1.3777
18657TIP3   OH277461   0.772   4.800  12.912 -0.0384  0.0898 -0.0502
18657TIP3    H177462   0.837   4.842  12.856 -1.3602  1.8562 -0.2811
18657TIP3    H277463   0.689   4.810  12.866 -0.8108 -0.2894  1.2311
18658TIP3   OH277464   4.641   0.167  15.089  0.1306  0.6472  0.0103
18658TIP3    H177465   4.638   0.246  15.142  0.0821  0.3152  0.5080
18658TIP3    H277466   4.562   0.119  15.113  0.5782  0.0604  0.3234
18659TIP3   OH277467   5.280   0.268   4.957  0.7719  0.8220 -0.4735
18659TIP3    H177468   5.341   0.281   4.885  2.0681  1.4635  0.7254
18659TIP3    H277469   5.271   0.354   4.997  1.2650  0.1816  1.0715
18660TIP3   OH277470   3.597   3.100  13.162  0.0959  0.2751 -0.0833
18660TIP3    H177471   3.599   3.043  13.085  1.4122 -0.5213  0.5211
18660TIP3    H277472   3.533   3.168  13.140  0.0232 -0.2769 -1.6387
18661TIP3   OH277473   1.691   5.705   5.846 -0.2084  0.0061 -0.2955
18661TIP3    H177474   1.642   5.669   5.772 -1.1160  1.9735 -0.6706
18661TIP3    H277475   1.630   5.698   5.920  0.0248 -0.2630 -0.1290
18662TIP3   OH277476   0.131   1.686  10.604  0.4160  0.9657 -0.6868
18662TIP3    H177477   0.077   1.748  10.554 -0.8519  1.1162  0.8029
18662TIP3    H277478   0.215   1.684  10.559  0.4633  3.7606 -0.8117
18663TIP3   OH277479   3.105   2.444  16.262 -0.2891 -0.7540 -0.1292
18663TIP3    H177480   3.174   2.506  16.286 -0.1660 -1.1538  0.5727
18663TIP3    H277481   3.129   2.363  16.308 -0.2807 -1.4180 -1.2810
18664TIP3   OH277482   2.073   3.536   2.770 -0.0427 -0.5989  0.8519
18664TIP3    H177483   2.042   3.471   2.706 -1.6890 -0.1505  1.1525
18664TIP3    H277484   2.001   3.543   2.833  0.3281  1.1308  1.0994
18665TIP3   OH277485   6.480   3.662   2.086 -0.2442 -0.6377 -0.5795
18665TIP3    H177486   6.466   3.570   2.108  0.0098 -0.6580 -0.5099
18665TIP3    H277487   6.471   3.708   2.170 -0.7091 -0.5616 -0.6686
18666TIP3   OH277488   4.559   1.669  13.994  0.3034  0.4355  0.2891
18666TIP3    H177489   4.585   1.632  14.078  1.2746  1.5327  0.4808
18666TIP3    H277490   4.611   1.748  13.985 -0.1110  0.5658 -1.1530
18667TIP3   OH277491   6.214   2.524   2.611  0.4539 -0.1924  0.0813
18667TIP3    H177492   6.154   2.454   2.584  0.2444 -0.3202  0.8634
18667TIP3    H277493   6.301   2.492   2.587  0.3874 -0.8649  0.7429
18668TIP3   OH277494   3.840   5.740  13.639 -0.0780  0.4034  0.4041
18668TIP3    H177495   3.835   5.665  13.699  1.9266  1.1723  1.5774
18668TIP3    H277496   3.768   5.797  13.666  1.3654  1.1865  2.7482
18669TIP3   OH277497   4.924   4.611   4.910  0.4418 -0.4738 -0.0088
18669TIP3    H177498   4.869   4.634   4.985 -1.8769 -1.3417 -1.3485
18669TIP3    H277499   4.986   4.546   4.944 -0.8706 -1.1861  1.0903
18670TIP3   OH277500   5.225   0.972  14.883 -0.1799  0.1515 -0.0748
18670TIP3    H177501   5.134   0.942  14.885  0.4457 -1.8139 -0.4772
18670TIP3    H277502   5.235   1.023  14.964 -1.7078  0.6201 -0.1660
18671TIP3   OH277503   2.385   4.155   6.497  0.5781 -0.6987  0.2558
18671TIP3    H177504   2.376   4.062   6.476  0.7328 -0.6209 -0.1595
18671TIP3    H277505   2.306   4.176   6.545 -0.1483 -0.6930 -0.9287
18672TIP3   OH277506   3.396   4.762  11.091  0.1909  0.0696  0.2208
18672TIP3    H177507   3.331   4.832  11.081 -0.3594 -0.2533  1.5013
18672TIP3    H277508   3.455   4.775  11.017 -1.4173  0.2707 -1.0762
18673TIP3   OH277509   1.084   2.592  17.255 -0.0866  0.5953 -0.1390
18673TIP3    H177510   1.006   2.555  17.297  0.4509  0.5798  0.8575
18673TIP3    H277511   1.099   2.675  17.301  0.1096  0.9005 -0.7607
18674TIP3   OH277512   2.465   3.110   1.174  0.0821  0.0684 -0.1373
18674TIP3    H177513   2.388   3.064   1.139  0.7519  0.0199 -1.5568
18674TIP3    H277514   2.428   3.181   1.228 -0.9504 -1.1230  0.7500
18675TIP3   OH277515   6.320   0.258  13.304 -0.4250 -0.6464  0.2258
18675TIP3    H177516   6.234   0.245  13.264 -0.2707  1.3533 -0.8218
18675TIP3    H277517   6.382   0.247  13.232  0.1417 -1.1868  0.7933
18676TIP3   OH277518   4.739   4.826   4.123  0.3035  0.1000  0.1894
18676TIP3    H177519   4.660   4.819   4.070 -0.4615  1.2126  1.1400
18676TIP3    H277520   4.712   4.876   4.200  1.2880 -1.7830  1.8163
18677TIP3   OH277521   1.267   6.355  12.559  0.0077  0.1434  0.0374
18677TIP3    H177522   1.334   6.405  12.603 -0.6730  0.6237  0.5335
18677TIP3    H277523   1.304   6.335  12.473  1.7420 -1.6875  1.1828
18678TIP3   OH277524   6.777   0.768   4.166  0.2631 -0.2720 -0.0521
18678TIP3    H177525   6.863   0.726   4.176  0.3116  0.0151  0.8469
18678TIP3    H277526   6.773   0.830   4.239 -0.7011 -0.2717 -0.1056
18679TIP3   OH277527   4.905   1.971  16.982 -0.5867 -0.0494 -0.2264
18679TIP3    H177528   4.964   2.036  17.021 -1.2141  1.2939 -1.4566
18679TIP3    H277529   4.936   1.887  17.016  0.4928  0.8465  1.0893
18680TIP3   OH277530   3.032   1.101  14.299  0.2215  0.4250 -0.1678
18680TIP3    H177531   3.123   1.073  14.290 -0.5043 -1.7989 -0.8551
18680TIP3    H277532   2.983   1.045  14.239 -1.8370  0.4226  1.4529
18681TIP3   OH277533   6.652   5.588   4.740 -0.4914  0.0144  0.3764
18681TIP3    H177534   6.729   5.638   4.712 -1.1346  1.3588  0.9731
18681TIP3    H277535   6.684   5.498   4.750  0.4945  0.1340 -1.4955
18682TIP3   OH277536   5.944   1.258   0.386 -0.3280  0.3501 -0.2737
18682TIP3    H177537   5.961   1.165   0.402 -2.4483 -0.0107  0.0585
18682TIP3    H277538   5.849   1.266   0.392 -0.0843  2.7596  0.7845
18683TIP3   OH277539   3.291   3.090   6.237  0.4949  0.0347 -0.0334
18683TIP3    H177540   3.261   3.135   6.316 -0.0417 -0.8741  0.2808
18683TIP3    H277541   3.275   2.998   6.254 -1.4958 -0.0176 -2.0007
18684TIP3   OH277542   5.516   0.741   0.627 -0.3751  0.0859 -0.3151
18684TIP3    H177543   5.424   0.725   0.648 -0.3726 -1.6943 -1.5451
18684TIP3    H277544   5.542   0.810   0.687 -2.4020  0.3319  0.3408
18685TIP3   OH277545   6.166   3.035  14.895 -0.4884 -0.0003  0.3549
18685TIP3    H177546   6.254   3.001  14.913 -0.7637  0.0898  1.9417
18685TIP3    H277547   6.110   2.989  14.958 -1.4304  0.6902  0.0237
18686TIP3   OH277548   0.233   2.929  15.027 -0.4222 -0.0548 -0.2798
18686TIP3    H177549   0.193   2.920  15.114 -1.6808 -1.8855 -1.0193
18686TIP3    H277550   0.159   2.933  14.967  0.4482  1.0045 -1.3041
18687TIP3   OH277551   3.396   3.981   4.426  0.4565  0.8360  0.2808
18687TIP3    H177552   3.391   4.017   4.514  0.9869 -0.7925  0.9984
18687TIP3    H277553   3.312   4.005   4.386 -0.0543  1.0270  1.4420
18688TIP3   OH277554   6.377   5.595  16.032 -0.2747  0.3114 -0.3477
18688TIP3    H177555   6.335   5.661  16.086  2.2520  1.4886  0.2625
18688TIP3    H277556   6.357   5.512  16.075 -0.4488  1.0031  0.9215
18689TIP3   OH277557   5.927   2.863   2.774 -0.4403 -0.4149 -0.3482
18689TIP3    H177558   5.907   2.934   2.713 -1.2640  1.3954  1.9163
18689TIP3    H277559   6.017   2.839   2.755 -0.4048  0.7153 -1.6948
18690TIP3   OH277560   3.309   5.081  13.609 -0.7782 -0.2457  0.7026
18690TIP3    H177561   3.375   5.076  13.679  2.8182  0.4555 -2.4756
18690TIP3    H277562   3.294   4.991  13.583  2.2218 -0.1872 -1.4151
18691TIP3   OH277563   1.925   6.565   5.655  0.8931  0.0805 -0.4682
18691TIP3    H177564   1.906   6.583   5.563 -0.3277  1.2120  0.0077
18691TIP3    H277565   1.980   6.638   5.683  1.6758 -0.5162 -0.4214
18692TIP3   OH277566   1.339   6.422  12.287  0.0985  0.1245  0.4844
18692TIP3    H177567   1.298   6.494  12.240  0.8713  0.6086  0.5474
18692TIP3    H277568   1.433   6.441  12.284  0.1525  0.2465  2.3534
18693TIP3   OH277569   2.911   6.229  12.583 -0.2098 -0.0389 -0.0640
18693TIP3    H177570   2.892   6.228  12.677  1.4819  0.3659  0.2965
18693TIP3    H277571   2.877   6.313  12.553 -2.8090 -1.1041 -0.2920
18694TIP3   OH277572   0.615   6.435   2.431 -0.1787  0.1338 -0.0257
18694TIP3    H177573   0.604   6.349   2.391 -1.5352  0.2029  0.1582
18694TIP3    H277574   0.696   6.469   2.394  0.4071 -1.2482 -0.0417
18695TIP3   OH277575   5.895   1.436  12.463 -0.1921 -0.0173 -0.1404
18695TIP3    H177576   5.950   1.429  12.541 -1.2406 -0.3165  0.5810
18695TIP3    H277577   5.869   1.346  12.444  0.8386 -0.0703 -1.4193
18696TIP3   OH277578   0.183   1.035   2.658  0.1044 -0.2077  0.1406
18696TIP3    H177579   0.121   0.970   2.692  1.0549 -0.1881  1.9808
18696TIP3    H277580   0.129   1.111   2.635 -0.4651  0.1681  2.6365
18697TIP3   OH277581   5.901   5.117  11.083  0.4537 -0.3230  0.7529
18697TIP3    H177582   5.806   5.109  11.091  0.6418 -2.0422  1.3860
18697TIP3    H277583   5.916   5.211  11.080 -1.2730 -0.0273  0.6047
18698TIP3   OH277584   6.289   4.318   1.600  0.0161 -0.1559  0.0999
18698TIP3    H177585   6.371   4.366   1.599  1.7314 -3.0290 -1.1656
18698TIP3    H277586   6.312   4.230   1.628 -2.5226 -1.2069 -0.8953
18699TIP3   OH277587   4.739   3.700   0.145 -0.0977  0.0701 -0.5761
18699TIP3    H177588   4.809   3.725   0.086  0.6808  0.0513  0.3271
18699TIP3    H277589   4.672   3.662   0.089  0.2418  0.8957 -1.5417
18700TIP3   OH277590   5.854   5.543  16.238  0.1355 -0.6279 -0.0408
18700TIP3    H177591   5.827   5.526  16.329  0.6145 -0.1570  0.1952
18700TIP3    H277592   5.815   5.472  16.188 -0.0320 -0.9661  0.5574
18701TIP3   OH277593   4.613   2.908   4.777  0.4616 -0.1860  0.7664
18701TIP3    H177594   4.703   2.938   4.763  0.4844 -0.4754  0.2972
18701TIP3    H277595   4.558   2.980   4.744  0.5108 -1.0181 -1.1964
18702TIP3   OH277596   4.364   6.448   5.547 -0.1151 -0.1178 -0.0346
18702TIP3    H177597   4.343   6.542   5.550 -0.1074  0.0006 -2.6748
18702TIP3    H277598   4.328   6.414   5.629  1.2695  2.4464  1.7187
18703TIP3   OH277599   4.760   1.670  11.131 -0.3108  0.4129  0.8137
18703TIP3    H177600   4.784   1.746  11.077  1.1563 -1.0110 -0.6331
18703TIP3    H277601   4.716   1.611  11.070  4.5531 -2.8217  0.1253
18704TIP3   OH277602   0.005   4.896   3.747  0.4422 -0.2210 -0.3665
18704TIP3    H177603  -0.027   4.825   3.803  1.0570  0.0181  0.2780
18704TIP3    H277604   0.100   4.883   3.743  0.5311  0.4504 -0.4208
18705TIP3   OH277605   4.209   4.950  10.455 -0.5842 -0.2907 -0.3576
18705TIP3    H177606   4.119   4.930  10.481 -0.3894  0.5701  0.9615
18705TIP3    H277607   4.206   5.041  10.425 -0.2488 -0.4241 -0.8136
18706TIP3   OH277608   3.848   2.204  13.902  0.3024  0.6454  0.1985
18706TIP3    H177609   3.914   2.226  13.968  1.1296  0.1162 -0.4468
18706TIP3    H277610   3.832   2.286  13.856  0.9316  0.6470 -0.0202
18707TIP3   OH277611   1.871   0.896  14.240 -0.0031 -0.0822  0.1435
18707TIP3    H177612   1.873   0.826  14.175 -0.6042 -0.3232  0.3823
18707TIP3    H277613   1.927   0.864  14.311 -2.1371 -1.3613  1.2967
18708TIP3   OH277614   1.476   1.483   2.938  0.0970 -0.1249  0.2322
18708TIP3    H177615   1.387   1.449   2.946  0.4301 -1.2822 -0.7846
18708TIP3    H277616   1.525   1.437   3.006 -0.2909  1.2764  1.4754
18709TIP3   OH277617   2.890   4.176  12.816 -0.6543  0.3419  0.4139
18709TIP3    H177618   2.937   4.124  12.881 -0.6630  0.2631  0.3572
18709TIP3    H277619   2.798   4.155  12.830 -0.6291  0.0147  0.1106
18710TIP3   OH277620   4.682   1.238  10.699  0.2159 -0.1478  0.2928
18710TIP3    H177621   4.628   1.261  10.774  0.9207  0.5159  0.5995
18710TIP3    H277622   4.701   1.321  10.656  0.3090 -0.4614 -0.2853
18711TIP3   OH277623   5.520   0.994  12.474 -0.4414 -0.1874 -0.2164
18711TIP3    H177624   5.505   1.038  12.557  0.5771 -0.5378  0.1654
18711TIP3    H277625   5.472   0.911  12.481 -1.1087  0.1909 -0.3389
18712TIP3   OH277626   3.906   6.424  13.087  0.2637 -0.1655  0.0909
18712TIP3    H177627   3.858   6.401  13.167  4.0282 -0.0707  2.5082
18712TIP3    H277628   3.991   6.380  13.097  1.9738  2.4482 -2.3696
18713TIP3   OH277629   5.053   3.206  14.917  0.0947  0.0117  0.4459
18713TIP3    H177630   5.125   3.146  14.935  1.5228  1.7279  0.5278
18713TIP3    H277631   5.049   3.262  14.995 -1.2333  0.0394  0.3762
18714TIP3   OH277632   1.433   6.168  16.736  0.1970  0.5041 -0.0201
18714TIP3    H177633   1.473   6.119  16.664 -1.0911  2.4424 -2.1029
18714TIP3    H277634   1.421   6.257  16.702 -1.8059  1.0960  2.0787
18715TIP3   OH277635   0.547   1.083   2.843 -0.0820 -0.0924  0.0238
18715TIP3    H177636   0.484   1.014   2.867 -0.1328  0.0589  0.3253
18715TIP3    H277637   0.495   1.144   2.791 -0.3339  0.3316  0.7568
18716TIP3   OH277638   3.006   3.393   0.723 -0.0242 -0.1134  0.5251
18716TIP3    H177639   3.061   3.424   0.796 -1.5797  1.3945  1.0959
18716TIP3    H277640   2.941   3.337   0.765 -0.3806  0.0436  0.1803
18717TIP3   OH277641   2.297   6.661  15.253  0.8789 -0.8271 -0.2102
18717TIP3    H177642   2.343   6.743  15.238 -0.8330  0.4371  1.1691
18717TIP3    H277643   2.231   6.657  15.184  0.9091 -0.9820 -0.2299
18718TIP3   OH277644   2.585   2.673   2.025  0.1798 -0.3111 -0.0492
18718TIP3    H177645   2.648   2.686   2.096 -1.6984  0.8955  1.4355
18718TIP3    H277646   2.637   2.636   1.954  2.4294 -0.0012  1.3779
18719TIP3   OH277647   3.638   5.359  16.458  0.0240  0.0438  0.1020
18719TIP3    H177648   3.642   5.367  16.553 -2.9461  0.0706  0.2602
18719TIP3    H277649   3.657   5.447  16.425 -2.2969  0.8478  0.8161
18720TIP3   OH277650   0.819   4.926   5.930 -0.4398  0.5509  0.5225
18720TIP3    H177651   0.848   4.913   5.839  1.0596 -1.3281  1.2262
18720TIP3    H277652   0.749   4.861   5.941 -0.1990  0.3550  0.8885
18721TIP3   OH277653   5.880   5.926   3.917 -0.3807 -0.3627 -0.1789
18721TIP3    H177654   5.897   5.892   4.005  0.0428  3.5406  1.3382
18721TIP3    H277655   5.966   5.929   3.875 -0.6957 -3.0774 -1.1305
18722TIP3   OH277656   0.053   1.310  15.428 -0.1750  0.5315 -0.5402
18722TIP3    H177657   0.027   1.223  15.458  0.5982  0.6619  0.5543
18722TIP3    H277658   0.029   1.369  15.501  0.5326  1.0387 -0.7085
18723TIP3   OH277659   5.653   2.784   1.478 -0.5707  0.3559  0.1268
18723TIP3    H177660   5.656   2.746   1.566 -1.9312  1.4491  0.6668
18723TIP3    H277661   5.607   2.867   1.490  1.8260  1.9257 -1.1076
18724TIP3   OH277662   1.562   6.733   6.240 -0.2898 -0.8109 -0.6657
18724TIP3    H177663   1.513   6.781   6.306  0.2634 -0.1028 -0.7663
18724TIP3    H277664   1.618   6.673   6.291 -0.3944 -0.7862 -0.5204
18725TIP3   OH277665   4.100   6.630   3.949 -0.2228  0.6747  0.2406
18725TIP3    H177666   4.069   6.547   3.986 -0.4821  0.4487 -0.4736
18725TIP3    H277667   4.164   6.662   4.012 -1.3325  0.7537  1.3477
18726TIP3   OH277668   3.813   3.497  15.062 -0.3933 -0.5136  0.0403
18726TIP3    H177669   3.864   3.576  15.076 -0.5824 -0.2590 -0.6943
18726TIP3    H277670   3.817   3.450  15.146  0.8446 -0.3871  0.0591
18727TIP3   OH277671   4.620   5.210  12.085 -0.2351  0.1173  0.1005
18727TIP3    H177672   4.709   5.190  12.112 -0.1007 -0.9836 -1.1181
18727TIP3    H277673   4.619   5.195  11.990 -1.3414  1.5157 -0.1373
18728TIP3   OH277674   0.849   2.309  14.951  0.4993 -0.2753 -0.2224
18728TIP3    H177675   0.814   2.220  14.945  3.2532 -1.3352 -0.8423
18728TIP3    H277676   0.819   2.339  15.037 -1.3702 -1.3590 -0.4408
18729TIP3   OH277677   2.892   2.462   3.772  0.7665  0.2465  0.5510
18729TIP3    H177678   2.977   2.499   3.793  0.8635 -0.9350  2.3528
18729TIP3    H277679   2.899   2.434   3.681  1.2319  3.0564 -0.3200
18730TIP3   OH277680   4.036   5.600   1.192  0.3481 -0.2555 -0.3757
18730TIP3    H177681   3.943   5.618   1.204  0.7569  4.4556 -3.0174
18730TIP3    H277682   4.040   5.552   1.110  0.2798  0.7925 -1.0109
18731TIP3   OH277683   0.636   4.161  12.707 -0.1069  0.2225  0.1496
18731TIP3    H177684   0.559   4.159  12.764  0.4093  0.3217  0.8590
18731TIP3    H277685   0.611   4.108  12.631 -1.2884  1.1874 -0.1672
18732TIP3   OH277686   2.105   6.263  12.111 -0.2204  0.2302 -0.3878
18732TIP3    H177687   2.137   6.175  12.092 -0.9916  0.0370 -0.7829
18732TIP3    H277688   2.172   6.321  12.072  1.1015 -0.1590  1.2436
18733TIP3   OH277689   2.113   0.883   4.967 -0.1564 -0.0808  0.0511
18733TIP3    H177690   2.075   0.964   4.999  1.5117  0.1751  1.4873
18733TIP3    H277691   2.205   0.905   4.951 -0.4839 -0.7105 -3.1562
18734TIP3   OH277692   1.795   6.700   6.471 -0.3088  0.2939  1.0121
18734TIP3    H177693   1.750   6.677   6.552 -0.9034 -0.7097  0.4083
18734TIP3    H277694   1.770   6.791   6.455 -1.1953  0.1044  1.2980
18735TIP3   OH277695   4.087   5.752  16.724 -0.1387 -0.6881  0.0682
18735TIP3    H177696   4.025   5.682  16.706  1.3919 -2.0465 -0.0016
18735TIP3    H277697   4.147   5.752  16.649 -0.4820  1.1094 -0.2363
18736TIP3   OH277698   4.434   2.696   1.540 -0.2869 -0.7504  0.3555
18736TIP3    H177699   4.508   2.639   1.560  0.9877  0.7138 -0.0708
18736TIP3    H277700   4.465   2.784   1.564 -2.4539 -0.3100  1.6596
18737TIP3   OH277701   0.943   0.858   4.953  0.2320 -0.2297  0.0384
18737TIP3    H177702   0.879   0.895   5.014  1.7582  0.1583  1.4583
18737TIP3    H277703   0.907   0.773   4.929 -0.8261 -0.0069  0.7810
18738TIP3   OH277704   3.706   0.716   1.083  0.7630 -0.5242 -0.0766
18738TIP3    H177705   3.638   0.766   1.037  1.9390  1.0489 -0.1377
18738TIP3    H277706   3.684   0.625   1.065  0.8585  0.0219 -3.3143
18739TIP3   OH277707   2.063   4.576   1.220 -0.2153  0.1077  0.1027
18739TIP3    H177708   2.092   4.550   1.307  0.7648  0.8041 -0.0157
18739TIP3    H277709   2.071   4.497   1.167  1.3994  0.2644  0.0884
18740TIP3   OH277710   6.608   3.061   3.261  0.3351 -0.5654 -0.0128
18740TIP3    H177711   6.593   3.027   3.349 -1.6179  0.1746 -0.0503
18740TIP3    H277712   6.530   3.037   3.211  0.1878  1.4288 -0.8086
18741TIP3   OH277713   6.628   0.211   3.679 -0.0211 -0.4340  0.2668
18741TIP3    H177714   6.535   0.215   3.700 -0.3322  3.1916 -1.3303
18741TIP3    H277715   6.631   0.172   3.592 -0.1424  0.1815 -0.0191
18742TIP3   OH277716   2.963   4.309   3.430 -0.1569 -0.5391  0.5533
18742TIP3    H177717   2.938   4.365   3.357  0.8020 -1.2374 -0.3247
18742TIP3    H277718   2.897   4.327   3.498 -1.4752 -0.4316 -0.7377
18743TIP3   OH277719   5.510   5.297  12.034 -0.1801  0.5980  0.7572
18743TIP3    H177720   5.444   5.331  12.094  0.2548 -1.0501  2.1884
18743TIP3    H277721   5.523   5.206  12.060  1.4644  0.4196 -0.5559
18744TIP3   OH277722   1.826   3.652  14.110 -0.3529  0.1145 -0.3105
18744TIP3    H177723   1.784   3.636  14.026 -0.6890 -0.3175 -0.0591
18744TIP3    H277724   1.823   3.568  14.155  1.2195 -0.0602 -0.4812
18745TIP3   OH277725   4.171   5.542   3.378  0.3763 -0.4098  0.0489
18745TIP3    H177726   4.259   5.505   3.378  0.9156  0.8673  0.4728
18745TIP3    H277727   4.136   5.521   3.292 -0.2384 -4.0250  1.0707
18746TIP3   OH277728   4.474   0.290   4.267 -0.3501 -0.3101 -0.1820
18746TIP3    H177729   4.410   0.323   4.204 -0.5168  0.6676  0.4830
18746TIP3    H277730   4.530   0.230   4.217 -1.8143 -1.2078 -0.7532
18747TIP3   OH277731   2.713   0.326   5.267 -0.0537 -0.2354 -0.1790
18747TIP3    H177732   2.718   0.244   5.218  0.2439 -0.7497  0.6965
18747TIP3    H277733   2.646   0.378   5.221 -0.4737 -1.0986 -0.5493
18748TIP3   OH277734   6.472   4.374  10.189 -0.4882  0.2804  0.1896
18748TIP3    H177735   6.503   4.464  10.186 -2.2667  1.0491  2.7992
18748TIP3    H277736   6.379   4.380  10.167 -0.2359 -1.1693 -1.3847
18749TIP3   OH277737   6.119   0.287   2.773  0.5468 -0.0240  0.1565
18749TIP3    H177738   6.068   0.312   2.850  0.8066 -1.7037  0.8876
18749TIP3    H277739   6.177   0.362   2.757  1.3345 -0.1466  2.3209
18750TIP3   OH277740   3.298   6.182  17.173 -0.1626  0.1328 -0.7071
18750TIP3    H177741   3.392   6.175  17.155 -0.3956 -1.0168 -1.5394
18750TIP3    H277742   3.287   6.141  17.258  0.2191  1.0775 -0.1986
18751TIP3   OH277743   4.414   6.261   2.192  0.2582 -0.3153  0.1741
18751TIP3    H177744   4.343   6.216   2.238  0.0761  0.0714  0.2827
18751TIP3    H277745   4.436   6.204   2.119  1.6051 -1.6725  1.6185
18752TIP3   OH277746   5.710   6.665  15.920 -0.5170 -0.0502 -0.0018
18752TIP3    H177747   5.764   6.664  15.999  0.4806  0.5824 -0.6641
18752TIP3    H277748   5.657   6.745  15.928 -1.2410 -0.5760  0.5589
18753TIP3   OH277749   5.593   5.975  12.378 -0.1602 -0.3243  0.0063
18753TIP3    H177750   5.623   6.018  12.297  1.9931 -0.0005  0.9500
18753TIP3    H277751   5.547   5.897  12.347 -0.1145  0.2343 -1.5596
18754TIP3   OH277752   2.168   0.261  11.042  0.0759  0.4239  0.3452
18754TIP3    H177753   2.218   0.200  11.096  2.1491  0.8111 -1.0833
18754TIP3    H277754   2.146   0.211  10.963  0.4287  1.0357 -0.1449
18755TIP3   OH277755   5.306   4.784   5.047  0.0335 -0.1905  0.2526
18755TIP3    H177756   5.336   4.707   5.096 -0.5019  0.2387  1.2694
18755TIP3    H277757   5.386   4.834   5.032  0.1909 -0.2706  0.7925
18756TIP3   OH277758   3.636   5.411  13.636  0.2559 -0.3531 -0.0806
18756TIP3    H177759   3.633   5.432  13.730 -0.9713  0.6642 -0.3295
18756TIP3    H277760   3.692   5.480  13.598 -1.0002  0.5056 -0.3999
18757TIP3   OH277761   4.326   5.171   5.649  0.0969 -0.3354  0.1737
18757TIP3    H177762   4.254   5.108   5.649 -1.0895  0.9322 -2.4597
18757TIP3    H277763   4.385   5.140   5.579  0.4860  0.3887  0.1696
18758TIP3   OH277764   1.061   5.638  16.196 -0.0931  0.3168  0.4425
18758TIP3    H177765   1.040   5.555  16.239  1.4342  1.5936  3.7897
18758TIP3    H277766   1.113   5.613  16.120 -1.5524 -1.8965  0.1161
18759TIP3   OH277767   2.303   0.009  16.690 -0.0480 -0.0686 -0.2345
18759TIP3    H177768   2.357   0.058  16.628 -0.8324  0.2012 -0.6985
18759TIP3    H277769   2.242  -0.041  16.636  0.7979 -1.6395  0.2360
18760TIP3   OH277770   3.743   3.352   0.915 -0.1515 -0.2688 -0.3996
18760TIP3    H177771   3.775   3.285   0.976 -0.0350 -0.4016 -0.6081
18760TIP3    H277772   3.691   3.304   0.851 -0.7229 -0.0609 -0.0992
18761TIP3   OH277773   5.574   6.184  14.467  0.0953  0.5591 -0.0374
18761TIP3    H177774   5.545   6.145  14.384 -0.7881 -1.8334  1.3275
18761TIP3    H277775   5.669   6.177  14.464 -0.0405 -2.4178  0.4244
18762TIP3   OH277776   3.951   4.521  16.401 -0.7750  0.5492  1.1619
18762TIP3    H177777   4.001   4.561  16.472 -1.3467 -0.9131  2.4189
18762TIP3    H277778   3.887   4.588  16.377  1.1288  2.0575  0.1998
18763TIP3   OH277779   3.839   4.761  15.298  0.4435 -0.3215  0.5738
18763TIP3    H177780   3.897   4.716  15.360  0.1800  2.1958  2.7422
18763TIP3    H277781   3.896   4.782  15.224  1.4052 -1.1010  1.0654
18764TIP3   OH277782   5.180   5.053   3.229  0.1627  0.6289 -0.0288
18764TIP3    H177783   5.131   4.982   3.271  3.2701 -1.4424  0.2760
18764TIP3    H277784   5.194   5.023   3.140  4.3850 -0.8011  1.0065
18765TIP3   OH277785   0.201   6.636   2.634 -0.7448 -0.0996 -0.4227
18765TIP3    H177786   0.117   6.678   2.648  0.0156  1.2472  0.1764
18765TIP3    H277787   0.248   6.693   2.573 -0.0785 -0.5821 -0.3788
18766TIP3   OH277788   4.459   4.065   2.650  0.2740 -0.1305 -0.1899
18766TIP3    H177789   4.485   4.120   2.725  0.3814  2.3461 -1.9922
18766TIP3    H277790   4.541   4.029   2.617  0.4804  0.6150 -0.5004
18767TIP3   OH277791   3.914   2.418  15.740  0.1150 -0.3666 -0.5440
18767TIP3    H177792   3.908   2.327  15.769 -0.7150  0.3490  1.6210
18767TIP3    H277793   3.998   2.448  15.776 -1.0839  0.6298  1.4900
18768TIP3   OH277794   4.926   3.442   3.854  0.0093  0.1282  0.2682
18768TIP3    H177795   4.880   3.471   3.933  0.4563 -2.1490  1.4248
18768TIP3    H277796   5.014   3.419   3.885  0.1762 -0.8244 -0.8965
18769TIP3   OH277797   0.396   6.297   4.451 -0.8122  0.4958 -0.3072
18769TIP3    H177798   0.457   6.232   4.414 -0.2732  1.7132 -1.5799
18769TIP3    H277799   0.310   6.256   4.443 -0.6656  0.5323 -2.5518
18770TIP3   OH277800   6.340   1.763  14.839  0.3525 -0.1167 -0.0414
18770TIP3    H177801   6.388   1.824  14.896 -0.3976  0.7935 -0.3618
18770TIP3    H277802   6.397   1.687  14.833  0.7844  0.0798  1.3096
18771TIP3   OH277803   0.333   5.663  13.703  0.1643 -0.1598 -0.1363
18771TIP3    H177804   0.400   5.640  13.768 -1.5473  0.8439  2.0698
18771TIP3    H277805   0.286   5.581  13.688 -0.6552 -0.0031  1.4060
18772TIP3   OH277806   1.941   2.449   5.505 -0.7834 -0.0173 -0.2943
18772TIP3    H177807   1.919   2.400   5.426 -2.0339  0.9771 -0.5862
18772TIP3    H277808   1.857   2.480   5.539 -0.1470  0.7214  0.6654
18773TIP3   OH277809   4.329   5.503   1.374  0.3233 -0.0862  0.0676
18773TIP3    H177810   4.256   5.519   1.433 -0.1055 -0.0789 -0.4600
18773TIP3    H277811   4.336   5.584   1.322  0.3604 -0.2944 -0.2507
18774TIP3   OH277812   5.880   6.471   5.098  0.7129 -0.3548 -0.5611
18774TIP3    H177813   5.920   6.404   5.155 -1.6615 -1.9740 -0.7459
18774TIP3    H277814   5.886   6.434   5.010  0.8960  0.4386 -0.8818
18775TIP3   OH277815   4.728   2.940   5.998 -0.2765 -0.1238 -0.6389
18775TIP3    H177816   4.639   2.908   5.990  0.3346 -2.1733  0.4324
18775TIP3    H277817   4.726   2.996   6.076 -0.9871  1.1807 -1.5830
18776TIP3   OH277818   5.147   5.728   1.914 -0.2207 -0.2141 -0.1057
18776TIP3    H177819   5.106   5.657   1.963 -0.1064 -0.9072 -0.9839
18776TIP3    H277820   5.192   5.683   1.842  1.4998  0.5689  0.4394
18777TIP3   OH277821   4.662   0.510   3.101  0.0731 -0.3870  0.0443
18777TIP3    H177822   4.652   0.415   3.109 -0.8452 -0.1696  1.9137
18777TIP3    H277823   4.611   0.545   3.174  2.0934  1.4707  0.6185
18778TIP3   OH277824   2.257   0.361   5.649  0.0862  0.7138  1.1197
18778TIP3    H177825   2.195   0.351   5.721  0.3575 -1.0211  1.1459
18778TIP3    H277826   2.306   0.279   5.648 -0.3195  0.4379 -1.4147
18779TIP3   OH277827   5.731   4.380   4.774  0.2218  0.1233 -0.0817
18779TIP3    H177828   5.731   4.468   4.736  0.2733 -0.3242 -1.1169
18779TIP3    H277829   5.804   4.381   4.836 -1.6059  1.7715  2.1770
18780TIP3   OH277830   6.522   2.512  16.041 -0.0470  0.1892 -0.3632
18780TIP3    H177831   6.576   2.445  15.999 -0.0847 -0.0120 -0.0879
18780TIP3    H277832   6.438   2.507  15.996 -0.5288 -0.9491  0.6532
18781TIP3   OH277833   6.777   1.697  14.321 -0.5738 -0.1427  0.4389
18781TIP3    H177834   6.866   1.663  14.331 -1.1319 -1.4835  0.8927
18781TIP3    H277835   6.777   1.739  14.235  0.9318  1.2185  1.0824
18782TIP3   OH277836   0.665   5.820   4.804 -0.5078 -0.0616 -0.0432
18782TIP3    H177837   0.635   5.893   4.859  0.8501  1.1753 -0.8806
18782TIP3    H277838   0.662   5.744   4.861  0.4463  1.1222  1.6455
18783TIP3   OH277839   4.126   3.289  12.392 -0.5115 -0.3868  0.1066
18783TIP3    H177840   4.192   3.355  12.370 -1.2244  0.1727 -0.3696
18783TIP3    H277841   4.060   3.337  12.442 -0.7710 -0.8528  0.2147
18784TIP3   OH277842   2.439   6.451   2.353  0.1821  0.1546 -0.7764
18784TIP3    H177843   2.514   6.501   2.386 -0.2021  0.3375 -0.1755
18784TIP3    H277844   2.466   6.422   2.266  0.5758  1.0657 -0.9640
18785TIP3   OH277845   5.202   0.660   6.724  0.1456 -0.1565  0.1816
18785TIP3    H177846   5.250   0.587   6.765 -1.6717 -2.8945 -2.3562
18785TIP3    H277847   5.268   0.703   6.669  1.7884  1.5822  3.3473
18786TIP3   OH277848   5.244   0.199  17.146  0.3496  0.4005  0.0779
18786TIP3    H177849   5.332   0.166  17.162  0.4163  0.3315 -0.4214
18786TIP3    H277850   5.242   0.218  17.052  0.8049  3.2638  0.5996
18787TIP3   OH277851   1.613   0.477  16.935 -0.4623  0.2263  0.2537
18787TIP3    H177852   1.551   0.508  16.869 -0.9809  1.9898  1.5362
18787TIP3    H277853   1.560   0.423  16.994 -0.4231  0.3608  0.4112
18788TIP3   OH277854   5.674   1.315   1.692  0.3249  0.2978 -0.3705
18788TIP3    H177855   5.714   1.300   1.778 -0.2468 -1.0717 -0.3410
18788TIP3    H277856   5.683   1.232   1.646 -2.1075  0.0992 -0.5222
18789TIP3   OH277857   5.434   4.656  13.965  0.3414 -0.4678  0.2732
18789TIP3    H177858   5.461   4.718  14.034  1.0991 -0.3071 -0.1697
18789TIP3    H277859   5.341   4.640  13.984  0.3976  0.0022  1.0099
18790TIP3   OH277860   4.841   0.648   6.127  0.7423  0.1770  0.4367
18790TIP3    H177861   4.779   0.687   6.189  0.2650  1.8689 -1.0563
18790TIP3    H277862   4.804   0.667   6.041  1.3779 -2.1936 -0.3930
18791TIP3   OH277863   0.916   4.048   5.356  0.1439 -0.3434 -0.9305
18791TIP3    H177864   0.999   4.031   5.401  0.1671  0.3357 -0.7098
18791TIP3    H277865   0.859   3.976   5.384  0.3114 -0.1930 -0.1887
18792TIP3   OH277866   4.965   5.804   5.979  0.2614  0.2434 -0.5361
18792TIP3    H177867   4.953   5.796   5.885  1.4716 -2.2284 -0.5326
18792TIP3    H277868   4.897   5.746   6.016 -0.0254  0.9779  0.1035
18793TIP3   OH277869   4.564   1.381  16.277 -0.0173  0.4999  0.1200
18793TIP3    H177870   4.516   1.337  16.207 -0.0795  0.6257  0.0801
18793TIP3    H277871   4.653   1.388  16.245  0.1885 -0.3920  0.5004
18794TIP3   OH277872   1.107   1.759  15.551 -0.4140  0.2270 -0.1378
18794TIP3    H177873   1.078   1.699  15.482  1.3339 -2.0342  1.0327
18794TIP3    H277874   1.199   1.777  15.531 -0.1272  0.2204  1.1100
18795TIP3   OH277875   3.123   1.057   4.594  0.2917 -0.5059  0.0012
18795TIP3    H177876   3.035   1.085   4.622 -0.2035 -2.5475  0.5579
18795TIP3    H277877   3.132   1.093   4.506 -1.7524 -1.6112 -0.6987
18796TIP3   OH277878   1.913   4.832   1.467 -0.4863  0.1008  0.1079
18796TIP3    H177879   1.865   4.898   1.517 -0.2729  0.3422 -0.0071
18796TIP3    H277880   1.850   4.798   1.404 -1.2246 -1.3085  1.5587
18797TIP3   OH277881   1.827   1.485  13.438 -0.4925 -0.3742 -0.6278
18797TIP3    H177882   1.747   1.474  13.386 -0.4897 -1.5365 -0.3952
18797TIP3    H277883   1.894   1.439  13.388  0.0770  0.7647 -0.9173
18798TIP3   OH277884   1.247   5.453   4.298 -0.3883  1.0371  0.3243
18798TIP3    H177885   1.228   5.475   4.207 -0.7605 -0.0573  0.1275
18798TIP3    H277886   1.181   5.500   4.349 -0.7954  0.8536 -0.0383
18799TIP3   OH277887   4.993   3.393   4.796 -0.3722  0.0500  0.1377
18799TIP3    H177888   5.017   3.339   4.721 -0.1864 -0.0169  0.2457
18799TIP3    H277889   4.927   3.453   4.762 -2.4544 -1.9168  0.6053
18800TIP3   OH277890   0.898   5.720   3.980  0.2838 -0.4533  0.3178
18800TIP3    H177891   0.934   5.799   4.020 -1.0971  0.7644 -0.7608
18800TIP3    H277892   0.806   5.722   4.004  0.3439 -1.9817  0.6582
18801TIP3   OH277893   0.611   4.789   5.471  0.3233 -0.0371  0.1522
18801TIP3    H177894   0.584   4.874   5.506 -0.9135 -0.8932  1.3199
18801TIP3    H277895   0.692   4.768   5.516  0.0881  0.0573  0.6197
18802TIP3   OH277896   1.164   2.372  11.914  0.1984 -0.3436 -0.0831
18802TIP3    H177897   1.152   2.386  12.008  1.7366  1.1183 -0.0802
18802TIP3    H277898   1.252   2.406  11.896  0.2275 -1.3397 -1.9058
18803TIP3   OH277899   1.266   0.578  13.084 -0.3005  0.2549 -0.1056
18803TIP3    H177900   1.318   0.587  13.164 -0.9354  0.3467  0.2956
18803TIP3    H277901   1.329   0.548  13.018 -0.2160 -1.9296  0.9352
18804TIP3   OH277902   6.592   5.931   4.967  0.2659  0.3338 -0.0682
18804TIP3    H177903   6.587   6.017   5.008 -0.0552 -0.2867  1.2120
18804TIP3    H277904   6.668   5.889   5.007 -0.7211 -0.7080  0.7620
18805TIP3   OH277905   0.395   4.024  12.753 -0.1834  0.6738  0.0600
18805TIP3    H177906   0.401   3.991  12.843 -0.0178  0.0388 -0.1776
18805TIP3    H277907   0.339   4.101  12.759 -1.5043 -0.2886  0.4662
18806TIP3   OH277908   2.584   3.279   3.933 -0.0253  0.0777 -0.4721
18806TIP3    H177909   2.570   3.193   3.892 -1.3041  0.7536 -1.4892
18806TIP3    H277910   2.627   3.331   3.866  1.3489  0.0482  0.3763
18807TIP3   OH277911   0.175   0.496   4.439  0.0747 -0.3626  0.2280
18807TIP3    H177912   0.270   0.484   4.448  0.3252  1.6690  0.4263
18807TIP3    H277913   0.165   0.555   4.365 -0.9391  1.0740  1.4929
18808TIP3   OH277914   6.706   3.965  13.917  0.3529  0.2631 -0.1250
18808TIP3    H177915   6.792   4.005  13.909  0.0290  0.6188 -1.9511
18808TIP3    H277916   6.650   4.016  13.858 -0.6616 -1.1890 -0.4355
18809TIP3   OH277917   5.148   5.291  16.887 -0.3852 -0.4398 -0.0549
18809TIP3    H177918   5.086   5.235  16.935 -0.8752  0.7467  0.7161
18809TIP3    H277919   5.131   5.379  16.920  0.7485  0.0965 -0.8791
18810TIP3   OH277920   6.062   0.063  10.667  0.8693  0.1259 -0.4280
18810TIP3    H177921   6.090   0.042  10.577 -1.0569 -1.5091 -0.6851
18810TIP3    H277922   6.036  -0.021  10.704 -1.7919  1.2811  0.4306
18811TIP3   OH277923   0.319   1.451   0.291 -0.5268 -0.6368  0.4628
18811TIP3    H177924   0.355   1.407   0.367  0.3309  1.0139  1.0313
18811TIP3    H277925   0.263   1.520   0.328 -1.7054 -1.1087 -0.4071
18812TIP3   OH277926   0.103   0.398  12.755  0.1315 -0.2316  0.6277
18812TIP3    H177927   0.054   0.316  12.747  0.9763 -0.7097  0.2568
18812TIP3    H277928   0.089   0.443  12.672 -2.1407  1.0274  1.6686
18813TIP3   OH277929   2.955   2.477   2.169 -0.1904 -0.1587 -0.2883
18813TIP3    H177930   3.015   2.512   2.103  0.7141 -1.3679 -0.1153
18813TIP3    H277931   2.978   2.525   2.249 -1.0335  1.0367 -0.7403
18814TIP3   OH277932   2.121   0.293   4.658  0.5110 -0.0914 -0.2344
18814TIP3    H177933   2.027   0.290   4.646  0.3464  3.0172 -0.0799
18814TIP3    H277934   2.136   0.370   4.713  3.1217 -0.6999 -0.0100
18815TIP3   OH277935   5.697   6.414   3.428 -0.3620 -0.7726  0.7034
18815TIP3    H177936   5.691   6.480   3.359  0.4349  0.1855  1.5391
18815TIP3    H277937   5.634   6.347   3.402 -1.8155  0.7138  0.2869
18816TIP3   OH277938   5.819   4.197   5.731 -0.6808  0.1966  0.0368
18816TIP3    H177939   5.821   4.285   5.767  0.4658  0.0365  0.3799
18816TIP3    H277940   5.756   4.150   5.786 -0.2923  0.4380  0.6886
18817TIP3   OH277941   6.398   6.702   3.621 -0.3944 -0.1388 -0.5985
18817TIP3    H177942   6.411   6.768   3.689  0.2004  0.0224 -0.8700
18817TIP3    H277943   6.485   6.685   3.586 -0.7768  0.2351 -1.7480
18818TIP3   OH277944   3.114   5.249   0.312 -0.3511 -0.4704  0.3968
18818TIP3    H177945   3.125   5.268   0.218  0.5142  2.7028  1.0738
18818TIP3    H277946   3.035   5.297   0.337  0.0597 -0.3751  1.5383
18819TIP3   OH277947   0.319   2.232  12.431 -0.5491  0.4258 -0.7109
18819TIP3    H177948   0.232   2.196  12.449 -0.9038  0.9175 -1.4284
18819TIP3    H277949   0.380   2.169  12.470 -1.1937 -0.5155 -1.2251
18820TIP3   OH277950   2.774   6.602  16.481  0.1025  0.2592 -0.5184
18820TIP3    H177951   2.724   6.663  16.537 -0.5736 -0.6954 -0.0768
18820TIP3    H277952   2.864   6.633  16.489 -0.5175  2.6284 -2.1274
18821TIP3   OH277953   0.444   4.181   2.384  0.0885  0.1565 -0.3202
18821TIP3    H177954   0.425   4.087   2.388  0.3561  0.1165  0.0096
18821TIP3    H277955   0.456   4.207   2.475 -1.1017  0.7452 -0.3218
18822TIP3   OH277956   4.694   6.610   0.432  0.1779 -0.2866  0.1272
18822TIP3    H177957   4.609   6.653   0.428  0.7388  0.9415  0.9406
18822TIP3    H277958   4.698   6.573   0.521  0.9315  0.6022  0.4650
18823TIP3   OH277959   5.711   3.678  13.778 -0.4561 -0.6792  0.1027
18823TIP3    H177960   5.633   3.719  13.816 -0.3460 -0.2942 -0.0793
18823TIP3    H277961   5.742   3.617  13.845  0.1940  0.5834  0.9770
18824TIP3   OH277962   3.536   6.599   1.878  0.0913 -0.5415  0.0335
18824TIP3    H177963   3.477   6.674   1.883  2.6021  1.4915 -0.2051
18824TIP3    H277964   3.540   6.578   1.784  0.5372 -0.0465 -0.0571
18825TIP3   OH277965   0.632   0.084   1.687  0.1348  0.0444 -0.0390
18825TIP3    H177966   0.552   0.037   1.663  1.1832 -1.3230 -0.9047
18825TIP3    H277967   0.644   0.149   1.619  2.2178 -2.7603 -2.4819
18826TIP3   OH277968   4.824   1.168   5.768 -0.4982  0.2778 -0.0971
18826TIP3    H177969   4.793   1.081   5.793 -0.9474  0.3285 -0.4590
18826TIP3    H277970   4.754   1.203   5.713 -0.2958  0.8483  0.0059
18827TIP3   OH277971   4.500   3.041   0.470  0.3054 -0.5053 -0.1197
18827TIP3    H177972   4.507   2.957   0.515 -0.4030 -0.8146 -0.5809
18827TIP3    H277973   4.406   3.054   0.457  0.4311  0.1775 -0.3910
18828TIP3   OH277974   1.975   2.366   1.974 -0.4655  0.3354 -0.3371
18828TIP3    H177975   1.985   2.454   1.938  0.6255  0.5564  0.4695
18828TIP3    H277976   1.933   2.380   2.058 -0.6014  0.0546 -0.3604
18829TIP3   OH277977   6.763   4.532  14.459  0.1290  0.0131  0.0540
18829TIP3    H177978   6.682   4.501  14.501 -0.7150  0.9206 -0.8974
18829TIP3    H277979   6.772   4.623  14.489  0.4260  0.1323 -0.4055
18830TIP3   OH277980   0.621   2.342   2.153  0.1030 -0.3516  0.1570
18830TIP3    H177981   0.590   2.340   2.062  0.7295 -0.5265 -0.0524
18830TIP3    H277982   0.621   2.435   2.176 -0.3695 -0.3308  0.0929
18831TIP3   OH277983   4.012   5.176   1.517 -0.1269  0.8462  0.0769
18831TIP3    H177984   4.103   5.150   1.500  0.6682  2.8445  1.0822
18831TIP3    H277985   3.975   5.192   1.431 -0.3746 -2.5733 -0.5263
18832TIP3   OH277986   3.736   1.721  13.798 -0.0724  0.6024  0.2493
18832TIP3    H177987   3.807   1.664  13.828  0.2142  0.2580 -1.0386
18832TIP3    H277988   3.765   1.751  13.711 -1.1895  1.0152  0.0137
18833TIP3   OH277989   1.479   3.284  16.150  0.0792  0.4199 -0.6248
18833TIP3    H177990   1.512   3.261  16.063  1.6097 -0.2746  0.1129
18833TIP3    H277991   1.397   3.331  16.133  0.7781  1.0454 -2.4765
18834TIP3   OH277992   2.295   3.979   2.607  0.0099 -0.0311 -0.4139
18834TIP3    H177993   2.322   4.004   2.518  1.6130 -3.2569 -0.9107
18834TIP3    H277994   2.199   3.984   2.605  0.0250 -0.0176 -2.3302
18835TIP3   OH277995   2.028   2.310  14.541 -0.0705 -0.0773  0.0580
18835TIP3    H177996   2.117   2.347  14.541 -0.3436  0.6305  2.2335
18835TIP3    H277997   2.042   2.216  14.547  0.5449 -0.1311 -1.6681
18836TIP3   OH277998   6.569   3.749  16.988  0.6028 -0.5809  0.5163
18836TIP3    H177999   6.644   3.809  16.996  1.2443 -1.2858 -0.1744
18836TIP3    H278000   6.548   3.749  16.895 -0.1282 -0.5543  0.6735
18837TIP3   OH278001   5.757   5.219  16.317  0.1621 -0.8003 -0.1627
18837TIP3    H178002   5.666   5.231  16.290  0.5972  0.8606 -0.9155
18837TIP3    H278003   5.778   5.130  16.288 -1.1164 -1.0919 -0.2568
18838TIP3   OH278004   4.227   4.740  12.632 -0.2777 -0.0476  0.7852
18838TIP3    H178005   4.199   4.766  12.720 -0.5689  2.6897 -0.0707
18838TIP3    H278006   4.154   4.688  12.598  0.1642 -1.7786  2.4306
18839TIP3   OH278007   1.849   2.072   4.814 -0.2667 -0.0804  0.4385
18839TIP3    H178008   1.792   2.002   4.782 -1.8839  0.9792  0.9861
18839TIP3    H278009   1.866   2.126   4.736  0.9774 -1.0509  0.0161
18840TIP3   OH278010   6.395   1.324  12.961 -0.3262  0.4203 -0.1324
18840TIP3    H178011   6.433   1.342  12.875 -1.2721 -0.1601 -0.6865
18840TIP3    H278012   6.456   1.264  13.003 -1.0490 -1.2190 -1.3667
18841TIP3   OH278013   6.588   1.882   5.781 -0.3230  0.1808 -0.0158
18841TIP3    H178014   6.547   1.812   5.731 -2.0442 -0.5667  2.3343
18841TIP3    H278015   6.682   1.869   5.768 -0.7116  0.3190 -3.3766
18842TIP3   OH278016   1.703   5.851  17.088  0.3434 -0.2724 -0.0117
18842TIP3    H178017   1.641   5.906  17.040  1.6279  1.2417  0.0143
18842TIP3    H278018   1.666   5.844  17.176 -0.5123 -0.5883 -0.3901
18843TIP3   OH278019   5.986   6.321   0.692 -0.2750  0.2631 -0.0434
18843TIP3    H178020   6.006   6.382   0.621  0.7204 -0.1696 -0.1356
18843TIP3    H278021   5.919   6.367   0.744  1.0630  1.7945  0.3639
18844TIP3   OH278022   2.115   2.166  13.626  0.2950 -0.3355  0.1319
18844TIP3    H178023   2.109   2.205  13.713  2.3942 -1.2290  0.7253
18844TIP3    H278024   2.056   2.218  13.572 -1.0796  0.1931  2.1035
18845TIP3   OH278025   1.960   1.085   2.444  0.4189 -0.2927  0.1636
18845TIP3    H178026   1.961   1.140   2.365 -2.6194 -2.2686 -1.3718
18845TIP3    H278027   2.052   1.071   2.465  1.2921  0.9806 -2.5556
18846TIP3   OH278028   6.456   6.332   2.040  0.3360 -0.7318 -0.3184
18846TIP3    H178029   6.420   6.328   1.951 -0.4079  2.0177 -0.1893
18846TIP3    H278030   6.443   6.423   2.067 -1.4837 -2.0241  3.4633
18847TIP3   OH278031   1.425   0.965   6.662  0.3595  0.1334 -0.6818
18847TIP3    H178032   1.463   0.881   6.638 -1.5712 -1.5221  1.7437
18847TIP3    H278033   1.475   0.993   6.738 -1.1767 -0.5244  0.5985
18848TIP3   OH278034   2.166   5.584   2.959 -0.2287 -0.2814  0.0130
18848TIP3    H178035   2.222   5.622   3.027  1.1993 -0.1950 -1.1799
18848TIP3    H278036   2.202   5.496   2.945 -0.0729 -0.0337 -1.1340
18849TIP3   OH278037   2.835   3.911  11.557 -0.8093  0.0053  0.4358
18849TIP3    H178038   2.921   3.952  11.546 -0.1170 -1.8998 -1.6041
18849TIP3    H278039   2.797   3.910  11.469 -1.3973 -2.3837  0.6827
18850TIP3   OH278040   3.992   6.390   4.070 -0.4732 -0.5840 -0.4305
18850TIP3    H178041   4.077   6.346   4.070 -0.2220 -0.1298  0.6248
18850TIP3    H278042   3.955   6.372   4.157 -1.6233 -1.0830 -1.0080
18851TIP3   OH278043   3.746   1.570  12.256  0.2713 -0.1768  0.5306
18851TIP3    H178044   3.836   1.595  12.236 -0.1863  1.1510  0.1315
18851TIP3    H278045   3.712   1.642  12.309 -0.3074 -1.0567  1.3885
18852TIP3   OH278046   5.902   4.138  15.590 -0.0278  0.5045  0.7852
18852TIP3    H178047   5.958   4.099  15.522 -0.5653  1.7067 -0.3828
18852TIP3    H278048   5.867   4.063  15.638 -0.1953 -0.4226 -0.7371
18853TIP3   OH278049   2.039   5.977   4.551  0.0739 -0.2709  0.4603
18853TIP3    H178050   1.998   5.930   4.479  1.1482 -1.8231  0.8529
18853TIP3    H278051   2.044   6.068   4.520  2.5430 -1.2987 -2.3192
18854TIP3   OH278052   6.172   3.573  15.476  0.1693  0.2836  0.3172
18854TIP3    H178053   6.184   3.587  15.570  0.5010 -0.5125  0.4024
18854TIP3    H278054   6.080   3.590  15.461  0.1185  0.4451  0.7893
18855TIP3   OH278055   1.348   3.901  17.144  0.7175  0.6063  0.0101
18855TIP3    H178056   1.373   3.993  17.135 -0.1675  0.8655  0.0666
18855TIP3    H278057   1.355   3.883  17.237  2.2525  0.2074 -0.1762
18856TIP3   OH278058   2.269   3.561   5.151 -0.3670 -0.2790  0.1764
18856TIP3    H178059   2.281   3.500   5.224  1.3260  1.4087  1.3690
18856TIP3    H278060   2.214   3.631   5.187 -0.9600 -0.2882 -0.6942
18857TIP3   OH278061   6.575   1.010  17.270 -0.0420 -0.2646 -0.1791
18857TIP3    H178062   6.505   0.969  17.219 -0.5106  0.5094 -0.1738
18857TIP3    H278063   6.643   0.943  17.276 -0.2844 -0.6179 -1.1979
18858TIP3   OH278064   5.794   5.493   4.626 -0.6948 -0.2572  0.4991
18858TIP3    H178065   5.874   5.537   4.655 -0.4471  0.0075 -0.5450
18858TIP3    H278066   5.804   5.403   4.655  1.6340 -1.1090 -2.6813
18859TIP3   OH278067   3.832   1.268  16.786 -0.0702 -0.4143 -0.5198
18859TIP3    H178068   3.897   1.290  16.853 -0.2875  0.0933 -0.4731
18859TIP3    H278069   3.784   1.350  16.771 -0.2590 -0.6170 -1.0355
18860TIP3   OH278070   4.307   0.421  14.221  0.1358 -0.4321  0.2324
18860TIP3    H178071   4.261   0.482  14.279  0.0226  1.8034 -2.1151
18860TIP3    H278072   4.364   0.476  14.169  0.3114 -2.4023 -1.7179
18861TIP3   OH278073   2.275   1.456   0.436  0.2624 -0.1738 -0.1856
18861TIP3    H178074   2.225   1.415   0.366 -1.4182  0.2487  0.7416
18861TIP3    H278075   2.278   1.549   0.412  0.6314 -0.2059 -0.2609
18862TIP3   OH278076   5.015   6.113   1.659  0.2537 -0.1474 -0.5909
18862TIP3    H178077   4.928   6.125   1.622 -0.3251  2.3412  1.4727
18862TIP3    H278078   5.003   6.053   1.733  0.7180 -1.6646 -1.7058
18863TIP3   OH278079   6.600   3.992  10.358 -0.3297  0.2150 -0.2361
18863TIP3    H178080   6.590   4.086  10.375 -0.7232  0.1967 -0.3676
18863TIP3    H278081   6.688   3.984  10.320  0.6400  0.2444  1.8992
18864TIP3   OH278082   2.180   3.374   4.978  0.0755 -0.1317 -0.2748
18864TIP3    H178083   2.126   3.446   4.943  2.2143  1.5679 -0.1591
18864TIP3    H278084   2.197   3.399   5.069 -1.2035 -2.0239  0.5112
18865TIP3   OH278085   6.017   6.016   5.573  0.4563  0.1649  0.1634
18865TIP3    H178086   6.008   5.972   5.488 -1.3273  0.1518  0.3348
18865TIP3    H278087   6.055   5.951   5.631 -0.0937 -0.4380 -0.1510
18866TIP3   OH278088   4.697   6.342   4.429  0.1765 -0.3430 -0.2228
18866TIP3    H178089   4.690   6.302   4.515 -0.1761 -2.6376 -1.2754
18866TIP3    H278090   4.736   6.274   4.374  0.2633  1.0283 -1.9085
18867TIP3   OH278091   6.756   0.573   1.208  0.7408 -0.0035 -0.1270
18867TIP3    H178092   6.741   0.486   1.245 -0.1498  0.1595 -0.0873
18867TIP3    H278093   6.677   0.623   1.230  0.2524  0.1374 -2.1130
18868TIP3   OH278094   1.196   5.996  12.450 -0.1287 -0.3392 -0.5390
18868TIP3    H178095   1.227   6.051  12.378  0.1973 -1.6400 -1.4161
18868TIP3    H278096   1.104   5.980  12.429  0.0060 -0.8428 -0.7520
18869TIP3   OH278097   6.672   3.393  15.997 -0.4295  0.7431  0.0543
18869TIP3    H178098   6.634   3.469  15.953 -0.0468  0.6692 -0.4113
18869TIP3    H278099   6.612   3.374  16.069 -2.4431 -0.7171 -1.9446
18870TIP3   OH278100   2.568   6.334   3.760 -0.2538 -0.0989  0.0291
18870TIP3    H178101   2.508   6.409   3.761  0.0100  0.1177 -0.1189
18870TIP3    H278102   2.598   6.327   3.851  0.5389  0.6482 -0.1636
18871TIP3   OH278103   5.102   5.300   3.171  0.0029 -0.6662 -0.0091
18871TIP3    H178104   5.183   5.330   3.130 -0.3641 -0.2935 -0.4550
18871TIP3    H278105   5.124   5.213   3.205  1.0204  0.0221  1.1428
18872TIP3   OH278106   4.693   4.247  17.156  0.1903  0.0651  0.6499
18872TIP3    H178107   4.629   4.242  17.085  2.9368 -0.6941 -1.8501
18872TIP3    H278108   4.663   4.321  17.210 -1.4544  1.2233 -1.7682
18873TIP3   OH278109   1.957   4.288  15.501 -0.1325 -0.0539 -0.1598
18873TIP3    H178110   1.956   4.376  15.539 -2.9447 -0.5967  1.1212
18873TIP3    H278111   1.898   4.237  15.557  0.7604 -2.5354 -1.4209
18874TIP3   OH278112   1.244   4.834   1.465  0.4169 -0.2391 -0.2293
18874TIP3    H178113   1.173   4.806   1.522  0.2884  1.7575  0.6101
18874TIP3    H278114   1.204   4.842   1.378  0.4225 -2.4470 -0.4761
18875TIP3   OH278115   3.807   5.679  14.647  0.7386  0.2647  0.6871
18875TIP3    H178116   3.841   5.751  14.594 -0.0404 -0.7357 -1.1933
18875TIP3    H278117   3.718   5.665  14.615  1.8424 -3.4137 -0.9930
18876TIP3   OH278118   4.777   2.497  15.226 -0.1960  0.4899 -0.1285
18876TIP3    H178119   4.843   2.438  15.263 -0.5128  0.3096  0.1505
18876TIP3    H278120   4.822   2.541  15.154  1.0863  2.3778  1.7526
18877TIP3   OH278121   4.122   0.977   2.748  0.1251  0.0543  0.4778
18877TIP3    H178122   4.116   0.992   2.653 -0.6131  1.9357  0.8057
18877TIP3    H278123   4.031   0.970   2.777  0.2912  1.0958  1.2794
18878TIP3   OH278124   1.085   4.504   4.936  0.5441  0.5179  0.4409
18878TIP3    H178125   1.120   4.557   5.008  0.8399  0.6732  0.1846
18878TIP3    H278126   1.051   4.568   4.874  1.1650  0.4236 -0.0050
18879TIP3   OH278127   5.233   1.717   2.148  0.3005 -0.0234  0.1093
18879TIP3    H178128   5.289   1.762   2.212 -0.1307  0.1844  0.3503
18879TIP3    H278129   5.280   1.724   2.065  0.2248  0.9198  0.1328
18880TIP3   OH278130   3.041   1.816  13.674 -0.0964 -0.0738  0.2602
18880TIP3    H178131   3.000   1.782  13.595  0.4051 -0.5203  0.1871
18880TIP3    H278132   3.088   1.741  13.710 -1.8341 -0.3693  1.9960
18881TIP3   OH278133   0.153   1.355   6.016 -0.0826  0.0575  0.9450
18881TIP3    H178134   0.157   1.310   5.932  2.6085  1.4089  0.2933
18881TIP3    H278135   0.173   1.287   6.081  1.0173 -0.3204  0.2215
18882TIP3   OH278136   4.244   1.775   1.183 -0.1553 -0.6376 -0.0368
18882TIP3    H178137   4.290   1.807   1.261 -0.7152 -2.0033  0.8687
18882TIP3    H278138   4.308   1.721   1.137  0.5571  1.1091 -1.1870
18883TIP3   OH278139   2.785   5.738   3.128 -0.6823  0.1910 -0.2890
18883TIP3    H178140   2.723   5.801   3.166 -0.5272  0.0609  0.1806
18883TIP3    H278141   2.775   5.749   3.033 -2.4999 -0.8650 -0.2440
18884TIP3   OH278142   6.160   4.184  15.314 -0.5625 -0.0412  0.7328
18884TIP3    H178143   6.088   4.236  15.280 -0.7090 -1.8287 -1.8282
18884TIP3    H278144   6.119   4.103  15.345  0.1299 -0.3595  0.8392
18885TIP3   OH278145   5.265   3.621  12.900  0.2126 -0.0788 -0.4034
18885TIP3    H178146   5.304   3.695  12.854  0.3921 -0.5107 -0.9506
18885TIP3    H278147   5.196   3.660  12.954  1.4127  0.6938  0.5834
18886TIP3   OH278148   4.131   4.307   4.757 -0.5085 -0.0901 -0.5102
18886TIP3    H178149   4.222   4.334   4.743 -0.0838 -1.4073 -0.3786
18886TIP3    H278150   4.102   4.357   4.833  0.4069 -0.3483  0.0079
18887TIP3   OH278151   4.466   5.821   5.026 -0.2836 -0.4660 -0.6528
18887TIP3    H178152   4.469   5.884   5.098  0.5557 -0.3879 -0.7497
18887TIP3    H278153   4.419   5.746   5.061  0.3201 -0.5173  0.0407
18888TIP3   OH278154   5.915   2.125  10.910 -0.1445  0.0697  0.5777
18888TIP3    H178155   5.850   2.063  10.941 -2.0125  2.2856  1.2861
18888TIP3    H278156   5.863   2.199  10.877  1.9796  0.9583 -0.8790
18889TIP3   OH278157   1.928   0.723  11.009  0.2741  0.4003 -0.5353
18889TIP3    H178158   1.970   0.673  10.939  0.1347 -0.3534 -0.0852
18889TIP3    H278159   1.992   0.723  11.081  0.3306  0.9908 -0.5800
18890TIP3   OH278160   0.072   1.214   1.388 -0.1779  0.2224  0.1679
18890TIP3    H178161   0.141   1.223   1.453 -1.3225 -0.0363  1.4521
18890TIP3    H278162   0.024   1.297   1.392 -1.1752 -0.3676  0.7540
18891TIP3   OH278163   1.242   0.465   4.046  0.1173  0.2503  0.4577
18891TIP3    H178164   1.286   0.494   3.966  0.7678  0.6382  0.9497
18891TIP3    H278165   1.266   0.372   4.053 -0.4095  0.0735 -0.1036
18892TIP3   OH278166   1.596   5.113   5.775 -0.1708  0.1317 -0.3004
18892TIP3    H178167   1.635   5.109   5.688  0.0520  0.0445 -0.1983
18892TIP3    H278168   1.503   5.100   5.761 -0.1819  0.4792 -0.5651
18893TIP3   OH278169   5.228   1.249   3.901 -0.1725  0.0470 -0.4525
18893TIP3    H178170   5.150   1.215   3.944  0.9612 -0.9920  0.8506
18893TIP3    H278171   5.227   1.343   3.919  0.0696 -0.3064  1.5836
18894TIP3   OH278172   4.816   4.312   5.182 -0.7934 -0.1267  0.5641
18894TIP3    H178173   4.765   4.234   5.160 -0.3180 -0.8040  1.8492
18894TIP3    H278174   4.855   4.293   5.267  0.0126  1.1786  0.5072
18895TIP3   OH278175   3.328   3.442   4.072 -0.1613 -0.3457 -0.1499
18895TIP3    H178176   3.285   3.385   4.008  2.0151  2.1783 -4.0413
18895TIP3    H278177   3.407   3.395   4.098 -2.0915 -2.3085  2.4134
18896TIP3   OH278178   1.990   1.201  16.016  0.4774 -0.2003 -0.3266
18896TIP3    H178179   2.052   1.254  15.965 -0.6932  0.3865 -1.1623
18896TIP3    H278180   1.978   1.122  15.963 -2.2590  1.2642 -1.9884
18897TIP3   OH278181   2.481   0.812   6.749  0.8220  0.3311  0.7620
18897TIP3    H178182   2.508   0.723   6.774  1.8004  0.6052  0.7084
18897TIP3    H278183   2.386   0.811   6.757  0.7944 -0.8380  0.3775
18898TIP3   OH278184   2.594   5.805  15.960 -0.2551 -0.0796  0.5004
18898TIP3    H178185   2.656   5.733  15.956  1.3766  1.3391 -0.6090
18898TIP3    H278186   2.620   5.854  16.038  2.9983  3.0359 -2.3533
18899TIP3   OH278187   1.333   3.518  13.249 -0.0502  0.6733  0.8276
18899TIP3    H178188   1.292   3.435  13.226  0.7439  0.6433 -0.5457
18899TIP3    H278189   1.265   3.583  13.238 -0.6731  0.2254  1.8968
18900TIP3   OH278190   3.801   1.706   3.639  0.1664 -0.0990  0.0362
18900TIP3    H178191   3.803   1.646   3.714 -0.9456 -0.4729 -0.2320
18900TIP3    H278192   3.885   1.752   3.644  0.2737 -0.3928  1.2907
18901TIP3   OH278193   6.210   1.038   1.595 -0.1880 -0.0052  0.3664
18901TIP3    H178194   6.284   1.050   1.536 -0.3604  0.7112  0.2905
18901TIP3    H278195   6.133   1.043   1.538 -0.3426  0.3893  0.6082
18902TIP3   OH278196   0.403   4.085   6.276 -0.1675  0.2424 -0.4405
18902TIP3    H178197   0.330   4.024   6.283  0.5618 -0.6050 -0.0361
18902TIP3    H278198   0.475   4.031   6.242  0.5593  0.8068  0.1936
18903TIP3   OH278199   0.783   3.398   1.828  0.2286 -0.1504 -1.0299
18903TIP3    H178200   0.815   3.487   1.844 -1.5953  0.4192 -0.3900
18903TIP3    H278201   0.829   3.344   1.893 -0.7285  0.7920  0.4771
18904TIP3   OH278202   5.645   5.432  12.672 -0.0331  0.3190 -0.3199
18904TIP3    H178203   5.636   5.524  12.648 -0.2920  0.9401  2.0864
18904TIP3    H278204   5.595   5.422  12.753  1.6764 -1.4490  0.5809
18905TIP3   OH278205   5.456   3.181   0.185  0.1695 -0.0998 -0.7733
18905TIP3    H178206   5.448   3.137   0.269  0.9177  2.1507  0.5379
18905TIP3    H278207   5.381   3.149   0.134 -1.6562  0.2379  1.5854
18906TIP3   OH278208   1.192   1.056  13.445  0.3896 -0.0126 -0.2959
18906TIP3    H178209   1.157   1.002  13.516  0.4596 -0.1243 -0.3478
18906TIP3    H278210   1.129   1.045  13.373  1.0334 -0.9556 -0.7178
18907TIP3   OH278211   6.145   4.914  13.264 -0.2059  0.1328 -0.5597
18907TIP3    H178212   6.169   4.821  13.266 -0.8766 -0.0734 -1.7618
18907TIP3    H278213   6.049   4.914  13.266 -0.2314  0.7622 -1.4537
18908TIP3   OH278214   2.327   5.456   6.064  0.0537  0.1026 -0.2868
18908TIP3    H178215   2.354   5.383   6.119  0.9300 -0.2615 -1.1807
18908TIP3    H278216   2.314   5.417   5.977 -1.0161  0.7215 -0.4108
18909TIP3   OH278217   1.879   5.249   3.001 -0.1917  0.2536  0.1114
18909TIP3    H178218   1.793   5.279   3.032  0.3122  1.0146  0.7829
18909TIP3    H278219   1.872   5.154   3.002 -0.4588  0.2749  1.8281
18910TIP3   OH278220   5.692   3.037   2.150  0.1120 -0.6533 -0.3623
18910TIP3    H178221   5.739   3.052   2.233 -1.2984 -0.1805  0.3783
18910TIP3    H278222   5.688   2.942   2.142 -2.6200 -0.8304  1.8718
18911TIP3   OH278223   4.972   0.404  13.792  0.0487  0.0020  0.2923
18911TIP3    H178224   4.964   0.310  13.776 -0.4948  0.4676 -2.3642
18911TIP3    H278225   5.064   0.423  13.776 -0.1636  0.1807 -0.7667
18912TIP3   OH278226   4.134   1.110  11.438 -0.2950  0.0647 -0.0568
18912TIP3    H178227   4.049   1.151  11.449 -0.0573  0.2676  1.0155
18912TIP3    H278228   4.165   1.094  11.527  1.7665  2.0330 -0.3685
18913TIP3   OH278229   3.813   4.466   5.356  0.2168 -0.6342  0.1196
18913TIP3    H178230   3.769   4.436   5.435  0.6831  0.9374  1.0083
18913TIP3    H278231   3.747   4.458   5.286 -0.9389  0.0847  1.1044
18914TIP3   OH278232   6.203   1.536  14.405 -0.2340 -0.3677 -0.3913
18914TIP3    H178233   6.292   1.522  14.373 -0.3577 -3.5825  0.5102
18914TIP3    H278234   6.215   1.569  14.494  0.0377 -1.1740 -0.1324
18915TIP3   OH278235   1.494   5.479   2.811 -0.2177  0.1916 -0.2238
18915TIP3    H178236   1.563   5.542   2.788  0.7639 -0.7521  0.0777
18915TIP3    H278237   1.527   5.436   2.890 -1.4488  0.1614  0.2845
18916TIP3   OH278238   2.807   5.708  13.425 -0.1248  0.1747  0.1509
18916TIP3    H178239   2.880   5.668  13.471 -0.8419 -0.4329  0.7753
18916TIP3    H278240   2.748   5.635  13.406  0.0266  0.4548 -1.4891
18917TIP3   OH278241   1.935   1.513  11.414 -0.0736 -0.1948  0.1968
18917TIP3    H178242   1.993   1.445  11.382 -0.2793 -0.5390  0.5468
18917TIP3    H278243   1.943   1.584  11.351 -0.2515 -0.7507 -0.4529
18918TIP3   OH278244   5.210   2.040   0.310  0.7025 -0.1567  0.0744
18918TIP3    H178245   5.213   2.123   0.356  1.5846  0.5174 -1.1619
18918TIP3    H278246   5.174   2.061   0.224  1.1929 -0.9994 -0.3487
18919TIP3   OH278247   6.562   3.338   5.319  0.3596  0.0193  0.6259
18919TIP3    H178248   6.646   3.384   5.326  0.9754 -0.6777 -1.5326
18919TIP3    H278249   6.573   3.281   5.243 -1.5822 -1.1562  1.1963
18920TIP3   OH278250   4.131   2.999   4.613  0.3249  0.5064 -0.2866
18920TIP3    H178251   4.134   2.997   4.709  2.0175 -0.1978 -0.3381
18920TIP3    H278252   4.221   3.012   4.586 -0.0499  0.0928 -1.8059
18921TIP3   OH278253   2.178   6.625   0.456 -0.7512 -0.1232  0.2982
18921TIP3    H178254   2.181   6.708   0.410  0.0851 -0.7141 -0.7156
18921TIP3    H278255   2.085   6.602   0.457 -1.0026  0.8721  0.6907
18922TIP3   OH278256   4.182   3.786  11.644 -0.2173  0.2184  0.1533
18922TIP3    H178257   4.099   3.820  11.608 -0.5968 -1.1857 -0.3366
18922TIP3    H278258   4.250   3.838  11.601 -0.7186 -0.6660 -1.7638
18923TIP3   OH278259   4.531   0.850  11.344 -0.2105  0.0438 -0.1059
18923TIP3    H178260   4.504   0.932  11.301 -1.3056 -0.8379 -1.1459
18923TIP3    H278261   4.449   0.802  11.358  0.5909 -1.7735 -1.4007
18924TIP3   OH278262   2.157   3.110  16.067  0.1275  0.0074  0.1631
18924TIP3    H178263   2.252   3.122  16.066  0.6424 -2.1432  5.3438
18924TIP3    H278264   2.143   3.027  16.021  0.6022  0.8489 -1.5373
18925TIP3   OH278265   3.341   2.926  12.491 -0.9534  0.2192 -0.1047
18925TIP3    H178266   3.250   2.930  12.519 -0.9411 -0.7928  0.1071
18925TIP3    H278267   3.337   2.932  12.395 -1.2010  0.7370 -0.0615
18926TIP3   OH278268   2.986   5.983   3.250 -0.0205 -0.7591  0.8315
18926TIP3    H178269   2.957   6.073   3.240  1.1627 -0.2804  1.5580
18926TIP3    H278270   3.059   5.975   3.189 -0.2681 -1.2872  0.6068
18927TIP3   OH278271   5.440   2.533   1.893 -0.1708  0.1619 -0.1926
18927TIP3    H178272   5.487   2.576   1.964  2.4541 -2.0610 -0.4951
18927TIP3    H278273   5.405   2.453   1.932  0.4547 -0.5894 -1.1413
18928TIP3   OH278274   5.987   6.697   1.438 -0.3004 -0.2016 -0.3679
18928TIP3    H178275   5.999   6.785   1.403  1.0595  0.3810  1.5076
18928TIP3    H278276   5.904   6.701   1.486 -0.1279  0.1152 -0.0989
18929TIP3   OH278277   4.117   5.248  13.821 -0.1141 -0.2585  0.0687
18929TIP3    H178278   4.059   5.258  13.745  0.8424  2.1382 -0.4070
18929TIP3    H278279   4.059   5.218  13.891 -1.8449  1.4844 -0.5584
18930TIP3   OH278280   3.906   6.692   6.647 -0.1042  0.2106 -0.0894
18930TIP3    H178281   3.825   6.643   6.662 -0.4730  0.9124  0.2400
18930TIP3    H278282   3.973   6.643   6.695 -0.3444 -0.3282 -0.2989
18931TIP3   OH278283   2.118   1.025  12.646 -0.5400  0.4250  0.2403
18931TIP3    H178284   2.124   1.120  12.657  1.5702  0.2309  1.0684
18931TIP3    H278285   2.044   1.012  12.588 -0.3468  2.6346 -0.5433
18932TIP3   OH278286   6.366   0.366  14.216 -0.5175 -0.2619  0.1505
18932TIP3    H178287   6.417   0.387  14.137 -2.3733 -1.4349 -1.4041
18932TIP3    H278288   6.297   0.431  14.219  1.0758  1.4037  2.3373
18933TIP3   OH278289   1.828   3.402   1.025 -0.1555  0.3791  0.4062
18933TIP3    H178290   1.746   3.446   1.050 -0.3703 -0.2867  0.9113
18933TIP3    H278291   1.862   3.367   1.108 -0.7388 -1.6421 -0.1770
18934TIP3   OH278292   0.348   5.960  13.929 -0.4027  0.0081 -0.3938
18934TIP3    H178293   0.318   5.870  13.941 -1.0508  0.3865  0.9946
18934TIP3    H278294   0.306   5.989  13.848 -1.5030 -0.4171  0.0146
18935TIP3   OH278295   1.712   1.996  12.058  0.1145  0.3187 -0.0896
18935TIP3    H178296   1.761   2.045  11.991  1.1938 -1.3464 -0.5391
18935TIP3    H278297   1.779   1.960  12.116 -0.7333  0.3053  0.9036
18936TIP3   OH278298   6.607   6.332  12.831  0.2899  0.3192  0.1903
18936TIP3    H178299   6.568   6.402  12.778  2.8540  2.4104  0.9698
18936TIP3    H278300   6.570   6.344  12.918 -2.3640 -1.8767 -0.5363
18937TIP3   OH278301   1.616   4.979   3.465 -0.8073 -0.1287 -0.2551
18937TIP3    H178302   1.618   4.955   3.558  0.4436  0.5789 -0.0928
18937TIP3    H278303   1.648   4.901   3.420  0.7296  0.3082  0.0750
18938TIP3   OH278304   5.531   3.958   2.485  0.4351  0.4895  0.1882
18938TIP3    H178305   5.524   4.045   2.525 -1.6438  0.3079  0.3161
18938TIP3    H278306   5.578   3.905   2.550  1.4639  1.4489  0.2272
18939TIP3   OH278307   0.356   2.233   1.691 -0.2007 -0.2843 -0.3291
18939TIP3    H178308   0.291   2.198   1.631 -1.5834  0.5441  0.6608
18939TIP3    H278309   0.332   2.197   1.776  0.7032 -0.0655  0.0224
18940TIP3   OH278310   5.506   2.998   1.560  0.2936 -0.5725  0.0295
18940TIP3    H178311   5.411   3.009   1.557  0.3032 -0.2267  0.9950
18940TIP3    H278312   5.541   3.084   1.534  0.3408 -0.0881  1.6315
18941TIP3   OH278313   3.912   4.353   0.124  0.5669  0.0348  0.2717
18941TIP3    H178314   3.862   4.274   0.103  0.1236  0.4166 -0.1419
18941TIP3    H278315   3.977   4.361   0.055 -0.2952  0.7863 -0.4747
18942TIP3   OH278316   0.946   4.433  16.393  0.5225 -0.1498 -0.0467
18942TIP3    H178317   1.015   4.400  16.450  1.1852  1.7299  0.2894
18942TIP3    H278318   0.879   4.366  16.394  2.3414 -2.0205 -0.3622
18943TIP3   OH278319   1.633   4.844   0.434 -0.4701  0.1632 -0.1095
18943TIP3    H178320   1.720   4.852   0.473  0.8554 -1.8822 -2.4869
18943TIP3    H278321   1.642   4.881   0.347 -1.5254 -1.5574 -0.9825
18944TIP3   OH278322   4.808   2.952  12.273 -0.2404 -0.3508  0.0045
18944TIP3    H178323   4.738   3.011  12.302 -1.2260 -1.3176 -0.3639
18944TIP3    H278324   4.799   2.951  12.177  1.7191  1.2653 -0.2407
18945TIP3   OH278325   3.104   6.808  15.038 -0.6821 -0.1383 -0.5714
18945TIP3    H178326   3.148   6.746  14.980 -0.3957 -0.2157 -0.2715
18945TIP3    H278327   3.115   6.892  14.995  1.4793  0.1479  0.4722
18946TIP3   OH278328   3.816   6.275  12.593  0.6067  0.7132 -0.2847
18946TIP3    H178329   3.853   6.338  12.654  2.8081  0.0642 -0.9057
18946TIP3    H278330   3.827   6.190  12.637 -0.6718  0.5591 -0.2390
18947TIP3   OH278331   4.710   5.460  11.587  0.8825  0.3513  0.2075
18947TIP3    H178332   4.755   5.538  11.620  1.0942  1.2911 -2.2426
18947TIP3    H278333   4.637   5.494  11.535  0.8936 -1.0873 -0.7772
18948TIP3   OH278334   2.023   0.231  16.778  0.1005 -0.2728  0.0132
18948TIP3    H178335   2.013   0.279  16.695  1.0351 -0.9637 -0.5092
18948TIP3    H278336   2.112   0.251  16.806  0.1387 -0.8740  0.3277
18949TIP3   OH278337   2.541   6.010  11.688  0.0995 -0.1893  0.0009
18949TIP3    H178338   2.505   6.095  11.715  0.7579  0.4723 -1.1964
18949TIP3    H278339   2.624   6.004  11.734  0.1847 -0.0570 -0.1353
18950TIP3   OH278340   1.885   3.302  15.966  0.1024 -0.0646 -0.1215
18950TIP3    H178341   1.974   3.267  15.972 -0.2504 -1.0466 -0.4773
18950TIP3    H278342   1.829   3.229  15.994 -0.5993  0.5138 -0.0024
18951TIP3   OH278343   4.589   1.099  15.294  0.3016 -0.3188 -0.0981
18951TIP3    H178344   4.663   1.084  15.353  1.6550  2.5160 -0.9787
18951TIP3    H278345   4.617   1.060  15.211  0.7931  0.6419 -0.3965
18952TIP3   OH278346   5.854   4.232   1.085  0.5769 -0.2601 -0.4590
18952TIP3    H178347   5.894   4.229   1.172 -2.9185  1.0333  1.2861
18952TIP3    H278348   5.866   4.323   1.057 -0.9471  0.1021  0.0168
18953TIP3   OH278349   6.595   0.259   3.981  0.0365 -0.1718 -0.4665
18953TIP3    H178350   6.620   0.181   4.031 -0.5144 -0.6097 -0.8629
18953TIP3    H278351   6.613   0.235   3.890 -0.0759  0.1869 -0.5820
18954TIP3   OH278352   0.817   2.609  16.613  0.7647 -0.2866 -0.3777
18954TIP3    H178353   0.865   2.572  16.539 -0.4570  1.7444 -2.2261
18954TIP3    H278354   0.885   2.626  16.679  1.9440 -1.6066 -1.2111
18955TIP3   OH278355   1.328   1.985   4.536  0.2765 -0.2990  0.0318
18955TIP3    H178356   1.237   1.967   4.563  0.3065 -0.5550 -0.0397
18955TIP3    H278357   1.348   1.917   4.472  0.3869 -0.0039 -0.2458
18956TIP3   OH278358   4.080   4.819  12.866  0.0598 -0.0478 -0.1644
18956TIP3    H178359   4.035   4.742  12.900  0.3037  0.0453  0.3741
18956TIP3    H278360   4.010   4.878  12.838 -0.1828  0.5712  1.7002
18957TIP3   OH278361   0.320   0.721   4.796  0.0110 -0.6451 -0.1319
18957TIP3    H178362   0.252   0.720   4.729  1.0356 -1.2086 -1.1722
18957TIP3    H278363   0.276   0.756   4.874 -1.8236 -2.3146 -0.3859
18958TIP3   OH278364   2.383   0.214  14.678 -0.4866  0.0475  0.0656
18958TIP3    H178365   2.310   0.269  14.650  0.5498  0.8517 -1.1046
18958TIP3    H278366   2.460   0.271  14.672  0.3879 -1.0834  0.2958
18959TIP3   OH278367   2.995   6.484   5.316 -0.5368  0.0341 -0.4808
18959TIP3    H178368   3.022   6.564   5.361 -2.5336 -0.0429  0.9333
18959TIP3    H278369   3.036   6.414   5.367  0.1344  0.0920 -0.9347
18960TIP3   OH278370   3.270   6.557   3.783  0.2942  0.1888 -0.2107
18960TIP3    H178371   3.364   6.572   3.774  0.5901 -1.8467 -0.7740
18960TIP3    H278372   3.259   6.464   3.764 -1.9806  0.6369 -1.2288
18961TIP3   OH278373   6.215   5.120   1.783 -0.4336 -0.8585 -0.2827
18961TIP3    H178374   6.163   5.040   1.780 -2.1814  0.2600 -0.4538
18961TIP3    H278375   6.247   5.124   1.873 -0.8954 -1.4027 -0.0902
18962TIP3   OH278376   6.557   4.967  14.564 -0.0066 -0.4885 -0.2508
18962TIP3    H178377   6.581   4.948  14.474 -1.8295  3.2826 -1.6250
18962TIP3    H278378   6.462   4.965  14.566 -0.0242  0.3269  1.3487
18963TIP3   OH278379   4.795   2.330   3.961 -0.0368 -0.4417  0.0997
18963TIP3    H178380   4.868   2.301   4.016  0.2576  0.6478  0.2935
18963TIP3    H278381   4.718   2.290   4.001  0.3695 -1.0094  0.3194
18964TIP3   OH278382   3.388   1.377  14.818  0.3952  0.1592  0.6204
18964TIP3    H178383   3.377   1.447  14.754 -0.5638  0.2594  0.8947
18964TIP3    H278384   3.325   1.396  14.886 -0.7798 -1.6688  0.0858
18965TIP3   OH278385   3.199   4.917   0.356  0.2309  0.1160  0.3962
18965TIP3    H178386   3.156   4.979   0.415 -0.0957  1.1875 -0.9481
18965TIP3    H278387   3.182   4.952   0.268  2.6072 -0.2450 -0.2340
18966TIP3   OH278388   2.464   6.768  12.420  0.3160  0.0764 -0.0350
18966TIP3    H178389   2.503   6.827  12.485  1.5614 -0.4794 -0.2666
18966TIP3    H278390   2.387   6.732  12.463  0.7534  0.2406  0.8948
18967TIP3   OH278391   0.135   1.014  12.935 -0.0470  0.5033  0.7404
18967TIP3    H178392   0.117   1.106  12.955 -1.3539  0.0485  1.7660
18967TIP3    H278393   0.146   0.973  13.021  1.6200 -0.0931  0.2580
18968TIP3   OH278394   6.347   0.590  13.665  0.6667 -0.2683  0.3500
18968TIP3    H178395   6.343   0.495  13.676  1.3101 -0.2854  0.5012
18968TIP3    H278396   6.398   0.603  13.585  0.7661 -0.0494  0.4464
18969TIP3   OH278397   3.211   0.197   3.303  0.0741 -0.3127  0.7860
18969TIP3    H178398   3.121   0.229   3.308 -0.0395 -0.3294 -0.7265
18969TIP3    H278399   3.258   0.266   3.256  0.0900 -1.7913 -1.4620
18970TIP3   OH278400   2.724   5.657  12.900  0.0654 -0.0657  0.0780
18970TIP3    H178401   2.778   5.688  12.828 -1.2390 -2.4838 -2.0143
18970TIP3    H278402   2.696   5.737  12.945  1.2337  1.4617 -1.8171
18971TIP3   OH278403   5.984   2.971   4.558 -0.1102 -0.5410 -0.0943
18971TIP3    H178404   5.934   3.042   4.519  2.0961  2.4813  2.3219
18971TIP3    H278405   6.050   2.949   4.492  2.1071  2.8927  0.8835
18972TIP3   OH278406   1.960   4.475  13.176  0.4527 -0.4349 -0.1577
18972TIP3    H178407   1.982   4.387  13.206 -0.1994 -1.2205 -1.8957
18972TIP3    H278408   1.995   4.479  13.087  0.0944  0.9081 -0.2441
18973TIP3   OH278409   5.547   4.923   3.774  0.0086 -0.2049 -0.7020
18973TIP3    H178410   5.600   4.944   3.852  1.4666  1.6051 -2.1268
18973TIP3    H278411   5.599   4.857   3.728  0.8371  1.1904 -1.8315
18974TIP3   OH278412   6.541   1.911  16.637  0.1571  0.2558  0.6792
18974TIP3    H178413   6.474   1.977  16.618  0.0731 -0.2210 -0.7348
18974TIP3    H278414   6.538   1.901  16.732 -0.7903  1.2780  0.7703
18975TIP3   OH278415   6.293   1.848   0.738 -0.0011 -0.1689  0.2152
18975TIP3    H178416   6.381   1.877   0.715  0.2064 -0.2006  0.9491
18975TIP3    H278417   6.303   1.755   0.757  0.3254  0.3951  2.9147
18976TIP3   OH278418   0.534   5.085  16.580  0.7191  0.2371 -0.0438
18976TIP3    H178419   0.597   5.018  16.553 -0.2515 -0.7573  0.1488
18976TIP3    H278420   0.454   5.036  16.601 -0.0416  1.4688 -0.0473
18977TIP3   OH278421   4.575   5.867   1.748  0.0648  0.0872 -0.2317
18977TIP3    H178422   4.491   5.865   1.704  2.5001  0.6181 -5.2415
18977TIP3    H278423   4.595   5.960   1.757 -0.0078 -0.0286  1.3066
18978TIP3   OH278424   5.958   5.953   2.490  0.1945  0.3517  0.4945
18978TIP3    H178425   6.022   5.976   2.557  0.4702 -0.1628  0.4095
18978TIP3    H278426   5.959   5.857   2.488 -1.6408  0.3008  1.5143
18979TIP3   OH278427   5.074   1.554  14.655 -0.2720  0.2142  0.3624
18979TIP3    H178428   5.123   1.524  14.578  0.3154 -0.9665  1.1747
18979TIP3    H278429   5.132   1.618  14.697 -1.0841  1.7386 -0.7958
18980TIP3   OH278430   5.696   1.929   0.274 -0.4281 -0.1404  0.5433
18980TIP3    H178431   5.703   1.856   0.214  0.0448 -1.1292  1.7907
18980TIP3    H278432   5.602   1.949   0.276 -0.5400 -0.6218  0.1070
18981TIP3   OH278433   2.941   4.446  17.080  0.4993  0.1012  0.2425
18981TIP3    H178434   2.870   4.386  17.056 -0.2101  0.2137  1.9667
18981TIP3    H278435   3.021   4.397  17.061 -0.0536 -0.5763 -0.3822
18982TIP3   OH278436   1.823   5.396   4.171 -0.0791 -0.3136  0.6432
18982TIP3    H178437   1.744   5.355   4.135  1.0072 -4.3890  2.5927
18982TIP3    H278438   1.854   5.454   4.102 -1.4033 -3.2712 -2.5680
18983TIP3   OH278439   5.341   2.292   5.616  0.8391  0.3516 -0.2830
18983TIP3    H178440   5.258   2.306   5.570  1.1432 -0.2770 -1.0458
18983TIP3    H278441   5.316   2.268   5.705  0.2039  0.3477 -0.4632
18984TIP3   OH278442   1.090   4.959  11.072 -0.6636 -0.2110 -0.4185
18984TIP3    H178443   1.008   4.946  11.026 -0.5275  1.6499 -1.2345
18984TIP3    H278444   1.151   4.988  11.005 -0.0304  0.9320  0.6251
18985TIP3   OH278445   3.693   3.963  10.338  0.4903  0.5469  0.2022
18985TIP3    H178446   3.613   4.012  10.319  0.0104  0.0430  0.9149
18985TIP3    H278447   3.676   3.920  10.422  0.1855 -2.2702 -1.2103
18986TIP3   OH278448   0.649   2.395  16.910 -0.0467 -0.4222  0.0248
18986TIP3    H178449   0.611   2.456  16.847 -0.3214 -0.4609  0.1533
18986TIP3    H278450   0.643   2.441  16.994  1.2474  0.0534 -0.1327
18987TIP3   OH278451   2.827   3.017   5.568 -0.3405 -0.0901  0.4406
18987TIP3    H178452   2.870   3.100   5.589 -2.8035  1.2780  0.2379
18987TIP3    H278453   2.893   2.968   5.520  1.0029  1.9636  0.1252
18988TIP3   OH278454   3.089   6.595  15.247  0.1727  0.1114  0.0222
18988TIP3    H178455   3.100   6.526  15.181 -1.3690  0.0300 -0.1621
18988TIP3    H278456   3.095   6.677  15.198 -0.7513  0.0543 -0.1856
18989TIP3   OH278457   1.225   2.124  13.283 -0.0924 -0.0954  0.1163
18989TIP3    H178458   1.210   2.183  13.209  1.9652  0.3460 -0.0027
18989TIP3    H278459   1.311   2.086  13.266 -0.8780 -2.2476  0.8048
18990TIP3   OH278460   1.161   3.208   2.200 -0.0642 -0.0433 -0.2293
18990TIP3    H178461   1.154   3.141   2.268  0.0968 -0.8094 -0.9621
18990TIP3    H278462   1.242   3.255   2.220  0.3459 -0.7160 -0.2928
18991TIP3   OH278463   3.730   1.598   6.050  0.2271  0.4340  0.1648
18991TIP3    H178464   3.717   1.518   5.999 -0.1576  0.1020  0.7877
18991TIP3    H278465   3.821   1.623   6.032  0.3683 -0.1804  0.0336
18992TIP3   OH278466   5.796   0.847   5.358  0.2540 -0.2963  0.0804
18992TIP3    H178467   5.875   0.900   5.344  0.8712 -1.2815 -0.2125
18992TIP3    H278468   5.768   0.822   5.270 -2.1205  2.5101 -0.0257
18993TIP3   OH278469   4.897   3.284  16.322  0.1525 -0.4226 -0.0395
18993TIP3    H178470   4.989   3.308  16.331  0.1980 -0.5437 -0.1830
18993TIP3    H278471   4.899   3.198  16.280 -0.0303 -0.3631 -0.1693
18994TIP3   OH278472   5.910   4.255   4.936  1.0120  0.2567 -0.0599
18994TIP3    H178473   5.987   4.228   4.887  1.4775  0.0957  0.7679
18994TIP3    H278474   5.863   4.174   4.955 -0.9812  0.5534 -3.1888
18995TIP3   OH278475   5.756   1.486   3.950 -0.5138 -0.0178 -0.3565
18995TIP3    H178476   5.676   1.445   3.981  0.2946 -0.8433  0.6757
18995TIP3    H278477   5.804   1.415   3.907 -0.4943  0.5570 -1.3112
18996TIP3   OH278478   6.045   0.733   3.105 -0.5003  0.9415 -0.0170
18996TIP3    H178479   6.011   0.807   3.054 -1.7084 -1.6142 -3.1088
18996TIP3    H278480   6.115   0.697   3.050 -1.3808 -1.4804  0.3703
18997TIP3   OH278481   4.202   3.345  13.137 -0.0435 -0.1166  0.8522
18997TIP3    H178482   4.213   3.322  13.045  0.0143 -0.2545  0.8942
18997TIP3    H278483   4.291   3.359  13.170 -0.0475 -0.3282  0.9554
18998TIP3   OH278484   6.454   2.577  13.703 -0.2469 -0.1990  0.0694
18998TIP3    H178485   6.444   2.668  13.731  3.8619  0.8945 -1.6401
18998TIP3    H278486   6.416   2.574  13.615 -1.2314 -0.3906  0.4952
18999TIP3   OH278487   0.519   1.693  17.206  0.1128 -0.0340  0.3489
18999TIP3    H178488   0.614   1.708  17.204  0.4461 -1.9402  0.7790
18999TIP3    H278489   0.486   1.757  17.268  1.3434 -0.3859  1.3948
19000TIP3   OH278490   1.584   4.918  16.338 -0.1207  0.3976  0.3223
19000TIP3    H178491   1.677   4.938  16.328  0.0771 -0.0566  1.1164
19000TIP3    H278492   1.583   4.832  16.381 -0.9002  0.5072  0.5350
19001TIP3   OH278493   6.104   5.625   2.656 -0.2874 -0.0558  0.1574
19001TIP3    H178494   6.043   5.649   2.725 -1.0828  0.8722 -0.8413
19001TIP3    H278495   6.055   5.641   2.575  1.2268  0.5596 -0.6508
19002TIP3   OH278496   1.746   3.196   5.940 -0.0396  0.2773 -0.1742
19002TIP3    H178497   1.791   3.222   5.859 -0.2944  1.0072 -0.0892
19002TIP3    H278498   1.689   3.271   5.960  0.2032  0.2015  0.8092
19003TIP3   OH278499   3.818   0.038   5.318 -0.3232 -0.3925  0.7851
19003TIP3    H178500   3.853   0.124   5.342  0.7753 -0.8455  0.8632
19003TIP3    H278501   3.825   0.036   5.222 -3.0609  0.7251  0.5203
19004TIP3   OH278502   6.398   1.334  16.041  0.3586 -0.6369 -0.3065
19004TIP3    H178503   6.316   1.286  16.032 -0.6739  1.1259 -0.5677
19004TIP3    H278504   6.392   1.376  16.127  0.9641 -0.4269 -0.3618
19005TIP3   OH278505   4.467   2.121   6.024  0.4125  0.1051 -0.1908
19005TIP3    H178506   4.492   2.042   5.976  2.3082 -0.1202  1.0851
19005TIP3    H278507   4.473   2.096   6.116 -1.3894  1.0448  0.2018
19006TIP3   OH278508   2.534   5.073  11.179 -0.4462  0.4854 -0.1650
19006TIP3    H178509   2.460   5.013  11.191  0.1888 -0.0858  0.9764
19006TIP3    H278510   2.587   5.063  11.258  1.7211 -0.3549 -1.6451
19007TIP3   OH278511   2.357   3.126  15.319  0.0301  0.3961  0.0229
19007TIP3    H178512   2.434   3.182  15.317  0.3001  0.0563  0.5369
19007TIP3    H278513   2.360   3.077  15.237 -0.4873  1.4934 -0.6606
19008TIP3   OH278514   6.054   2.462  12.469  0.6826  0.6804  0.1767
19008TIP3    H178515   6.073   2.379  12.425 -0.5152  0.6731 -0.3412
19008TIP3    H278516   6.000   2.438  12.543 -1.3375  1.1912 -1.1026
19009TIP3   OH278517   3.940   3.895   0.692  0.2120  0.0443 -0.2895
19009TIP3    H178518   3.908   3.965   0.749  1.0130  0.3405 -0.2088
19009TIP3    H278519   3.914   3.922   0.604 -1.4980 -0.6689 -0.0317
19010TIP3   OH278520   5.770   5.665  14.103  0.1715 -0.2476 -0.0879
19010TIP3    H178521   5.764   5.736  14.038 -3.3547  0.5931  1.0160
19010TIP3    H278522   5.810   5.706  14.180 -0.9845  0.3564  0.2161
19011TIP3   OH278523   4.502   6.619   3.282  0.0559 -0.2057 -0.1746
19011TIP3    H178524   4.478   6.527   3.287 -1.1385  0.0996 -0.2715
19011TIP3    H278525   4.511   6.646   3.374  0.9822 -0.5636 -0.1557
19012TIP3   OH278526   4.353   1.193  12.967  0.2824 -0.1652 -0.0997
19012TIP3    H178527   4.325   1.268  13.019  1.2014  0.9272 -1.1559
19012TIP3    H278528   4.346   1.118  13.027  1.7863  1.1268  1.7559
19013TIP3   OH278529   2.961   4.206   1.802  0.1798 -0.1485 -0.0124
19013TIP3    H178530   2.990   4.149   1.874 -1.4562 -0.4596  0.4264
19013TIP3    H278531   2.956   4.293   1.841 -2.5748 -0.6383  0.8029
19014TIP3   OH278532   1.958   0.185   0.695  0.2471 -0.2801  0.4485
19014TIP3    H178533   2.049   0.208   0.713  0.6322 -0.0077 -1.7294
19014TIP3    H278534   1.908   0.262   0.723  0.8078  0.0999  0.4061
19015TIP3   OH278535   2.300   0.017   4.648 -0.2337 -0.4934  0.1038
19015TIP3    H178536   2.258   0.103   4.641  1.5524  0.4572  0.7743
19015TIP3    H278537   2.272  -0.015   4.734 -1.6789 -1.0298 -0.5469
19016TIP3   OH278538   1.710   0.263   3.828 -0.0422  0.8808  0.0113
19016TIP3    H178539   1.801   0.284   3.848  0.0487  0.4007  0.1045
19016TIP3    H278540   1.688   0.320   3.754  0.4669  0.6815 -0.2937
19017TIP3   OH278541   4.484   0.429  16.571 -0.0674 -0.1939  0.0662
19017TIP3    H178542   4.510   0.388  16.653  0.1490  1.2726  0.7353
19017TIP3    H278543   4.402   0.385  16.547  0.3751 -1.2905  0.5618
19018TIP3   OH278544   0.838   0.217  11.774 -0.6989  0.3449  0.5729
19018TIP3    H178545   0.905   0.168  11.822 -1.2644 -0.4401  0.5769
19018TIP3    H278546   0.812   0.158  11.703  0.0633  1.4541 -0.6495
19019TIP3   OH278547   3.122   0.052   1.321 -0.1014  0.5826 -0.0217
19019TIP3    H178548   3.168   0.136   1.323  1.3229 -0.1577 -0.2962
19019TIP3    H278549   3.186  -0.009   1.283 -0.6138 -0.9073  1.4167
19020TIP3   OH278550   6.558   0.533  10.838  0.2370 -0.3839 -1.0955
19020TIP3    H178551   6.604   0.453  10.813 -1.5975 -1.2667 -1.7837
19020TIP3    H278552   6.531   0.518  10.928  1.5492  0.2501 -0.6004
19021TIP3   OH278553   5.815   6.234  13.839  0.3767  0.2804  0.0102
19021TIP3    H178554   5.807   6.234  13.744  3.8190 -2.6368 -0.3951
19021TIP3    H278555   5.753   6.300  13.869 -1.3369  0.6914 -4.1962
19022TIP3   OH278556   4.486   4.117  12.028 -0.3537  0.0883  0.3798
19022TIP3    H178557   4.534   4.199  12.025 -0.0572  0.1034  3.6279
19022TIP3    H278558   4.399   4.140  12.061 -1.5222 -0.4317 -2.1857
19023TIP3   OH278559   1.780   0.910   1.567 -0.3622 -0.0087 -0.1701
19023TIP3    H178560   1.764   0.900   1.473 -0.3039  0.2871 -0.2125
19023TIP3    H278561   1.831   0.833   1.591 -0.4155 -0.1083 -0.3735
19024TIP3   OH278562   2.615   5.641   5.719  0.2393  0.3333 -0.1508
19024TIP3    H178563   2.604   5.579   5.791  1.2227  0.0744 -0.2212
19024TIP3    H278564   2.670   5.711   5.755  1.1097 -0.0226 -0.7886
19025TIP3   OH278565   5.052   3.639   5.928  0.1962  0.0980  0.0073
19025TIP3    H178566   5.035   3.716   5.981  2.6085 -0.7069  2.0548
19025TIP3    H278567   5.044   3.565   5.989  0.6699 -1.0517 -1.2815
19026TIP3   OH278568   1.944   3.918  15.081  0.0123 -0.3337  0.2971
19026TIP3    H178569   1.939   3.965  15.165  1.9725 -0.2069  0.3780
19026TIP3    H278570   2.038   3.914  15.062 -0.3400 -1.4520 -1.2905
19027TIP3   OH278571   0.261   5.258   4.082  0.1502 -0.1801  0.0505
19027TIP3    H178572   0.276   5.224   4.170 -0.0309 -0.6481 -0.0941
19027TIP3    H278573   0.287   5.350   4.086 -1.9012  0.3720  1.1552
19028TIP3   OH278574   4.745   4.219   3.712 -0.1707 -0.0819  0.7876
19028TIP3    H178575   4.742   4.235   3.618 -1.2838 -2.8387  0.2891
19028TIP3    H278576   4.802   4.143   3.721 -0.2877 -0.0070  2.3208
19029TIP3   OH278577   3.409   2.172   3.594  0.0638 -0.2517 -0.2701
19029TIP3    H178578   3.316   2.150   3.603 -0.1093  1.0899  1.4259
19029TIP3    H278579   3.410   2.266   3.579  1.0832 -0.5121 -1.8956
19030TIP3   OH278580   3.422   5.081  16.517 -0.0805  1.0730  0.3455
19030TIP3    H178581   3.337   5.078  16.560 -0.6344 -0.2228 -0.7634
19030TIP3    H278582   3.440   4.989  16.494  0.7844  1.5566 -0.9857
19031TIP3   OH278583   6.380   6.728  14.786  0.0736  0.2001 -0.0424
19031TIP3    H178584   6.370   6.800  14.847  1.1055  0.2281  0.0956
19031TIP3    H278585   6.345   6.762  14.703  0.7514  0.9267 -0.0323
19032TIP3   OH278586   1.469   2.468  12.469 -0.1178  0.1968  0.2603
19032TIP3    H178587   1.462   2.436  12.559  0.7814  1.8747  0.9536
19032TIP3    H278588   1.378   2.467  12.437 -0.3115 -1.3827  0.8201
19033TIP3   OH278589   5.566   2.140   4.352 -0.2155 -0.4076 -0.1849
19033TIP3    H178590   5.564   2.148   4.256 -0.9118 -2.2150 -0.3517
19033TIP3    H278591   5.603   2.053   4.368 -0.4008 -0.2451  1.1765
19034TIP3   OH278592   3.534   4.036   6.004 -0.2885  0.2438 -0.7477
19034TIP3    H178593   3.563   3.945   6.007 -0.2428  0.3198  2.2022
19034TIP3    H278594   3.446   4.035   6.042 -0.5427  1.3591 -1.2742
19035TIP3   OH278595   0.935   6.309   0.566 -0.2922 -0.0201 -0.2502
19035TIP3    H178596   0.943   6.328   0.660 -0.4041 -1.7186  0.1126
19035TIP3    H278597   0.847   6.273   0.557 -0.3014  0.1974 -1.0276
19036TIP3   OH278598   2.380   5.430   3.911  0.1034  0.3077  0.0111
19036TIP3    H178599   2.453   5.391   3.862 -2.1856  0.3399 -3.5855
19036TIP3    H278600   2.374   5.519   3.878 -1.1244  0.5275  0.7958
19037TIP3   OH278601   3.864   2.508   4.342 -0.2340  0.3488  1.1268
19037TIP3    H178602   3.872   2.434   4.282  0.1037 -0.0114  1.6052
19037TIP3    H278603   3.777   2.497   4.382 -0.4870  0.6265  0.6651
19038TIP3   OH278604   3.262   5.186  12.981  0.4737  0.2935 -0.0141
19038TIP3    H178605   3.346   5.231  12.985 -0.2290  1.6219  0.0268
19038TIP3    H278606   3.223   5.199  13.067  0.1384 -0.1762 -0.0903
19039TIP3   OH278607   6.446   1.956  13.929 -0.0873 -0.0372  0.3770
19039TIP3    H178608   6.377   1.893  13.908 -0.0926  0.1902 -0.3113
19039TIP3    H278609   6.470   1.936  14.020 -1.0419 -0.1300  0.6173
19040TIP3   OH278610   0.604   1.914   1.290 -0.4978 -0.4950  0.1045
19040TIP3    H178611   0.582   2.006   1.308  0.2323 -0.3577  0.3105
19040TIP3    H278612   0.670   1.892   1.356  0.3953 -0.7402 -0.8719
19041TIP3   OH278613   3.280   2.592   4.274 -0.4596  0.6592 -0.5013
19041TIP3    H178614   3.311   2.637   4.195 -0.6271 -0.5065 -1.2306
19041TIP3    H278615   3.336   2.515   4.281  0.1066  1.1946  0.9897
19042TIP3   OH278616   4.426   6.193   0.373  0.6350 -0.1993 -0.4132
19042TIP3    H178617   4.345   6.143   0.360  0.0924  0.8847 -1.3512
19042TIP3    H278618   4.428   6.253   0.299  0.9263  1.6289  1.0566
19043TIP3   OH278619   6.632   3.427   2.090 -0.1855 -0.0927 -0.0814
19043TIP3    H178620   6.656   3.466   2.006  1.2128 -0.8086 -0.0128
19043TIP3    H278621   6.690   3.468   2.153 -1.0007  0.1824  0.5070
19044TIP3   OH278622   1.970   3.885  16.622 -0.2795  0.1763  0.1178
19044TIP3    H178623   1.995   3.872  16.714 -3.1196  1.5415  1.1655
19044TIP3    H278624   1.989   3.977  16.604  0.8113 -0.2308 -0.8643
19045TIP3   OH278625   0.656   3.247   6.504  0.5735  0.3070  0.2606
19045TIP3    H178626   0.747   3.245   6.477  0.6789  1.0644  0.5363
19045TIP3    H278627   0.650   3.185   6.577  0.9538  0.5430  0.4919
19046TIP3   OH278628   3.840   5.615   0.593  0.6016  0.5483 -0.2930
19046TIP3    H178629   3.753   5.620   0.632  0.8446 -1.5912  0.5454
19046TIP3    H278630   3.836   5.540   0.534  1.5552  1.1050 -1.0734
19047TIP3   OH278631   4.579   6.006  12.502 -0.6947 -0.2739 -0.3186
19047TIP3    H178632   4.543   5.965  12.581  0.2011  2.3050  1.5132
19047TIP3    H278633   4.509   6.063  12.470  0.0370  1.1498  0.5344
19048TIP3   OH278634   6.482   5.817   4.121  0.9639 -0.0324  0.3306
19048TIP3    H178635   6.451   5.891   4.174  0.3200  0.0568 -0.1610
19048TIP3    H278636   6.411   5.801   4.059  1.9880  0.2674 -0.9303
19049TIP3   OH278637   4.422   4.752   0.138  0.1073  0.2584  0.3191
19049TIP3    H178638   4.513   4.763   0.112  0.0638  0.3760  0.2211
19049TIP3    H278639   4.372   4.757   0.057  0.0003  0.3217  0.3883
19050TIP3   OH278640   2.351   1.644   3.313 -0.0581 -0.1738  0.0924
19050TIP3    H178641   2.366   1.730   3.350 -0.5744  0.3553 -0.8828
19050TIP3    H278642   2.397   1.645   3.229 -1.8460 -0.0558 -0.9252
19051TIP3   OH278643   0.586   5.920   1.096 -0.0127  0.0681  0.2720
19051TIP3    H178644   0.575   5.825   1.102  2.4734 -0.2569 -0.1127
19051TIP3    H278645   0.610   5.947   1.184  3.0169 -0.1892 -0.4390
19052TIP3   OH278646   2.702   0.969  14.902  0.2136 -0.3932 -0.5779
19052TIP3    H178647   2.672   0.886  14.941 -0.4150  0.0160 -0.1829
19052TIP3    H278648   2.642   0.984  14.829 -0.3609  0.2688  0.0213
19053TIP3   OH278649   4.501   2.152  15.815 -1.0913  0.1117  0.4828
19053TIP3    H178650   4.506   2.187  15.904 -0.2824  1.1959  0.0163
19053TIP3    H278651   4.440   2.078  15.823  0.4214 -1.0030  2.3124
19054TIP3   OH278652   5.460   5.248  16.298 -0.9398 -0.8520  0.3945
19054TIP3    H178653   5.383   5.305  16.291  0.0071  0.3536 -0.5600
19054TIP3    H278654   5.427   5.160  16.284 -2.4870 -0.5746  2.1098
19055TIP3   OH278655   2.237   1.237  15.308 -0.0969  0.1990 -0.1237
19055TIP3    H178656   2.208   1.321  15.346  1.3364  0.5998  0.1249
19055TIP3    H278657   2.183   1.226  15.230 -0.0170  1.5828 -0.3945
19056TIP3   OH278658   2.671   0.325  13.852 -0.4809  0.8394 -0.2597
19056TIP3    H178659   2.650   0.273  13.774  0.5601 -0.5554  0.3728
19056TIP3    H278660   2.745   0.380  13.825  0.9174 -0.7891  0.1953
19057TIP3   OH278661   3.293   0.507  17.213 -0.2129  0.4890 -0.5206
19057TIP3    H178662   3.372   0.523  17.162  0.6095  0.3230  0.6793
19057TIP3    H278663   3.319   0.442  17.278 -1.4757  0.0433 -0.4499
19058TIP3   OH278664   0.589   6.720  14.452 -0.7914 -0.5301 -0.1220
19058TIP3    H178665   0.565   6.809  14.480 -0.1334  0.2319 -1.9405
19058TIP3    H278666   0.664   6.732  14.395 -0.5115 -2.3034 -0.1560
19059TIP3   OH278667   0.274   3.801  12.323 -0.6830 -0.1174  0.2598
19059TIP3    H178668   0.347   3.768  12.270 -0.5445 -0.9112  0.9333
19059TIP3    H278669   0.312   3.814  12.410 -1.0460  0.6439  0.3045
19060TIP3   OH278670   2.912   3.038  12.995 -0.7397  0.3214 -0.0224
19060TIP3    H178671   2.933   3.088  13.074 -0.6218  0.1350  0.0633
19060TIP3    H278672   2.818   3.051  12.983 -0.8760 -0.1753  0.5130
19061TIP3   OH278673   0.564   1.899   6.305 -0.2722 -0.5457  0.2214
19061TIP3    H178674   0.551   1.980   6.255 -2.4886 -0.3359  1.1237
19061TIP3    H278675   0.546   1.923   6.396  0.9679 -1.6084  0.7751
19062TIP3   OH278676   3.444   1.571  11.244  0.2252 -0.5133 -0.4730
19062TIP3    H178677   3.424   1.525  11.162 -0.9441 -1.3251  0.2603
19062TIP3    H278678   3.536   1.595  11.235  0.1875 -0.8337 -1.9167
19063TIP3   OH278679   6.654   4.903   1.785  0.2804  0.2775  0.7982
19063TIP3    H178680   6.593   4.967   1.747  0.0559 -0.0019  0.6896
19063TIP3    H278681   6.738   4.923   1.742  0.0932  0.1574  0.3722
19064TIP3   OH278682   0.682   3.977  16.519  0.4095  0.3053 -0.2983
19064TIP3    H178683   0.606   4.006  16.570 -0.3335 -0.6862 -0.8299
19064TIP3    H278684   0.756   4.023  16.559 -0.4488  1.1832  0.3067
19065TIP3   OH278685   5.999   2.025  15.922  0.3972  0.4449 -0.4545
19065TIP3    H178686   6.013   2.113  15.957  0.3683  0.6545 -0.9646
19065TIP3    H278687   5.908   2.024  15.894  0.1876  0.0040  0.2450
19066TIP3   OH278688   4.054   5.654   2.907 -0.4455 -0.5451  0.1787
19066TIP3    H178689   4.019   5.592   2.844 -0.6376  0.7610 -1.0107
19066TIP3    H278690   4.083   5.600   2.981 -0.0164 -2.0973 -1.1103
19067TIP3   OH278691   0.615   2.014  15.238 -0.0967 -0.4521  0.0342
19067TIP3    H178692   0.572   1.933  15.214  0.2334 -0.3777 -0.8164
19067TIP3    H278693   0.660   2.043  15.159  0.0993  0.3647  0.4275
19068TIP3   OH278694   3.684   1.341  13.921  0.3932  0.1783 -0.6053
19068TIP3    H178695   3.689   1.285  13.843 -0.0892  1.5764 -1.6650
19068TIP3    H278696   3.598   1.381  13.916 -0.2949 -0.9679  1.5614
19069TIP3   OH278697   6.349   0.941  11.519  0.3154  0.5991 -0.0221
19069TIP3    H178698   6.395   0.935  11.435 -1.3840 -0.3141 -0.9172
19069TIP3    H278699   6.306   1.027  11.515 -1.4924 -0.3284 -1.0212
19070TIP3   OH278700   2.575   2.712  12.717  0.0573  0.5386 -0.2984
19070TIP3    H178701   2.518   2.756  12.654 -1.0627  0.3971  0.6004
19070TIP3    H278702   2.664   2.734  12.688 -0.4412  0.8900 -1.6205
19071TIP3   OH278703   4.708   6.503  11.202 -0.1106  0.2595  0.5864
19071TIP3    H178704   4.800   6.504  11.176 -0.1184 -1.5631  0.4414
19071TIP3    H278705   4.708   6.540  11.291  0.4640  2.2904 -0.2185
19072TIP3   OH278706   2.712   4.056   6.532 -0.7073 -0.9299  0.3468
19072TIP3    H178707   2.798   4.022   6.560  0.0001  1.2558  0.9357
19072TIP3    H278708   2.678   3.988   6.474  0.9761 -2.3082  0.8954
19073TIP3   OH278709   5.183   6.696  15.336  0.1325  0.0501 -0.0587
19073TIP3    H178710   5.215   6.727  15.251  1.5319 -2.1854 -0.3887
19073TIP3    H278711   5.215   6.762  15.398 -2.5778  2.7746 -1.4029
19074TIP3   OH278712   0.342   3.533   1.992 -0.2048  0.0041 -0.3533
19074TIP3    H178713   0.374   3.523   1.902 -0.8633  0.0930 -0.5991
19074TIP3    H278714   0.268   3.472   1.998  1.4042 -1.9105  0.9108
19075TIP3   OH278715   6.107   6.614  10.684 -0.1342 -0.0021  0.3714
19075TIP3    H178716   6.199   6.634  10.667 -0.2602  0.2365 -0.0524
19075TIP3    H278717   6.098   6.521  10.661 -0.1516  0.1501 -0.2494
19076TIP3   OH278718   6.227   5.133  15.025 -0.3654 -0.4334  0.0044
19076TIP3    H178719   6.295   5.150  14.959 -0.4324  1.4738  0.4081
19076TIP3    H278720   6.275   5.126  15.108 -0.7739  2.5139  0.5351
19077TIP3   OH278721   3.818   1.202   4.260  0.0321 -0.0636  0.2777
19077TIP3    H178722   3.795   1.111   4.277  0.9272 -0.4687 -0.6243
19077TIP3    H278723   3.798   1.248   4.341  0.9143 -1.3257  1.2271
19078TIP3   OH278724   1.661   1.360   2.433  0.1577 -0.1714  0.3800
19078TIP3    H178725   1.569   1.344   2.456  0.4112 -1.3849  0.5670
19078TIP3    H278726   1.656   1.411   2.352 -0.6770 -2.2135 -0.8953
19079TIP3   OH278727   6.041   3.108  12.421 -0.5843 -0.7263  0.0723
19079TIP3    H178728   6.068   3.065  12.339 -0.1248 -0.3536  0.0304
19079TIP3    H278729   6.115   3.095  12.480 -0.0227  0.8939 -0.2620
19080TIP3   OH278730   0.132   6.788   1.970  0.3665  0.0220 -0.1786
19080TIP3    H178731   0.095   6.727   2.033  1.0433  1.2143  1.4077
19080TIP3    H278732   0.091   6.765   1.887 -1.7722 -0.5156  0.9959
19081TIP3   OH278733   2.078   1.381   1.521  0.0633  0.0074  0.1012
19081TIP3    H178734   2.094   1.423   1.436 -2.3150  1.6580  0.4236
19081TIP3    H278735   2.166   1.369   1.558  1.0569  0.4699 -2.0201
19082TIP3   OH278736   5.587   4.041  10.881  0.3941 -0.3618 -0.1006
19082TIP3    H178737   5.640   4.118  10.859 -2.0426  1.5619  0.5432
19082TIP3    H278738   5.615   4.018  10.970  0.9506 -0.0429 -0.1892
19083TIP3   OH278739   3.826   1.888   2.404  0.0671 -0.1018 -0.1043
19083TIP3    H178740   3.754   1.868   2.345 -0.6595 -1.2113  1.1236
19083TIP3    H278741   3.904   1.853   2.361 -0.2882  0.0499 -0.8832
19084TIP3   OH278742   4.858   2.314   4.749  0.0247  0.0068 -0.2307
19084TIP3    H178743   4.849   2.381   4.681 -0.0521 -0.8743 -1.0871
19084TIP3    H278744   4.951   2.316   4.773  0.0831  0.2016 -0.4774
19085TIP3   OH278745   4.078   4.486  17.253 -0.4217  0.6346  0.2959
19085TIP3    H178746   4.116   4.572  17.231  1.9381 -0.4712 -0.1058
19085TIP3    H278747   4.060   4.445  17.169  2.2921 -0.8724  0.3865
19086TIP3   OH278748   4.572   6.071  15.745  0.6002  0.2452  0.4135
19086TIP3    H178749   4.534   5.984  15.754  0.4947  0.4716  2.5462
19086TIP3    H278750   4.642   6.061  15.681 -0.6763 -0.9608 -0.8316
19087TIP3   OH278751   4.621   5.648  16.643 -0.1590  0.2559  0.1475
19087TIP3    H178752   4.536   5.654  16.599 -0.2039  2.8202  0.5007
19087TIP3    H278753   4.678   5.608  16.577 -1.4432 -0.8427 -0.3438
19088TIP3   OH278754   0.871   1.180  15.282 -0.6269 -0.6261  0.4795
19088TIP3    H178755   0.791   1.231  15.286 -0.8294 -0.9789  1.0366
19088TIP3    H278756   0.922   1.210  15.357  0.1517  0.2249 -0.3653
19089TIP3   OH278757   6.061   1.234  15.426  0.2237 -0.4149  0.2467
19089TIP3    H178758   6.115   1.281  15.362  0.8788 -0.8396  0.4851
19089TIP3    H278759   6.027   1.303  15.483 -1.6770  0.1463 -1.5134
19090TIP3   OH278760   3.184   5.640  15.805 -0.6142  0.0046 -0.3194
19090TIP3    H178761   3.215   5.648  15.896 -1.3722  0.6516 -0.1104
19090TIP3    H278762   3.109   5.699  15.801 -1.4166 -1.0629 -0.9969
19091TIP3   OH278763   1.062   4.042   0.002 -0.3730  0.1683 -0.3238
19091TIP3    H178764   0.985   3.985  -0.003  0.0561 -0.3706 -1.0074
19091TIP3    H278765   1.074   4.058   0.095  0.4959 -2.2766  0.0216
19092TIP3   OH278766   1.671   2.810  13.818 -0.0983 -0.5171 -0.8059
19092TIP3    H178767   1.730   2.825  13.892 -1.3448 -3.1062  0.7864
19092TIP3    H278768   1.636   2.897  13.798  0.6269  0.3231  1.3593
19093TIP3   OH278769   2.759   4.384  16.588 -0.0485 -0.1126 -0.7089
19093TIP3    H178770   2.756   4.417  16.498  0.1253  1.4456 -0.1539
19093TIP3    H278771   2.686   4.428  16.632 -0.1706 -0.9192 -0.0952
19094TIP3   OH278772   1.294   5.069  15.633 -0.5835 -0.2814 -0.5309
19094TIP3    H178773   1.249   5.013  15.696  0.2893 -1.6013 -1.0324
19094TIP3    H278774   1.290   5.019  15.551  0.0327  0.4902 -1.0335
19095TIP3   OH278775   2.871   5.568  14.578  0.3658  0.5678 -0.0718
19095TIP3    H178776   2.934   5.533  14.641  1.2072  1.4384 -0.4384
19095TIP3    H278777   2.854   5.494  14.519 -1.0560 -0.5233  1.6303
19096TIP3   OH278778   6.578   4.974   4.115 -0.4783 -0.3106  0.1076
19096TIP3    H178779   6.663   5.009   4.090 -0.6129 -0.7067 -0.9515
19096TIP3    H278780   6.528   4.973   4.033 -0.6655 -2.4282  0.2071
19097TIP3   OH278781   2.803   5.069   3.867 -0.2325  0.3801 -0.5663
19097TIP3    H178782   2.754   5.044   3.788 -0.4743 -1.8058  0.2273
19097TIP3    H278783   2.735   5.096   3.929 -0.3373 -0.9386 -0.0734
19098TIP3   OH278784   0.172   6.094   5.021  0.3146  0.3985  0.1668
19098TIP3    H178785   0.237   6.082   5.090 -1.6115 -1.1650  1.7829
19098TIP3    H278786   0.100   6.141   5.064 -1.0823 -0.9778 -0.6152
19099TIP3   OH278787   0.497   4.530  13.729  0.1104  0.5592 -0.0052
19099TIP3    H178788   0.490   4.469  13.802  3.8890  1.9930  1.6683
19099TIP3    H278789   0.435   4.600  13.749 -0.5401 -0.1955  0.6271
19100TIP3   OH278790   0.308   0.259   0.114 -0.3269  0.2042  1.0215
19100TIP3    H178791   0.384   0.210   0.144 -1.0660 -1.6369 -0.0408
19100TIP3    H278792   0.237   0.230   0.170 -0.3359  1.6983  1.8132
19101TIP3   OH278793   3.200   3.168  11.471  0.6634  0.5372 -0.4655
19101TIP3    H178794   3.286   3.128  11.483 -0.3975 -0.9121  3.1110
19101TIP3    H278795   3.158   3.114  11.403  2.1362  0.4973 -1.3453
19102TIP3   OH278796   4.358   0.855   3.193  0.5438  0.4662  0.1306
19102TIP3    H178797   4.291   0.828   3.256 -0.8157  1.8529 -0.6821
19102TIP3    H278798   4.397   0.934   3.232 -0.8316  1.7818 -1.0734
19103TIP3   OH278799   2.259   6.042  13.773 -0.0832  0.2270  0.5329
19103TIP3    H178800   2.202   6.115  13.794  0.0845  0.5521 -0.1158
19103TIP3    H278801   2.201   5.967  13.766 -0.2958  0.3591  0.8915
19104TIP3   OH278802   6.589   1.230   1.627  0.4595  0.1475 -0.1919
19104TIP3    H178803   6.517   1.244   1.688  0.7830  0.6134  0.0862
19104TIP3    H278804   6.661   1.283   1.662  1.0251 -0.5266 -0.3063
19105TIP3   OH278805   4.501   1.952   0.732  0.3301 -0.1524  0.0766
19105TIP3    H178806   4.426   1.977   0.785  0.1796  1.1713 -0.7296
19105TIP3    H278807   4.516   1.860   0.753 -1.6686 -0.5063  0.0615
19106TIP3   OH278808   3.604   5.729  16.523 -0.5136 -0.2188 -0.4116
19106TIP3    H178809   3.592   5.716  16.429  0.8297 -1.0123 -0.4836
19106TIP3    H278810   3.520   5.764  16.553 -2.0240 -2.8647 -1.3623
19107TIP3   OH278811   0.863   1.362  17.227  0.2836 -0.2244 -0.1155
19107TIP3    H178812   0.866   1.454  17.252 -2.2462  0.3624 -1.7345
19107TIP3    H278813   0.928   1.320  17.282 -0.0736  2.1724  2.2458
19108TIP3   OH278814   6.001   6.080  16.590 -0.0105 -0.6166  0.4910
19108TIP3    H178815   6.090   6.099  16.563 -0.5684  1.5993  0.1183
19108TIP3    H278816   5.965   6.027  16.519  0.2682  0.5091 -0.5102
19109TIP3   OH278817   5.430   3.411   0.361  0.2048  0.2802  0.4179
19109TIP3    H178818   5.338   3.436   0.368  0.5139  1.7764 -0.6350
19109TIP3    H278819   5.433   3.346   0.291  0.0111  0.5569  0.1542
19110TIP3   OH278820   0.269   4.405  17.154  0.2148 -0.0429  0.3424
19110TIP3    H178821   0.285   4.319  17.114 -0.3070  0.0691 -0.1192
19110TIP3    H278822   0.288   4.393  17.247  0.6937 -0.5130  0.1842
19111TIP3   OH278823   2.875   2.436  12.274  0.6265 -0.3927  0.0309
19111TIP3    H178824   2.857   2.343  12.290  0.0692 -0.1194  1.0600
19111TIP3    H278825   2.968   2.439  12.250  0.4059 -1.3192 -0.9580
19112TIP3   OH278826   1.181   4.647  16.407  0.4355 -0.3931  0.7381
19112TIP3    H178827   1.149   4.684  16.489 -1.8219  0.8313 -0.6361
19112TIP3    H278828   1.108   4.594  16.375  1.4944 -1.2997 -0.2239
19113TIP3   OH278829   3.416   4.166   3.048 -0.0241  0.2854 -0.5217
19113TIP3    H178830   3.327   4.196   3.068 -0.3116 -0.4504 -0.6616
19113TIP3    H278831   3.473   4.229   3.090 -0.6176  0.8973 -0.6255
19114TIP3   OH278832   6.555   4.646  15.711  0.0083 -0.3626 -0.0058
19114TIP3    H178833   6.597   4.591  15.645  1.3134 -0.7614  1.1417
19114TIP3    H278834   6.625   4.670  15.771 -0.6513  2.1292 -0.1735
19115TIP3   OH278835   5.009   5.509  17.002 -0.4380 -0.0106  0.5431
19115TIP3    H178836   4.932   5.454  17.012  0.4384 -1.2388  0.6226
19115TIP3    H278837   4.985   5.572  16.933 -1.3848 -0.5949  0.3376
19116TIP3   OH278838   6.628   2.599  13.436  0.8060  0.0216 -0.5942
19116TIP3    H178839   6.688   2.671  13.417 -0.6204  2.2335  2.7899
19116TIP3    H278840   6.670   2.551  13.507  0.1728 -0.5102 -0.5742
19117TIP3   OH278841   6.671   5.917  11.229 -0.0681 -0.0144  0.2889
19117TIP3    H178842   6.659   5.995  11.284 -1.0264 -1.3602  2.0094
19117TIP3    H278843   6.688   5.953  11.142  0.6998  2.1493  1.2807
19118TIP3   OH278844   5.597   0.455  12.790  0.2923 -0.0030  0.1715
19118TIP3    H178845   5.503   0.472  12.787  0.1082 -0.0869  3.2231
19118TIP3    H278846   5.604   0.365  12.822  1.3670  0.8267  2.4238
19119TIP3   OH278847   2.189   4.670  16.308  0.2523 -0.0938 -0.4362
19119TIP3    H178848   2.259   4.622  16.264  0.9423  1.0938 -0.6510
19119TIP3    H278849   2.166   4.616  16.383 -0.7116 -2.0123 -2.0410
19120TIP3   OH278850   1.486   3.057  14.003 -0.1429 -0.2978 -0.6341
19120TIP3    H178851   1.568   3.012  13.981 -1.0037 -0.9982 -2.4581
19120TIP3    H278852   1.508   3.150  13.996  0.7225 -0.4618 -0.2443
19121TIP3   OH278853   3.739   0.603  14.039  0.2482  0.4753  0.0739
19121TIP3    H178854   3.659   0.616  13.987  0.2040  0.8495  0.2266
19121TIP3    H278855   3.713   0.541  14.107  0.6867 -1.1038 -1.1744
19122TIP3   OH278856   2.849   4.331   6.489 -0.1315 -0.4077 -0.4465
19122TIP3    H178857   2.894   4.263   6.539  0.0887  0.2020  0.1858
19122TIP3    H278858   2.888   4.413   6.520 -2.6567  0.2362  1.1037
19123TIP3   OH278859   3.818   4.744   0.091  0.4273  0.6113 -0.1053
19123TIP3    H178860   3.808   4.702   0.006  1.7508  1.4166 -0.6736
19123TIP3    H278861   3.746   4.807   0.094 -2.6331 -2.8194  1.4925
19124TIP3   OH278862   6.320   0.018  12.797  0.3817  0.5759  0.3825
19124TIP3    H178863   6.274  -0.031  12.729 -0.8248  0.5260  1.2231
19124TIP3    H278864   6.291   0.108  12.786 -1.6889  0.2020  2.3051
19125TIP3   OH278865   6.314   3.558  16.673  0.2139  0.4725 -0.2674
19125TIP3    H178866   6.267   3.535  16.592  3.0111 -0.6410 -1.6438
19125TIP3    H278867   6.328   3.474  16.717 -0.9884  1.0431  1.2415
19126TIP3   OH278868   2.813   5.301   4.868  0.3461  0.5542 -0.4298
19126TIP3    H178869   2.747   5.370   4.865 -0.4518  0.0474  2.8332
19126TIP3    H278870   2.762   5.220   4.869  1.2118 -0.0336 -2.1876
19127TIP3   OH278871   1.364   0.670  14.756 -0.6083 -0.2287  0.1223
19127TIP3    H178872   1.274   0.641  14.740 -0.4798 -0.1065 -0.8505
19127TIP3    H278873   1.360   0.765  14.751 -0.4566 -0.2176  0.2126
19128TIP3   OH278874   0.057   1.168   5.185 -0.4119 -0.3760 -0.2183
19128TIP3    H178875   0.139   1.148   5.140 -0.1161  0.0114  0.1506
19128TIP3    H278876  -0.011   1.130   5.129  0.0908 -1.6237  0.0257
19129TIP3   OH278877   1.357   6.463   4.512 -0.4279  0.2672 -0.0578
19129TIP3    H178878   1.449   6.458   4.487 -0.5883 -1.9619 -0.2798
19129TIP3    H278879   1.344   6.390   4.572 -1.7939  1.2358  0.8614
19130TIP3   OH278880   3.922   3.046   5.578 -0.3045  0.0562 -0.2111
19130TIP3    H178881   3.866   3.010   5.646  0.2447  0.0694  0.2545
19130TIP3    H278882   3.885   3.132   5.558  0.7395  0.9528  1.5642
19131TIP3   OH278883   6.046   5.271  13.601 -0.1571 -0.4935 -0.1245
19131TIP3    H178884   6.131   5.315  13.600 -0.1249 -0.5559 -0.1236
19131TIP3    H278885   6.012   5.283  13.512 -0.4919  0.2090  0.0926
19132TIP3   OH278886   6.043   5.723  11.608  0.4591 -0.2645  0.2995
19132TIP3    H178887   6.104   5.690  11.543 -1.3578 -1.1044 -1.0337
19132TIP3    H278888   5.957   5.691  11.579 -0.9249  2.7767  0.8588
19133TIP3   OH278889   6.220   5.594  13.086  0.8244 -0.0287  0.7726
19133TIP3    H178890   6.232   5.517  13.142  1.2989 -0.0600  0.6328
19133TIP3    H278891   6.265   5.664  13.133  1.1580 -0.0378  0.4635
19134TIP3   OH278892   1.053   4.189   2.778  0.0749  1.2414 -0.1242
19134TIP3    H178893   1.069   4.272   2.732 -1.8532  0.9762 -1.3158
19134TIP3    H278894   0.979   4.150   2.732  0.5795 -0.8727  0.8091
19135TIP3   OH278895   5.423   1.057   4.085  0.2258  0.1154  0.1137
19135TIP3    H178896   5.358   1.004   4.039 -1.1893  0.0344  2.1375
19135TIP3    H278897   5.376   1.137   4.110  1.6635  1.2663 -0.7747
19136TIP3   OH278898   6.778   2.079   1.329 -0.5595 -0.8642 -0.1278
19136TIP3    H178899   6.729   2.023   1.390  0.1885 -3.6073 -1.9543
19136TIP3    H278900   6.710   2.125   1.279 -1.2118 -1.2285  0.4177
19137TIP3   OH278901   0.408   0.427  12.514  0.5237 -0.1183  0.3512
19137TIP3    H178902   0.342   0.358  12.510 -0.3775  0.6346  1.7638
19137TIP3    H278903   0.473   0.394  12.576 -0.6111  0.8610  2.1056
19138TIP3   OH278904   1.699   1.979  17.230  0.0802 -0.1257  0.1600
19138TIP3    H178905   1.738   1.987  17.317 -0.8581  0.0630  0.5769
19138TIP3    H278906   1.631   1.912  17.241  0.5822 -0.7851 -0.6592
19139TIP3   OH278907   3.393   6.321   1.140 -0.1799 -0.5269  0.4492
19139TIP3    H178908   3.384   6.228   1.161 -1.6442 -0.2419  1.0999
19139TIP3    H278909   3.331   6.365   1.197 -0.6098  0.7243 -0.9500
19140TIP3   OH278910   0.877   4.626   2.898 -0.4995 -0.0468  0.3875
19140TIP3    H178911   0.874   4.677   2.979 -1.1340  1.8788 -0.7931
19140TIP3    H278912   0.793   4.580   2.896  0.2436 -1.5147  1.6609
19141TIP3   OH278913   1.284   0.472   3.745  0.1967  0.3851 -0.3391
19141TIP3    H178914   1.358   0.411   3.753  0.8137  1.2336  0.6718
19141TIP3    H278915   1.270   0.481   3.651  0.8396 -0.4481 -0.5188
19142TIP3   OH278916   2.970   0.226  15.617 -0.4975  0.0321  0.7251
19142TIP3    H178917   2.889   0.202  15.662  0.7487  0.0426  3.0442
19142TIP3    H278918   3.033   0.160  15.646  1.2077  2.0518  1.7036
19143TIP3   OH278919   0.671   4.825   1.670  0.0091  0.2516 -0.1664
19143TIP3    H178920   0.719   4.908   1.673  0.8377 -0.1966 -0.8191
19143TIP3    H278921   0.591   4.841   1.720  0.6132  1.1578  0.5092
19144TIP3   OH278922   1.365   3.900  11.192  0.1254  0.2309 -0.1070
19144TIP3    H178923   1.276   3.870  11.210  0.9257 -1.4019  1.3424
19144TIP3    H278924   1.394   3.940  11.274  0.8170  0.5206 -0.4884
19145TIP3   OH278925   1.884   6.123  12.732  0.1431  0.2660 -1.0664
19145TIP3    H178926   1.824   6.175  12.679  0.2529 -0.5132 -1.9697
19145TIP3    H278927   1.957   6.182  12.751 -0.1164  0.6892 -1.3935
19146TIP3   OH278928   3.615   2.425   4.451  0.3723 -0.1147  0.2704
19146TIP3    H178929   3.566   2.383   4.521 -0.4155 -0.9485 -0.7646
19146TIP3    H278930   3.577   2.390   4.371 -0.8888  3.1680 -0.6618
19147TIP3   OH278931   3.492   4.758  16.582 -0.4029 -0.8113 -0.5830
19147TIP3    H178932   3.544   4.798  16.513 -0.8597  1.9437  0.6165
19147TIP3    H278933   3.530   4.671  16.593  1.0457 -0.5061 -2.8039
19148TIP3   OH278934   5.264   5.829   5.351 -0.5425  0.6275  0.0563
19148TIP3    H178935   5.299   5.807   5.437 -0.3622  1.6581  0.2513
19148TIP3    H278936   5.183   5.876   5.369 -0.2075  1.3644 -0.3190
19149TIP3   OH278937   3.228   4.850   0.841 -0.3596  0.3864 -0.4174
19149TIP3    H178938   3.165   4.800   0.789 -0.0372  0.8365 -1.2547
19149TIP3    H278939   3.231   4.805   0.926 -1.6429  0.2312 -0.4436
19150TIP3   OH278940   1.086   0.186   3.988  0.3952  0.1177  0.3581
19150TIP3    H178941   1.053   0.097   3.972  0.2970  0.3348 -0.7225
19150TIP3    H278942   1.181   0.179   3.977  0.2713  0.3912 -0.9989
19151TIP3   OH278943   3.898   1.488  13.179  0.4319 -0.0398  0.1014
19151TIP3    H178944   3.835   1.461  13.112 -1.1170 -0.1501  1.5881
19151TIP3    H278945   3.936   1.406  13.210 -1.8812 -0.3333  2.2817
19152TIP3   OH278946   0.852   3.619   2.837 -0.0455  0.3170 -0.7803
19152TIP3    H178947   0.856   3.707   2.876  0.9533  0.5621 -1.4356
19152TIP3    H278948   0.782   3.575   2.886  1.5048  0.4510  1.6549
19153TIP3   OH278949   2.048   5.733  14.042 -0.0019  0.5092 -0.0650
19153TIP3    H178950   1.999   5.661  14.081  1.2971  0.1015  0.8220
19153TIP3    H278951   2.000   5.812  14.070 -1.6189  0.0008 -1.3256
19154TIP3   OH278952   1.738   5.479   4.686  0.0889 -0.1378 -0.0688
19154TIP3    H178953   1.735   5.493   4.591 -0.4340  1.9717  0.2396
19154TIP3    H278954   1.652   5.445   4.708 -0.0360  0.0629 -0.2456
19155TIP3   OH278955   1.879   0.456   3.403  0.0840  0.4141 -0.1470
19155TIP3    H178956   1.945   0.497   3.460  2.2670 -2.4730 -0.4652
19155TIP3    H278957   1.867   0.519   3.332  3.1823  0.6965 -0.5183
19156TIP3   OH278958   1.844   1.784   1.348  0.2423 -0.4976  0.0707
19156TIP3    H178959   1.811   1.694   1.348  0.1560 -0.4998  2.5451
19156TIP3    H278960   1.937   1.776   1.329  0.5684 -1.2933  1.8659
19157TIP3   OH278961   6.119   3.876   6.134 -0.1530 -0.2924 -0.1192
19157TIP3    H178962   6.060   3.806   6.161 -0.0491  0.3703  1.8730
19157TIP3    H278963   6.177   3.889   6.209  0.5346  1.1758 -0.8854
19158TIP3   OH278964   3.522   5.329  13.303 -0.2791 -0.4617  0.3574
19158TIP3    H178965   3.472   5.324  13.221  1.8235  1.3816 -1.1145
19158TIP3    H278966   3.468   5.383  13.361 -0.4345  0.7970 -0.9116
19159TIP3   OH278967   2.718   2.267  11.798 -0.1920 -0.1304  0.4175
19159TIP3    H178968   2.659   2.312  11.738  0.2104  0.3248  0.3605
19159TIP3    H278969   2.794   2.243  11.745  0.4301  0.8031  0.8737
19160TIP3   OH278970   3.595   3.788   6.100  0.3051 -0.1615 -0.0010
19160TIP3    H178971   3.595   3.693   6.091  1.0617 -0.1002 -0.6838
19160TIP3    H278972   3.564   3.804   6.189  4.5799 -1.1814  1.7498
19161TIP3   OH278973   5.530   4.478   3.122  0.9114  0.3245 -0.3451
19161TIP3    H178974   5.480   4.429   3.057  0.2334  0.2947  0.1859
19161TIP3    H278975   5.598   4.417   3.151 -0.9111 -0.9281  1.4904
19162TIP3   OH278976   6.048   2.629   4.514 -0.5083  0.8861 -0.0516
19162TIP3    H178977   6.058   2.663   4.604 -0.8399  0.4892  0.1367
19162TIP3    H278978   5.973   2.570   4.519  1.4692 -1.6883  0.1578
19163TIP3   OH278979   5.197   6.305  11.681  0.4297  0.1771  0.9379
19163TIP3    H178980   5.186   6.326  11.774 -0.7317 -0.1444  0.8779
19163TIP3    H278981   5.158   6.218  11.671 -2.9594  1.7960 -0.5953
19164TIP3   OH278982   1.457   6.090   2.612 -0.2748  0.1451 -0.0635
19164TIP3    H178983   1.436   6.062   2.523  0.2917 -0.1840 -0.0964
19164TIP3    H278984   1.550   6.071   2.622 -0.3911 -0.0624  0.6888
19165TIP3   OH278985   4.871   6.596   4.244 -0.3853 -0.5588  0.2964
19165TIP3    H178986   4.925   6.528   4.205  0.9815  1.7364 -1.9909
19165TIP3    H278987   4.798   6.549   4.283  2.0452 -3.5612  1.4602
19166TIP3   OH278988   4.507   1.867  11.718  0.3470  0.3300  0.2443
19166TIP3    H178989   4.522   1.912  11.635  2.5764  1.5973  1.2825
19166TIP3    H278990   4.496   1.938  11.782 -1.1010 -0.6293  1.0892
19167TIP3   OH278991   2.282   4.681  15.021  0.1811 -0.5098 -0.2795
19167TIP3    H178992   2.239   4.756  14.980  1.6939  1.1409  1.0909
19167TIP3    H278993   2.224   4.608  15.003 -0.9352  0.8339 -2.3277
19168TIP3   OH278994   3.831   0.804   3.498 -0.0125  0.1995 -0.0739
19168TIP3    H178995   3.876   0.888   3.510  0.1308 -0.2599  3.0803
19168TIP3    H278996   3.899   0.739   3.512 -0.9365 -0.4663  1.4200
19169TIP3   OH278997   6.168   5.275  12.229  0.8296  0.4950  0.1760
19169TIP3    H178998   6.185   5.365  12.256 -0.4042  1.2221 -1.3915
19169TIP3    H278999   6.076   5.261  12.250  0.7243 -0.0113 -0.6122
19170TIP3   OH279000   4.716   5.583  15.395 -0.1392  0.0088 -0.0614
19170TIP3    H179001   4.782   5.516  15.412 -0.5215 -0.5009 -0.6070
19170TIP3    H279002   4.677   5.559  15.312  0.0976  1.2160 -0.5353
19171TIP3   OH279003   1.939   3.008   3.318 -0.8642  0.1597 -0.6012
19171TIP3    H179004   1.878   2.949   3.361  2.1828 -1.1731  2.1299
19171TIP3    H279005   1.900   3.095   3.329 -2.6530 -0.7446  0.3208
19172TIP3   OH279006   4.903   6.818  17.202 -0.3488 -0.6024  0.1898
19172TIP3    H179007   4.962   6.813  17.126  0.0801  0.3201  0.4528
19172TIP3    H279008   4.882   6.726  17.221 -0.2216 -0.8630 -0.8518
19173TIP3   OH279009   0.966   0.068   0.089  0.0590 -0.4252  0.1693
19173TIP3    H179010   1.059   0.049   0.091 -0.1963 -1.9476 -1.4265
19173TIP3    H279011   0.924  -0.010   0.125 -0.6644 -0.3684 -0.5225
19174TIP3   OH279012   4.406   3.267   5.588  0.2104 -0.4677  0.2788
19174TIP3    H179013   4.316   3.249   5.564  0.0699 -0.3015  0.6724
19174TIP3    H279014   4.443   3.311   5.511 -0.5449  1.0365  0.7493
19175TIP3   OH279015   3.851   2.804   2.936 -0.2167 -0.4899  0.5799
19175TIP3    H179016   3.785   2.747   2.896  0.3158 -1.1257  0.5983
19175TIP3    H279017   3.897   2.747   2.998 -0.0171  0.0952  0.9715
19176TIP3   OH279018   5.191   1.601  15.793 -0.5386  0.1801 -0.1261
19176TIP3    H179019   5.190   1.589  15.698  0.2610 -0.3186 -0.0762
19176TIP3    H279020   5.276   1.567  15.820 -0.5749  0.7563  0.7144
19177TIP3   OH279021   6.138   1.946  14.023 -0.2610  0.1741 -0.1356
19177TIP3    H179022   6.107   1.934  14.112  1.1074 -0.2009  0.3139
19177TIP3    H279023   6.165   2.037  14.018 -0.7174  0.2991 -0.2853
19178TIP3   OH279024   6.735   4.075   5.451  0.1170  0.0780  0.2695
19178TIP3    H179025   6.654   4.125   5.464 -0.0901 -0.4855  1.2830
19178TIP3    H279026   6.788   4.128   5.392 -1.9075 -0.5472 -2.2052
19179TIP3   OH279027   6.467   1.887  10.911 -0.0800 -0.2429  0.1382
19179TIP3    H179028   6.536   1.843  10.961 -0.2362 -1.0147 -0.3247
19179TIP3    H279029   6.456   1.972  10.955 -0.1551 -0.8790  1.3509
19180TIP3   OH279030   0.126   2.709  14.008  0.5991 -0.0318  0.0988
19180TIP3    H179031   0.155   2.755  14.087  1.4897  0.3369 -0.4366
19180TIP3    H279032   0.031   2.721  14.007  0.5908  0.0502  1.0562
19181TIP3   OH279033   2.899   5.879  12.719 -0.2687 -0.0191  0.1251
19181TIP3    H179034   2.815   5.908  12.756 -0.2957  0.4098 -0.2700
19181TIP3    H279035   2.875   5.832  12.640 -0.0941  0.8400 -0.4522
19182TIP3   OH279036   3.871   5.393  16.066  0.4864  0.4332  0.2136
19182TIP3    H179037   3.939   5.369  16.004  1.4375  1.4273  0.8703
19182TIP3    H279038   3.792   5.349  16.032  0.8333  1.4948 -2.0548
19183TIP3   OH279039   4.943   0.424  12.735 -0.6226  0.1466  0.2410
19183TIP3    H179040   4.879   0.483  12.694 -0.1820  0.5880  0.1748
19183TIP3    H279041   4.891   0.364  12.788 -1.1436  0.0552 -0.3659
19184TIP3   OH279042   0.150   4.639   1.341 -0.8525 -0.2097 -0.1234
19184TIP3    H179043   0.108   4.555   1.323  1.6317 -1.7313  0.7911
19184TIP3    H279044   0.190   4.664   1.258 -0.6778 -0.4877 -0.1234
19185TIP3   OH279045   1.788   1.072  16.769 -0.2199  0.6739  0.3307
19185TIP3    H179046   1.872   1.103  16.802  0.2619 -1.6050  1.2833
19185TIP3    H279047   1.790   1.092  16.675  1.7930 -0.2320  0.1544
19186TIP3   OH279048   3.394   0.713   3.376 -0.1976  0.9648 -0.4439
19186TIP3    H179049   3.396   0.618   3.364 -2.6058  1.0721 -1.9670
19186TIP3    H279050   3.463   0.730   3.441 -0.3642 -1.9004  0.5742
19187TIP3   OH279051   1.039   3.900  12.531 -1.0165  0.1461 -0.7685
19187TIP3    H179052   1.026   3.993  12.550 -2.6687  0.1882 -2.0581
19187TIP3    H279053   1.084   3.866  12.609 -2.6997  1.4783  0.8342
19188TIP3   OH279054   4.423   5.393  13.461  0.0152 -0.4716 -0.3248
19188TIP3    H179055   4.389   5.473  13.423  3.6111  1.0552 -0.5346
19188TIP3    H279056   4.392   5.393  13.552 -0.6426  0.7416 -0.5494
19189TIP3   OH279057   6.446   6.280   0.945  1.0382 -0.0187 -0.0943
19189TIP3    H179058   6.444   6.224   0.867  0.9470 -0.1357 -0.0072
19189TIP3    H279059   6.466   6.367   0.910  2.9070 -0.4007 -0.0482
19190TIP3   OH279060   1.642   0.422  11.138 -0.1164  0.1063  0.2539
19190TIP3    H179061   1.732   0.454  11.146 -0.6025  1.4707  0.3415
19190TIP3    H279062   1.647   0.330  11.164  1.0604  0.4541  1.2998
19191TIP3   OH279063   2.566   6.550  11.960 -0.4872 -0.0965 -0.0695
19191TIP3    H179064   2.558   6.623  12.022  2.7450  0.2326  0.0752
19191TIP3    H279065   2.568   6.593  11.874 -0.0902 -0.1315 -0.0794
19192TIP3   OH279066   1.798   0.023  11.938  0.2127 -1.0303 -0.1500
19192TIP3    H179067   1.811  -0.060  11.985  0.8589 -0.1059  1.3420
19192TIP3    H279068   1.745   0.076  11.999 -0.7644 -0.5827 -1.3729
19193TIP3   OH279069   6.427   1.637  17.055 -0.5106  0.0390  0.1264
19193TIP3    H179070   6.506   1.654  17.003  0.6545 -0.1818  1.7895
19193TIP3    H279071   6.362   1.697  17.020 -0.1168 -0.9104 -2.3671
19194TIP3   OH279072   2.591   2.334  11.560 -0.1795  0.0814  0.5656
19194TIP3    H179073   2.597   2.239  11.554 -0.5413  0.0773  0.2586
19194TIP3    H279074   2.501   2.351  11.588 -0.4294  0.3710 -0.3817
19195TIP3   OH279075   6.002   5.225  11.997 -0.2442 -0.4501  0.2018
19195TIP3    H179076   5.998   5.137  12.035 -1.4969 -0.6380 -0.3509
19195TIP3    H279077   6.083   5.262  12.032  1.1005 -2.3680 -0.7476
19196TIP3   OH279078   5.944   0.605   0.979  0.0924 -0.3101  0.5606
19196TIP3    H179079   5.888   0.538   0.941 -0.3695  0.3943 -0.0173
19196TIP3    H279080   5.991   0.642   0.904  0.3019  0.0445  0.8644
19197TIP3   OH279081   6.794   2.249   2.995  0.0552  0.1490 -0.1092
19197TIP3    H179082   6.787   2.309   3.070  1.8088 -0.2106  0.3651
19197TIP3    H279083   6.885   2.219   2.997  0.1293  0.1993 -2.4554
19198TIP3   OH279084   4.910   4.368  11.557  0.1090  0.2439 -0.2535
19198TIP3    H179085   4.992   4.378  11.606 -0.5567  0.1556  0.9041
19198TIP3    H279086   4.901   4.273  11.544 -0.0351  0.2182  0.0273
19199TIP3   OH279087   2.318   2.212  11.221 -0.2278  0.5317 -0.0108
19199TIP3    H179088   2.401   2.217  11.174  1.0883  0.4457  2.2286
19199TIP3    H279089   2.325   2.277  11.290 -1.6047 -0.2124  0.8622
19200TIP3   OH279090   1.973   0.218  11.839  0.6747 -0.5583  0.4190
19200TIP3    H179091   2.032   0.170  11.781  0.0365 -1.1984  0.2875
19200TIP3    H279092   1.918   0.151  11.878 -0.4892  0.0950 -0.0610
19201TIP3   OH279093   2.342   3.420  15.997  0.3263 -0.0459  0.0208
19201TIP3    H179094   2.251   3.423  15.967  0.5362  2.4025 -0.5169
19201TIP3    H279095   2.336   3.430  16.092 -0.0052 -0.8612  0.0892
19202TIP3   OH279096   4.048   2.173  16.501  0.3171  0.3777  0.3925
19202TIP3    H179097   4.052   2.214  16.588 -1.7684 -0.9739  1.1586
19202TIP3    H279098   3.968   2.120  16.503  0.7384 -0.3967 -2.0406
19203TIP3   OH279099   6.132   5.545   0.924 -0.9320  0.8815  0.5375
19203TIP3    H179100   6.129   5.629   0.969  0.8340  1.0132  0.4403
19203TIP3    H279101   6.133   5.567   0.831 -1.8957  0.6983  0.4797
19204TIP3   OH279102   4.438   2.500  12.863  0.3798  0.2447 -0.3845
19204TIP3    H179103   4.500   2.435  12.829 -1.9796 -1.6305 -1.1684
19204TIP3    H279104   4.379   2.451  12.919 -0.7659  1.9209 -0.0936
19205TIP3   OH279105   2.482   4.636  16.984  0.2406 -0.3078 -0.0311
19205TIP3    H179106   2.544   4.703  16.955  1.1173 -1.1600 -0.1724
19205TIP3    H279107   2.398   4.681  16.989  0.9594  0.9967  0.6328
19206TIP3   OH279108   3.969   0.525  13.807  0.5581 -0.0042 -0.1919
19206TIP3    H179109   3.909   0.490  13.873  0.7850 -1.4258 -0.7190
19206TIP3    H279110   4.052   0.536  13.853  1.0942 -2.2878 -0.5266
19207TIP3   OH279111   1.937   4.319  15.210  0.1564 -0.3843  0.5049
19207TIP3    H179112   1.944   4.285  15.299 -1.2068  0.0037  0.7802
19207TIP3    H279113   1.845   4.309  15.188  0.4420 -0.2612 -0.7838
19208TIP3   OH279114   3.640   2.383   5.123  0.4723  0.6228  0.7609
19208TIP3    H179115   3.720   2.426   5.153  0.5880  1.1820 -0.3213
19208TIP3    H279116   3.672   2.312   5.066  0.1881  2.4280 -1.7690
19209TIP3   OH279117   5.932   4.343  15.224 -0.1626 -0.4291 -0.3031
19209TIP3    H179118   5.885   4.309  15.148 -0.9107  2.2570 -1.1292
19209TIP3    H279119   5.863   4.372  15.284  0.3834  2.3179 -0.9450
19210TIP3   OH279120   4.663   1.354  11.313  0.3790 -0.3978 -0.4156
19210TIP3    H179121   4.630   1.382  11.228  1.9234 -0.1514 -0.9530
19210TIP3    H279122   4.728   1.420  11.337  1.3766 -1.5101  0.0359
19211TIP3   OH279123   1.015   5.672   3.278 -0.2457  0.6771  0.3435
19211TIP3    H179124   1.038   5.725   3.202  1.9501 -1.5341 -0.6171
19211TIP3    H279125   1.099   5.643   3.313 -1.3483 -1.4301  1.3424
19212TIP3   OH279126   6.598   3.916  11.408 -0.3059 -0.4496 -0.4609
19212TIP3    H179127   6.615   4.003  11.443 -0.7728 -1.2752  1.8694
19212TIP3    H279128   6.516   3.889  11.449  1.4414 -3.2757  1.2867
19213TIP3   OH279129   4.709   6.167  15.270  0.2777  0.2913 -0.3694
19213TIP3    H179130   4.677   6.087  15.229  0.1069  0.0816  0.1551
19213TIP3    H279131   4.630   6.209  15.305  0.3730  0.6634 -0.6037
19214TIP3   OH279132   6.430   3.338  11.770 -0.5621  0.1732  0.2738
19214TIP3    H179133   6.385   3.374  11.845 -0.5441  1.7179 -0.4372
19214TIP3    H279134   6.480   3.264  11.805 -1.9989 -0.2675  1.4231
19215TIP3   OH279135   3.635   5.760   0.724 -0.6065 -0.1723  0.5942
19215TIP3    H179136   3.645   5.824   0.653 -1.1502 -0.3925  0.3143
19215TIP3    H279137   3.702   5.783   0.788  1.1377 -1.1134 -0.8489
19216TIP3   OH279138   1.417   6.542  12.669  0.1396  0.0988  0.7792
19216TIP3    H179139   1.452   6.551  12.757 -0.9266 -1.1524  1.3401
19216TIP3    H279140   1.491   6.509  12.618  0.3586 -0.5553  1.5137
19217TIP3   OH279141   0.539   1.323  10.533 -0.0149  0.3470 -0.1719
19217TIP3    H179142   0.623   1.289  10.564  0.8729  1.1738 -1.6361
19217TIP3    H279143   0.512   1.261  10.465 -0.2033  0.5139 -0.2483
19218TIP3   OH279144   0.154   4.246   1.373  0.4335 -0.2333 -0.0579
19218TIP3    H179145   0.089   4.234   1.442  1.1622 -2.4726  0.2765
19218TIP3    H279146   0.222   4.300   1.414 -1.6348  3.0098 -0.7299
19219TIP3   OH279147   1.968   6.506   3.902  0.2271 -0.3797 -0.1897
19219TIP3    H179148   1.941   6.561   3.828  4.0122 -0.9538 -2.1017
19219TIP3    H279149   1.894   6.510   3.963 -1.8978  2.2518 -2.8030
19220TIP3   OH279150   3.594   2.884  13.978 -0.3541  0.3546  0.0388
19220TIP3    H179151   3.630   2.936  13.906  0.6189  0.5406  0.6601
19220TIP3    H279152   3.553   2.809  13.935  0.9607  0.0310 -0.6641
19221TIP3   OH279153   2.613   1.780  14.226 -0.2868 -0.3725  0.3061
19221TIP3    H179154   2.619   1.719  14.152 -1.6721 -1.2679  0.9228
19221TIP3    H279155   2.672   1.744  14.292 -0.4002 -0.5552  0.3110
19222TIP3   OH279156   6.450   0.404  15.870 -0.3063 -0.4948 -0.5687
19222TIP3    H179157   6.460   0.370  15.781  0.6329 -1.0216 -0.2651
19222TIP3    H279158   6.492   0.338  15.926  0.5668  0.6352  0.1203
19223TIP3   OH279159   5.217   0.134   2.596  0.0254  0.0582 -0.6069
19223TIP3    H179160   5.168   0.079   2.535 -0.6255  1.2775 -1.2054
19223TIP3    H279161   5.256   0.073   2.658 -0.0221 -1.1377 -1.7323
19224TIP3   OH279162   4.095   5.899   4.893  0.2656 -0.5469  0.1963
19224TIP3    H179163   4.021   5.895   4.831 -0.0723 -2.6297  0.6894
19224TIP3    H279164   4.171   5.916   4.838 -0.3055 -0.3844 -0.5617
19225TIP3   OH279165   6.519   1.173  13.153 -0.0577  0.2736  0.1206
19225TIP3    H179166   6.614   1.184  13.154 -0.0493  0.3145 -1.0366
19225TIP3    H279167   6.506   1.078  13.160  0.0564  0.2777  0.4241
19226TIP3   OH279168   0.575   2.161   0.494  0.1325  0.1467 -0.3987
19226TIP3    H179169   0.668   2.174   0.481 -0.0940 -0.1009 -2.3685
19226TIP3    H279170   0.534   2.197   0.415 -1.4800  0.8265  0.7071
19227TIP3   OH279171   6.505   2.117  12.932 -0.3044  0.0064  0.1858
19227TIP3    H179172   6.463   2.183  12.878 -1.3585  1.2659  2.4472
19227TIP3    H279173   6.434   2.056  12.955 -0.4789  0.9846  2.3206
19228TIP3   OH279174   2.603   1.629   3.187 -0.4096 -0.0683 -0.0427
19228TIP3    H179175   2.668   1.653   3.121  0.0531  2.0803  1.1580
19228TIP3    H279176   2.654   1.606   3.265 -0.9154 -3.3197 -0.5696
19229TIP3   OH279177   2.986   5.419  15.897  0.5664  0.1388 -0.3626
19229TIP3    H179178   3.027   5.342  15.939 -0.3261 -0.4159 -0.5086
19229TIP3    H279179   3.022   5.419  15.808  1.8050  0.8256  0.1186
19230TIP3   OH279180   5.556   4.111  13.996  0.1238 -0.1506  0.0215
19230TIP3    H179181   5.566   4.205  13.983  0.9349 -0.3444 -0.8422
19230TIP3    H279182   5.487   4.085  13.935  1.3379 -0.4432 -1.2583
19231TIP3   OH279183   6.148   2.354   6.019 -0.0468 -0.0643  0.2253
19231TIP3    H179184   6.098   2.367   5.939  0.9706 -0.2960 -0.4507
19231TIP3    H279185   6.083   2.326   6.084 -0.3502 -3.5374 -1.4475
19232TIP3   OH279186   3.227   3.961  10.222  0.1812  0.2782 -0.4349
19232TIP3    H179187   3.299   4.019  10.198 -0.5557  0.9593 -1.0593
19232TIP3    H279188   3.260   3.910  10.296  1.5997 -0.0284 -1.2533
19233TIP3   OH279189   5.053   3.738   0.311 -0.3533  0.0211  0.1250
19233TIP3    H179190   4.971   3.786   0.320 -1.0559 -0.8878 -1.3447
19233TIP3    H279191   5.094   3.775   0.232  0.4459  0.1685  0.6005
19234TIP3   OH279192   6.575   4.663  17.197  0.1537  0.0843 -0.2428
19234TIP3    H179193   6.512   4.715  17.248  0.0219 -0.1007 -0.2180
19234TIP3    H279194   6.661   4.694  17.227  0.1129  2.4425 -2.3890
19235TIP3   OH279195   1.117   5.972   3.382 -0.5497  0.1673  0.3925
19235TIP3    H179196   1.192   6.013   3.424  0.6535 -1.2826 -0.2908
19235TIP3    H279197   1.044   5.990   3.441  0.5720  0.5091  1.7059
19236TIP3   OH279198   2.073   1.506   5.019 -0.6428  0.0340 -0.1540
19236TIP3    H179199   2.093   1.584   4.967 -2.4922 -0.2864 -1.3926
19236TIP3    H279200   2.071   1.538   5.109  4.5088  0.2286  0.0052
19237TIP3   OH279201   4.386   1.240  16.059  0.3515 -0.0068  0.2090
19237TIP3    H179202   4.404   1.225  15.966 -0.6017 -1.3785  0.2310
19237TIP3    H279203   4.326   1.170  16.083  0.0576  0.7482  1.7007
19238TIP3   OH279204   4.439   2.426  17.128  0.4259  0.3396 -0.5906
19238TIP3    H179205   4.495   2.353  17.154  1.0209  0.9230 -0.1836
19238TIP3    H279206   4.380   2.439  17.202  0.6822  0.6166 -0.4339
19239TIP3   OH279207   5.938   3.302   2.518 -0.1452 -0.3794 -0.4544
19239TIP3    H179208   6.031   3.287   2.532 -0.3695 -0.2772  1.1881
19239TIP3    H279209   5.928   3.301   2.423  2.1005  2.9794 -0.7923
19240TIP3   OH279210   3.888   2.453   5.248 -0.0325 -0.2839  0.0834
19240TIP3    H179211   3.893   2.435   5.342  1.9461 -0.3661 -0.0106
19240TIP3    H279212   3.955   2.520   5.234 -0.6708  0.0903 -1.1930
19241TIP3   OH279213   5.251   2.722  13.140 -0.0083 -0.0793 -0.0982
19241TIP3    H179214   5.186   2.670  13.094 -0.5844 -1.3617  2.1481
19241TIP3    H279215   5.200   2.788  13.187  0.2953 -0.9809  1.5247
19242TIP3   OH279216   6.801   5.028  13.758  0.2325  0.1830 -0.1897
19242TIP3    H179217   6.710   5.052  13.780  0.2160 -0.8375  0.9362
19242TIP3    H279218   6.800   4.932  13.755  1.2104  0.1810 -0.4830
19243TIP3   OH279219   1.182   0.376  13.431 -0.2443  0.3303  0.0177
19243TIP3    H179220   1.102   0.417  13.464 -0.1120 -0.3673  1.2382
19243TIP3    H279221   1.154   0.331  13.351 -1.1706 -0.3044  0.6918
19244TIP3   OH279222   3.182   4.517   4.758  0.0932 -0.2960  0.7467
19244TIP3    H179223   3.233   4.578   4.703 -1.4141  0.3322  0.0203
19244TIP3    H279224   3.190   4.553   4.846  1.3952 -0.5428  0.7508
19245TIP3   OH279225   5.274   1.198   3.110  0.2884 -0.5279  0.6639
19245TIP3    H179226   5.269   1.105   3.135  0.2252 -0.5657  0.5089
19245TIP3    H279227   5.262   1.245   3.192 -2.2447 -0.6081  0.3722
19246TIP3   OH279228   4.993   4.870   4.038  0.4562 -0.0745 -0.5818
19246TIP3    H179229   4.907   4.885   4.077 -0.1879 -1.2018 -1.5383
19246TIP3    H279230   5.007   4.947   3.982  0.3695  0.4261  0.0726
19247TIP3   OH279231   0.468   3.168   4.635  0.2130 -0.0520  0.2278
19247TIP3    H179232   0.504   3.094   4.585 -1.0656  0.0001 -0.8085
19247TIP3    H279233   0.525   3.175   4.711  1.4850 -0.9152 -0.6091
19248TIP3   OH279234   4.412   1.713   5.140  0.3167  0.0191 -0.3799
19248TIP3    H179235   4.392   1.736   5.049 -0.1103 -0.5257 -0.4291
19248TIP3    H279236   4.406   1.618   5.143  1.9679 -0.0968 -0.1532
19249TIP3   OH279237   2.001   4.383   4.262  0.1169  0.0840 -0.4947
19249TIP3    H179238   1.918   4.368   4.216  0.2961  0.1048 -0.8264
19249TIP3    H279239   2.017   4.302   4.310 -1.0132  0.7171  1.0237
19250TIP3   OH279240   4.066   5.803   5.400 -0.0635 -0.9175  0.3932
19250TIP3    H179241   4.136   5.868   5.394  0.1170 -1.1995 -0.7988
19250TIP3    H279242   4.068   5.774   5.491  1.2520 -0.7855  0.4227
19251TIP3   OH279243   4.366   2.684   2.195 -0.1491 -0.6022 -0.0376
19251TIP3    H179244   4.334   2.769   2.226  0.2846 -0.6522  0.5435
19251TIP3    H279245   4.336   2.621   2.261  0.8431 -0.6972  0.3315
19252TIP3   OH279246   4.092   4.130   1.908  0.5249  0.3793 -0.2410
19252TIP3    H179247   4.029   4.170   1.968  1.3673 -0.3013  1.1044
19252TIP3    H279248   4.084   4.182   1.828 -0.7157  1.2022  0.3918
19253TIP3   OH279249   1.013   6.078   0.974 -0.0653 -0.3814 -0.3374
19253TIP3    H179250   1.008   5.995   1.022 -0.5970 -0.6156 -0.7994
19253TIP3    H279251   0.949   6.069   0.903  0.1031  0.3000 -0.5778
19254TIP3   OH279252   4.941   5.676  11.292  0.7826 -0.1539 -0.2923
19254TIP3    H179253   4.889   5.720  11.224  0.8888  0.5177  0.0581
19254TIP3    H279254   5.029   5.671  11.255  0.8679  0.3215 -0.1622
19255TIP3   OH279255   4.203   0.672   4.773 -0.2953 -0.7186 -0.2769
19255TIP3    H179256   4.147   0.749   4.782  0.7178  0.2202 -1.7556
19255TIP3    H279257   4.278   0.690   4.829  0.0781 -0.4777 -0.8422
19256TIP3   OH279258   5.724   6.162  16.589  0.2171 -0.4285 -0.3340
19256TIP3    H179259   5.674   6.088  16.624  1.9735 -1.5505 -0.1482
19256TIP3    H279260   5.815   6.138  16.602  0.8333  2.6062  1.4474
19257TIP3   OH279261   0.614   6.045  17.128  0.1839 -0.0797  0.5882
19257TIP3    H179262   0.572   6.039  17.042  0.8481 -3.5052  0.4301
19257TIP3    H279263   0.596   5.961  17.170 -1.9939  2.3134  4.7524
19258TIP3   OH279264   0.583   2.263   5.039  0.5933 -0.1254  0.0293
19258TIP3    H179265   0.655   2.212   5.077 -1.1283 -3.6028 -1.1329
19258TIP3    H279266   0.510   2.201   5.035 -2.0858  2.9488 -0.0269
19259TIP3   OH279267   4.625   1.424  13.238 -0.1704  0.3435  0.1810
19259TIP3    H179268   4.651   1.393  13.324 -0.8009  0.4433  0.4088
19259TIP3    H279269   4.656   1.357  13.177 -1.8402 -0.9176  0.7012
19260TIP3   OH279270   1.378   5.583   5.308  0.3473  0.0894  0.9939
19260TIP3    H179271   1.319   5.533   5.364  0.6143  0.6753  1.8002
19260TIP3    H279272   1.375   5.672   5.343  0.5499  0.4514  0.1063
19261TIP3   OH279273   3.432   2.563  15.302 -0.1878 -0.2044  0.6438
19261TIP3    H179274   3.356   2.604  15.344 -1.3763  0.7511 -2.2616
19261TIP3    H279275   3.405   2.473  15.287 -0.6057  0.0260 -0.0137
19262TIP3   OH279276   3.712   5.520  13.223  0.0046 -0.6303 -0.8021
19262TIP3    H179277   3.649   5.458  13.260  0.5038 -0.9127 -0.4294
19262TIP3    H279278   3.697   5.516  13.128 -0.8586 -0.3494 -0.6893
19263TIP3   OH279279   4.940   5.048  14.171  0.2192  0.3610  0.3247
19263TIP3    H179280   4.927   5.034  14.078  0.3912 -0.1947  0.3808
19263TIP3    H279281   4.852   5.067  14.205  0.0065 -0.4102  0.2132
19264TIP3   OH279282   2.145   5.419  15.747 -0.1793 -0.1421 -0.3676
19264TIP3    H179283   2.208   5.396  15.679 -0.9995 -2.3791 -0.4070
19264TIP3    H279284   2.061   5.390  15.712 -0.5839 -1.6011  1.7126
19265TIP3   OH279285   1.188   5.714  13.409  0.2175  0.0672  0.7604
19265TIP3    H179286   1.140   5.796  13.417  0.5389  0.3713 -0.4010
19265TIP3    H279287   1.202   5.686  13.500  0.4222  1.4710  1.1762
19266TIP3   OH279288   6.131   6.739   0.741 -0.2550  0.2313  0.4597
19266TIP3    H179289   6.118   6.829   0.710 -2.7675 -1.1015 -2.6597
19266TIP3    H279290   6.207   6.708   0.691 -0.5806  0.0371  0.0760
19267TIP3   OH279291   2.211   1.496  15.401 -0.0526 -0.5243 -0.0337
19267TIP3    H179292   2.280   1.512  15.336  0.3914 -0.3447  0.4758
19267TIP3    H279293   2.212   1.574  15.457 -0.0015 -0.9504  0.5672
19268TIP3   OH279294   0.281   0.862   3.861  0.3087  0.5366  0.1095
19268TIP3    H179295   0.317   0.947   3.835 -0.3259  0.8460  0.2500
19268TIP3    H279296   0.356   0.816   3.899  1.1271  0.2897 -1.7314
19269TIP3   OH279297   6.707   6.799   0.870  0.0769  0.5172  0.0761
19269TIP3    H179298   6.779   6.832   0.816  0.5834  1.3302  1.2087
19269TIP3    H279299   6.657   6.878   0.893 -0.1354  0.1920  0.7622
19270TIP3   OH279300   0.515   2.815  13.161  0.2355 -0.3689  0.0436
19270TIP3    H179301   0.606   2.812  13.131  0.7604  1.5654  1.3329
19270TIP3    H279302   0.516   2.877  13.234 -1.8825 -1.3204  0.9170
19271TIP3   OH279303   0.807   5.904  16.424 -0.1654  0.1390 -0.4352
19271TIP3    H179304   0.740   5.937  16.364 -0.3558  1.5104  0.5137
19271TIP3    H279305   0.759   5.868  16.498  0.0809 -1.2667 -0.9459
19272TIP3   OH279306   3.161   1.089  16.742  0.0351 -0.0272 -0.3404
19272TIP3    H179307   3.174   0.997  16.719 -1.0513 -0.0426 -0.9109
19272TIP3    H279308   3.073   1.110  16.711  0.3919  1.2987 -0.5165
19273TIP3   OH279309   6.543   5.892   3.259  0.0598 -0.1590  0.3159
19273TIP3    H179310   6.610   5.953   3.290  0.8077 -1.5042  1.4269
19273TIP3    H279311   6.480   5.887   3.331 -2.6269  2.9954 -1.6690
19274TIP3   OH279312   4.797   6.245   0.860  0.9209 -0.3090 -0.5429
19274TIP3    H179313   4.784   6.312   0.928  1.4353 -0.3166 -0.4340
19274TIP3    H279314   4.747   6.278   0.785  2.9962  1.3455 -1.2544
19275TIP3   OH279315   1.660   1.473  16.243  0.3657  0.2043 -0.5719
19275TIP3    H179316   1.686   1.564  16.256  0.8651 -0.1828  1.2591
19275TIP3    H279317   1.565   1.475  16.236  0.2742  0.7177  0.7868
19276TIP3   OH279318   2.499   6.386  14.734 -0.5076 -0.2146 -0.0295
19276TIP3    H179319   2.489   6.323  14.805  0.3965  0.2042  0.4700
19276TIP3    H279320   2.562   6.450  14.767 -0.3341  0.1646 -1.0760
19277TIP3   OH279321   2.177   4.118   0.524 -0.1691  0.2248  0.5582
19277TIP3    H179322   2.194   4.119   0.430  1.1805  0.9083  0.8001
19277TIP3    H279323   2.198   4.028   0.551 -0.9786 -0.0910  0.1337
19278TIP3   OH279324   4.369   0.844  15.567  0.4535 -0.1885 -0.0644
19278TIP3    H179325   4.370   0.914  15.501  1.0589 -0.0855  0.0464
19278TIP3    H279326   4.282   0.805  15.559 -0.0765  0.9071  0.2156
19279TIP3   OH279327   6.522   4.772  12.095 -0.5915  0.1943 -0.0009
19279TIP3    H179328   6.577   4.705  12.054 -1.3984 -0.1041 -0.6163
19279TIP3    H279329   6.581   4.821  12.151 -0.5119 -2.7791  2.6087
19280TIP3   OH279330   5.631   3.822  14.954 -0.4743  0.1147  0.6563
19280TIP3    H179331   5.618   3.874  15.034  0.2236 -1.1828  1.6270
19280TIP3    H279332   5.702   3.867  14.908 -1.6473  1.5215  0.1980
19281TIP3   OH279333   5.409   6.709  13.599  0.0431 -0.1377  0.0843
19281TIP3    H179334   5.475   6.649  13.635  1.2340  0.4999 -1.0033
19281TIP3    H279335   5.330   6.656  13.593  0.7326 -1.2340  0.3630
19282TIP3   OH279336   5.957   3.009   5.258 -0.1423 -0.5904 -0.0845
19282TIP3    H179337   6.001   3.019   5.342 -1.9185 -1.4046  0.9817
19282TIP3    H279338   5.895   3.082   5.254  1.6520  0.8872 -1.8298
19283TIP3   OH279339   2.616   2.360   0.360 -1.0117 -0.1127 -0.4351
19283TIP3    H179340   2.705   2.387   0.383 -1.1744 -1.1751  1.4742
19283TIP3    H279341   2.560   2.427   0.401 -1.3911 -2.8942  3.8989
19284TIP3   OH279342   2.024   6.324  13.230  0.5329  0.0025  0.3207
19284TIP3    H179343   2.002   6.322  13.323  1.5578  0.0267  0.5715
19284TIP3    H279344   2.095   6.388  13.224  0.2496  0.2442 -0.5306
19285TIP3   OH279345   2.395   4.296   6.870  0.1318 -0.2244 -0.3897
19285TIP3    H179346   2.313   4.273   6.826  0.3355  1.3973 -1.6586
19285TIP3    H279347   2.458   4.230   6.842  0.2653  0.7992 -2.5838
19286TIP3   OH279348   4.010   3.083   0.939 -0.4236  0.2163  0.7285
19286TIP3    H179349   3.966   3.102   0.856  0.7856 -0.6640 -0.1399
19286TIP3    H279350   3.941   3.087   1.004 -1.4670  0.5673 -0.3807
19287TIP3   OH279351   3.202   6.547  13.868 -0.6223 -0.6229 -0.1996
19287TIP3    H179352   3.248   6.630  13.856 -0.5132 -0.6931 -0.2674
19287TIP3    H279353   3.247   6.505  13.941 -1.0889 -0.3344  0.2644
19288TIP3   OH279354   1.326   3.323   3.623 -0.1317 -0.4674 -0.0269
19288TIP3    H179355   1.368   3.404   3.654  1.5884 -1.3017 -0.1272
19288TIP3    H279356   1.277   3.350   3.545 -0.4665  0.6808  0.5684
19289TIP3   OH279357   6.819   0.658   5.459  0.3159 -1.0257  0.2066
19289TIP3    H179358   6.745   0.719   5.459  0.1025 -1.2205  2.7373
19289TIP3    H279359   6.895   0.712   5.437  0.0767  0.1222  2.1136
19290TIP3   OH279360   1.813   3.556   5.336  0.7581  0.3892 -0.2720
19290TIP3    H179361   1.848   3.481   5.288  0.4700 -0.6589  1.1229
19290TIP3    H279362   1.809   3.527   5.427  0.6549  2.1086  0.2984
19291TIP3   OH279363   0.674   0.753  15.874  0.1789  0.8438 -0.3760
19291TIP3    H179364   0.579   0.737  15.877 -0.2775  3.0329 -1.9191
19291TIP3    H279365   0.690   0.783  15.785  2.5297 -0.5697 -0.4551
19292TIP3   OH279366   1.864   0.891  17.186  0.3783  0.3210 -0.5743
19292TIP3    H179367   1.834   0.873  17.097 -0.0792  0.0551 -0.3656
19292TIP3    H279368   1.938   0.951  17.175  2.1491 -1.9363 -1.2953
19293TIP3   OH279369   5.011   1.457  12.023  0.4085  0.1814  0.3096
19293TIP3    H179370   5.007   1.497  12.110  0.7910  0.7136  0.0855
19293TIP3    H279371   5.104   1.447  12.005  0.3645  1.5472 -0.7090
19294TIP3   OH279372   5.704   1.884  11.837  0.1676  0.4467  0.0718
19294TIP3    H179373   5.691   1.976  11.859 -0.5063  0.9208 -2.1637
19294TIP3    H279374   5.662   1.836  11.908 -0.4979  1.8597  0.6581
19295TIP3   OH279375   5.003   2.335  13.240  0.2983  0.1756 -0.0796
19295TIP3    H179376   4.934   2.281  13.278  1.2504 -0.5733  0.5883
19295TIP3    H279377   5.075   2.274  13.222  1.3704  1.2032  0.6477
19296TIP3   OH279378   1.723   3.399   3.024 -0.9591  0.2084 -0.5584
19296TIP3    H179379   1.634   3.414   2.992 -1.0254 -0.1348 -0.5368
19296TIP3    H279380   1.725   3.307   3.047 -0.5606  0.1862 -0.6684
19297TIP3   OH279381   6.239   6.168  16.403 -0.6263  0.0306 -0.3989
19297TIP3    H179382   6.299   6.227  16.357 -0.5827 -0.6573 -1.2167
19297TIP3    H279383   6.154   6.182  16.362 -0.5158 -0.8419 -0.9290
19298TIP3   OH279384   0.652   3.416   2.946 -0.4167 -0.2874  0.1216
19298TIP3    H179385   0.641   3.494   3.001 -0.1644 -0.2215  0.0760
19298TIP3    H279386   0.570   3.410   2.897 -0.1787  0.3188 -0.3545
19299TIP3   OH279387   2.675   2.098  16.015  0.1898 -0.4447 -0.4055
19299TIP3    H179388   2.651   2.035  15.946 -0.2781 -1.7398  0.9191
19299TIP3    H279389   2.764   2.073  16.039 -0.4064 -1.3375  0.9145
19300TIP3   OH279390   4.296   4.090  13.689  0.3052  0.3290  0.3781
19300TIP3    H179391   4.219   4.072  13.636  0.8380  1.5483 -0.8724
19300TIP3    H279392   4.272   4.064  13.778 -1.1600 -0.2927 -0.1921
19301TIP3   OH279393   0.512   1.686   4.232 -0.3157 -0.4574 -0.1230
19301TIP3    H179394   0.589   1.726   4.273  0.5509 -1.1951 -0.9822
19301TIP3    H279395   0.517   1.594   4.258 -2.5818  0.0641  2.2679
19302TIP3   OH279396   5.285   0.523   1.664  0.2685  0.1669  0.5375
19302TIP3    H179397   5.220   0.583   1.700  0.1650  0.1084  0.4480
19302TIP3    H279398   5.365   0.541   1.714 -0.3964 -1.2843  2.1795
19303TIP3   OH279399   3.387   4.382  16.938 -0.4577  0.5558  0.0721
19303TIP3    H179400   3.345   4.300  16.962  0.4114  0.4886  1.4240
19303TIP3    H279401   3.328   4.450  16.970 -0.3838  0.4528  0.4301
19304TIP3   OH279402   6.616   2.650  12.445 -0.3087  0.2557  0.7231
19304TIP3    H179403   6.520   2.649  12.444 -0.3112  0.6632 -0.3033
19304TIP3    H279404   6.640   2.591  12.517 -1.3271  0.2866  1.0996
19305TIP3   OH279405   3.519   0.978   1.016  0.6810 -0.0383 -0.1290
19305TIP3    H179406   3.463   1.046   1.051  3.6003  2.5600 -0.2848
19305TIP3    H279407   3.519   0.993   0.921  1.5820 -0.0429 -0.1367
19306TIP3   OH279408   1.203   3.985   1.496  0.3007  0.4503 -0.1799
19306TIP3    H179409   1.235   3.897   1.474  0.7677  0.5000  0.2854
19306TIP3    H279410   1.118   3.991   1.454 -0.8898 -1.1774  1.9045
19307TIP3   OH279411   0.888   2.442   3.224  0.5624 -0.7676  0.2322
19307TIP3    H179412   0.843   2.523   3.200  1.1184 -0.6207 -0.3412
19307TIP3    H279413   0.937   2.465   3.303 -0.2890 -0.9045  0.8047
19308TIP3   OH279414   4.299   4.722   4.548  0.1987  0.5758  0.3732
19308TIP3    H179415   4.276   4.644   4.499 -2.1738 -0.3782  2.8453
19308TIP3    H279416   4.306   4.791   4.482 -1.7027 -0.8954 -1.4393
19309TIP3   OH279417   1.830   0.447   4.101  0.3492  0.4430  0.2009
19309TIP3    H179418   1.830   0.540   4.080  0.0661  0.1830 -0.9661
19309TIP3    H279419   1.891   0.408   4.039 -0.8129 -0.3888 -0.4463
19310TIP3   OH279420   1.170   6.483   4.926 -0.0479  0.0391  0.1336
19310TIP3    H179421   1.195   6.390   4.931 -1.9325 -0.5189 -0.3526
19310TIP3    H279422   1.251   6.529   4.907  0.7766 -1.6029 -0.3974
19311TIP3   OH279423   6.236   1.763   6.419 -0.0245 -0.1935 -0.3957
19311TIP3    H179424   6.298   1.834   6.428  2.7602 -2.4288 -1.3562
19311TIP3    H279425   6.179   1.789   6.347  0.2133  1.5458  0.0291
19312TIP3   OH279426   5.876   6.092  10.990  0.2603  0.0963  0.7498
19312TIP3    H179427   5.848   6.146  10.916 -0.4912  0.1824  1.0925
19312TIP3    H279428   5.806   6.027  11.000 -0.2291  0.8266  2.1497
19313TIP3   OH279429   4.690   5.812  14.703  0.3112  0.4659 -0.2059
19313TIP3    H179430   4.598   5.788  14.693  0.5735 -0.6063 -0.0979
19313TIP3    H279431   4.729   5.739  14.751  1.6979 -0.2033 -2.2443
19314TIP3   OH279432   0.245   4.142   5.120  0.4082  0.3729  0.3246
19314TIP3    H179433   0.275   4.133   5.211  1.8350 -0.3565 -0.2078
19314TIP3    H279434   0.194   4.064   5.104 -0.2915  0.7550  0.6607
19315TIP3   OH279435   2.809   1.776  10.224  0.3284  0.1970 -0.1530
19315TIP3    H179436   2.905   1.783  10.227  0.3109  0.3761  0.0153
19315TIP3    H279437   2.781   1.796  10.314  0.1521 -0.1472 -0.1317
19316TIP3   OH279438   0.456   3.493   3.489 -0.0193  0.4778  0.5829
19316TIP3    H179439   0.509   3.435   3.544 -1.1640  0.1462  1.3681
19316TIP3    H279440   0.384   3.521   3.547  0.0511  1.9946 -0.0442
19317TIP3   OH279441   3.366   4.731   0.049 -0.0906 -0.2826 -0.7954
19317TIP3    H179442   3.445   4.783   0.064  0.3493 -1.3523  0.7335
19317TIP3    H279443   3.294   4.785   0.083 -0.1187  1.0000 -2.8535
19318TIP3   OH279444   2.810   3.959  15.816  0.3707  0.2296 -0.2305
19318TIP3    H179445   2.865   3.931  15.742  0.5218 -1.7335  0.5890
19318TIP3    H279446   2.735   3.900  15.814  0.9347 -0.6273  1.8423
19319TIP3   OH279447   0.287   2.476  14.749 -0.1571 -0.0093  0.4976
19319TIP3    H179448   0.301   2.410  14.681 -0.8036 -0.3846  0.7249
19319TIP3    H279449   0.284   2.427  14.831 -1.6908  0.1703  0.5646
19320TIP3   OH279450   3.928   5.251   5.367 -0.1497  0.5154  0.1603
19320TIP3    H179451   3.856   5.302   5.329  0.4953  0.2025 -1.4884
19320TIP3    H279452   3.900   5.160   5.357  0.3310  0.4051 -0.2001
19321TIP3   OH279453   1.355   5.459  13.881  0.2677 -0.8191 -0.4443
19321TIP3    H179454   1.415   5.505  13.939 -0.9679 -0.3023  0.4653
19321TIP3    H279455   1.282   5.434  13.938 -1.1748  0.0788 -1.8731
19322TIP3   OH279456   4.215   6.035   2.488 -0.0251  0.0479 -0.0685
19322TIP3    H179457   4.179   6.008   2.573  2.1060 -0.5512  0.6722
19322TIP3    H279458   4.308   6.013   2.493  0.1711  0.1894 -2.4991
19323TIP3   OH279459   3.511   5.417  12.474 -0.1318  0.2572  0.1363
19323TIP3    H179460   3.513   5.348  12.540  1.4155  0.7929  0.6512
19323TIP3    H279461   3.449   5.481  12.508  2.5434  1.7583  2.3307
19324TIP3   OH279462   2.330   5.852  15.774 -0.8775 -0.2112  0.1057
19324TIP3    H179463   2.328   5.858  15.679  0.4385  1.4993  0.1564
19324TIP3    H279464   2.418   5.821  15.794 -1.2276 -0.7851  0.7561
19325TIP3   OH279465   3.503   2.021   3.038 -0.1655 -0.1338  0.2535
19325TIP3    H179466   3.422   1.971   3.030 -0.3804  0.3880 -1.0582
19325TIP3    H279467   3.559   1.968   3.094  0.1630 -2.6025 -2.2645
19326TIP3   OH279468   3.160   5.449   1.156  0.0022  0.9574  0.6388
19326TIP3    H179469   3.128   5.518   1.097  0.9028  1.1670  0.3793
19326TIP3    H279470   3.223   5.494   1.213 -0.8739  0.7542  1.7837
19327TIP3   OH279471   4.762   0.224   3.147 -0.2555  0.3484 -0.1633
19327TIP3    H179472   4.825   0.158   3.117 -1.9197 -0.4347 -2.0746
19327TIP3    H279473   4.676   0.182   3.136 -1.2127  2.0108  0.7488
19328TIP3   OH279474   0.246   4.291   0.896 -0.1744  0.3511  0.1612
19328TIP3    H179475   0.272   4.373   0.855  0.0669  1.1970  1.9438
19328TIP3    H279476   0.318   4.231   0.879  0.4408  1.0366  0.3608
19329TIP3   OH279477   1.633   4.063   0.631  0.0965 -0.0240  0.1692
19329TIP3    H179478   1.597   4.151   0.634 -0.5640 -0.3047  0.6005
19329TIP3    H279479   1.727   4.075   0.619 -0.0790  0.7260 -0.4721
19330TIP3   OH279480   5.354   1.288   5.456  0.2507 -0.0295  0.2002
19330TIP3    H179481   5.405   1.365   5.480 -1.2407  1.5874 -1.5755
19330TIP3    H279482   5.281   1.287   5.518  1.2503 -1.0733  1.3639
19331TIP3   OH279483   6.385   4.526  13.830  0.6339 -0.5484 -0.0917
19331TIP3    H179484   6.372   4.544  13.923  0.2301 -0.6445 -0.1290
19331TIP3    H279485   6.480   4.521  13.820  0.8466  2.7246 -0.2791
19332TIP3   OH279486   4.875   3.830   1.863  0.1719 -0.6371 -0.7601
19332TIP3    H179487   4.937   3.851   1.793 -0.3910  0.0565 -1.0564
19332TIP3    H279488   4.807   3.897   1.856 -0.9976 -1.8010 -0.9009
19333TIP3   OH279489   3.076   2.471   5.422  0.0800 -0.2906 -0.2297
19333TIP3    H179490   3.155   2.424   5.398 -0.4740 -0.9318 -0.8197
19333TIP3    H279491   3.062   2.450   5.514  0.2927 -0.6191 -0.2744
19334TIP3   OH279492   1.661   5.542  12.353  0.0332  0.3624 -0.2503
19334TIP3    H179493   1.745   5.572  12.390 -0.5138  1.7616 -0.0845
19334TIP3    H279494   1.657   5.583  12.267 -1.3201  1.9103  0.4959
19335TIP3   OH279495   3.492   4.296   3.545 -0.4098  0.3833  0.5759
19335TIP3    H179496   3.420   4.266   3.488  0.1680  0.2999 -0.1206
19335TIP3    H279497   3.563   4.234   3.528 -0.1918  0.4208  1.3218
19336TIP3   OH279498   4.928   1.667  15.000 -0.2059  0.6312  0.0790
19336TIP3    H179499   4.970   1.644  14.917 -0.5652  0.0290  0.0571
19336TIP3    H279500   4.911   1.761  14.993 -1.8318  0.2680 -1.2682
19337TIP3   OH279501   6.212   1.792  15.265 -0.3990 -0.0824 -0.2176
19337TIP3    H179502   6.179   1.869  15.311 -0.9253  0.0741 -0.8536
19337TIP3    H279503   6.258   1.827  15.189  0.0161 -0.3617 -0.0960
19338TIP3   OH279504   3.096   4.807  13.743 -0.3759 -0.1057 -0.5266
19338TIP3    H179505   3.124   4.857  13.820  2.7360  0.4353 -1.9116
19338TIP3    H279506   3.004   4.789  13.759 -0.2202  1.3661  2.5782
19339TIP3   OH279507   0.056   3.276   0.501  0.0836  0.1688  0.2464
19339TIP3    H179508   0.020   3.188   0.499 -1.0823  0.6234  1.0137
19339TIP3    H279509   0.131   3.273   0.440  0.2928 -1.4392  0.5687
19340TIP3   OH279510   2.593   5.066   4.368  0.3051 -0.2176  0.1923
19340TIP3    H179511   2.642   5.126   4.425 -1.6014 -0.6106  2.3287
19340TIP3    H279512   2.557   5.001   4.428 -0.5103 -1.5390 -1.6886
19341TIP3   OH279513   6.285   2.844  13.232  0.1325  0.2791 -0.8746
19341TIP3    H179514   6.214   2.784  13.256  0.5576 -0.4182 -1.3483
19341TIP3    H279515   6.272   2.920  13.289 -0.2943 -0.3492 -0.1231
19342TIP3   OH279516   3.883   2.519  14.137  0.2426  0.0654 -0.2030
19342TIP3    H179517   3.856   2.448  14.079  0.2911 -0.5195  0.4715
19342TIP3    H279518   3.978   2.513  14.139  0.2980  0.6913 -0.8072
19343TIP3   OH279519   0.970   4.271   3.022 -0.7014  0.3668  0.4471
19343TIP3    H179520   0.999   4.258   2.932 -1.3621 -1.0861  0.4303
19343TIP3    H279521   0.913   4.197   3.040 -2.0811  1.6336  1.4469
19344TIP3   OH279522   4.069   5.267   3.515 -0.2026  0.3158  0.2191
19344TIP3    H179523   4.126   5.343   3.502 -0.4964  0.8137  1.6997
19344TIP3    H279524   3.996   5.301   3.568 -0.4700 -0.9319  0.6717
19345TIP3   OH279525   5.466   2.986   0.919 -0.0386  0.0208 -0.1151
19345TIP3    H179526   5.373   3.010   0.917 -0.0640 -0.0935 -0.3128
19345TIP3    H279527   5.478   2.945   1.005 -1.2382 -4.1633 -1.8214
19346TIP3   OH279528   3.049   2.044  12.799  0.0170 -0.2203  0.0812
19346TIP3    H179529   3.016   2.068  12.886  0.4902  0.5408  0.0549
19346TIP3    H279530   3.004   1.962  12.779 -1.0776  0.2540  0.4973
19347TIP3   OH279531   6.688   4.355  12.667  0.0104  0.6113  0.2824
19347TIP3    H179532   6.697   4.367  12.761  2.0552  0.0495  0.1663
19347TIP3    H279533   6.699   4.442  12.630 -0.9384  0.8568  0.5468
19348TIP3   OH279534   1.940   5.432  12.572  0.1235  0.1804 -0.5298
19348TIP3    H179535   1.991   5.446  12.651 -1.8505 -1.9081  1.2090
19348TIP3    H279536   1.932   5.519  12.532 -1.0243  1.7448  2.9524
19349TIP3   OH279537   2.301   3.638   1.624 -0.3882  0.0036  0.0682
19349TIP3    H179538   2.349   3.720   1.630  2.4925 -1.4499 -1.7154
19349TIP3    H279539   2.217   3.656   1.665 -0.0021  3.9305 -0.6856
19350TIP3   OH279540   1.598   6.624   0.404  0.5953 -0.0832 -0.0464
19350TIP3    H179541   1.550   6.614   0.486 -0.5247 -1.2779 -0.8114
19350TIP3    H279542   1.677   6.572   0.416  1.9960  2.3183  1.4159
19351TIP3   OH279543   4.941   4.531  15.697  0.0551  0.3031 -0.9983
19351TIP3    H179544   4.870   4.562  15.753  0.0132 -0.3963 -0.6537
19351TIP3    H279545   4.897   4.492  15.622  0.0599 -0.4844 -0.5969
19352TIP3   OH279546   6.602   6.182   2.582 -0.2408 -0.4420 -0.2390
19352TIP3    H179547   6.630   6.241   2.651  1.5902 -1.9178  0.3199
19352TIP3    H279548   6.513   6.210   2.561 -1.5368 -1.0585  3.9491
19353TIP3   OH279549   5.323   2.787  16.485 -0.7423 -0.0167  0.5016
19353TIP3    H179550   5.314   2.802  16.579 -0.4718 -0.4035  0.5931
19353TIP3    H279551   5.408   2.824  16.462 -0.3341 -0.8602  0.6175
19354TIP3   OH279552   0.300   5.371  13.571 -0.2276 -0.7531 -0.0845
19354TIP3    H179553   0.209   5.401  13.572 -0.1865 -0.5184 -1.5353
19354TIP3    H279554   0.314   5.340  13.481  2.2329  2.6824 -1.0093
19355TIP3   OH279555   2.553   2.048   0.099  0.3677  0.2283  0.0492
19355TIP3    H179556   2.625   1.995   0.066  0.4158  0.8222 -0.8014
19355TIP3    H279557   2.587   2.137   0.100 -0.0604  0.3888  0.4954
19356TIP3   OH279558   0.448   3.516  12.942  0.2845 -0.8862 -0.3988
19356TIP3    H179559   0.449   3.536  12.849  0.2175  0.9874 -0.0068
19356TIP3    H279560   0.380   3.448  12.951 -1.1839  0.4117 -1.4272
19357TIP3   OH279561   1.186   1.388  16.850 -0.1859 -0.6615 -0.2589
19357TIP3    H179562   1.109   1.344  16.816 -0.8745 -0.2437  0.7450
19357TIP3    H279563   1.230   1.423  16.772 -1.8542  0.4620 -0.7321
19358TIP3   OH279564   4.186   1.832  12.887 -0.2413  0.0567 -0.7041
19358TIP3    H179565   4.238   1.829  12.967 -1.1448 -0.0420 -0.1183
19358TIP3    H279566   4.169   1.925  12.872 -1.4278 -0.0325  0.0977
19359TIP3   OH279567   4.663   4.440  11.732 -0.3040  0.0118  0.0415
19359TIP3    H179568   4.715   4.389  11.669  0.7607 -0.4444  1.2765
19359TIP3    H279569   4.726   4.500  11.772 -0.7215 -0.5291  1.5401
19360TIP3   OH279570   0.735   5.232  12.573  0.3671  0.0057 -0.3392
19360TIP3    H179571   0.656   5.283  12.589  0.6216 -0.3883  2.3454
19360TIP3    H279572   0.804   5.298  12.558  0.1038  0.3956  0.1649
19361TIP3   OH279573   5.092   0.353   3.229 -0.1841  0.9953  0.3392
19361TIP3    H179574   5.015   0.371   3.176  0.2767 -0.5482 -0.9164
19361TIP3    H279575   5.058   0.305   3.305 -0.5303  0.7158  0.0133
19362TIP3   OH279576   6.714   5.551   3.205 -0.2019 -0.0075  0.0568
19362TIP3    H179577   6.786   5.614   3.212  2.6609 -3.1283 -0.2460
19362TIP3    H279578   6.694   5.527   3.296 -2.7454  2.7606  0.3269
19363TIP3   OH279579   6.214   1.869  16.110  0.1909 -0.0109  0.1296
19363TIP3    H179580   6.240   1.891  16.199  3.3302  0.0542 -0.7235
19363TIP3    H279581   6.184   1.952  16.073  1.0154  0.4542  0.4772
19364TIP3   OH279582   2.884   6.737   4.260  0.1756 -0.0526 -0.0958
19364TIP3    H179583   2.881   6.812   4.201  0.6688  0.7987  0.9366
19364TIP3    H279584   2.973   6.739   4.296  0.0329 -0.8508  0.3019
19365TIP3   OH279585   0.846   1.182   1.290 -0.5084 -0.3484  0.4213
19365TIP3    H179586   0.905   1.240   1.242 -0.0554 -0.8703  0.3438
19365TIP3    H279587   0.758   1.214   1.268 -0.2336  1.7151  2.1254
19366TIP3   OH279588   0.915   3.246  10.854 -0.2618 -0.1202  0.3126
19366TIP3    H179589   0.968   3.167  10.847 -2.5288 -1.7820  1.2908
19366TIP3    H279590   0.841   3.230  10.796 -1.5002  0.6470  1.6770
19367TIP3   OH279591   3.283   4.518  14.034 -0.5050  0.3835  0.1584
19367TIP3    H179592   3.195   4.536  14.000  0.2653  1.0684 -1.5497
19367TIP3    H279593   3.268   4.484  14.122 -2.4560  1.0127  0.1032
19368TIP3   OH279594   2.457   3.020   2.596  0.4404 -0.0841  0.1517
19368TIP3    H179595   2.388   2.955   2.607 -1.8071  2.3603  1.2351
19368TIP3    H279596   2.482   3.044   2.686  2.7554 -0.9499 -0.2261
19369TIP3   OH279597   4.580   1.865  16.515  0.2692  0.4349 -0.2782
19369TIP3    H179598   4.529   1.844  16.594 -0.7584 -1.6358 -1.4552
19369TIP3    H279599   4.648   1.797  16.512  1.9616  2.0740  0.2486
19370TIP3   OH279600   6.323   0.601  11.676  0.4308 -0.7240 -0.1074
19370TIP3    H179601   6.255   0.666  11.659 -1.0935 -1.5277  2.6061
19370TIP3    H279602   6.346   0.567  11.590 -0.9476  1.1836 -1.2746
19371TIP3   OH279603   3.589   3.884   4.107  0.2115  0.7756 -0.0049
19371TIP3    H179604   3.527   3.846   4.046  0.6045  1.5710 -0.9055
19371TIP3    H279605   3.629   3.809   4.151  0.6441  0.1585 -1.4433
19372TIP3   OH279606   1.994   2.351   3.778 -0.9233 -0.1234 -0.0514
19372TIP3    H179607   1.981   2.274   3.723 -0.2671 -0.5243  0.3592
19372TIP3    H279608   2.055   2.406   3.728  0.2872 -0.8405  0.6189
19373TIP3   OH279609   4.753   0.090  16.082 -0.2830 -0.3811 -0.3137
19373TIP3    H179610   4.753   0.039  16.163 -0.5681 -1.2500 -0.8465
19373TIP3    H279611   4.664   0.083  16.049 -0.5594  1.2470  0.0786
19374TIP3   OH279612   2.470   1.311  11.882 -0.0443  0.6154 -0.0182
19374TIP3    H179613   2.540   1.331  11.821 -0.0592  0.3215 -0.1316
19374TIP3    H279614   2.514   1.292  11.965  0.0037  0.5162 -0.0682
19375TIP3   OH279615   3.415   4.486   1.376 -0.1955  0.3211  0.2648
19375TIP3    H179616   3.460   4.461   1.296  1.3854 -0.1498  1.2713
19375TIP3    H279617   3.455   4.570   1.401  0.0137 -0.0186  1.0786
19376TIP3   OH279618   2.527   1.534   2.128  0.0520 -0.7093  0.4567
19376TIP3    H179619   2.479   1.475   2.070 -0.4239 -0.2016  0.3354
19376TIP3    H279620   2.547   1.610   2.073 -0.1914 -0.3298  0.8993
19377TIP3   OH279621   3.647   4.941   2.158 -0.6424  0.3260 -0.7967
19377TIP3    H179622   3.553   4.936   2.172 -0.5410  1.4700  0.3794
19377TIP3    H279623   3.678   4.851   2.170 -1.2229  0.4161  1.6141
19378TIP3   OH279624   6.175   4.636  12.611 -0.0299 -0.1366 -0.5212
19378TIP3    H179625   6.175   4.544  12.583  0.0182 -0.1829 -0.3687
19378TIP3    H279626   6.097   4.645  12.665  0.8435 -0.4984  0.8086
19379TIP3   OH279627   0.912   1.572  13.297  0.1800 -0.9794  0.6780
19379TIP3    H179628   0.892   1.486  13.334  0.7680 -1.3718  0.1058
19379TIP3    H279629   0.942   1.553  13.208  1.3932 -0.2752  0.9253
19380TIP3   OH279630   2.356   0.913  12.606 -0.2494  0.3092 -0.0585
19380TIP3    H179631   2.343   0.859  12.684  0.9604 -0.7592 -0.5663
19380TIP3    H279632   2.278   0.967  12.601 -0.7942 -0.3142  1.3352
19381TIP3   OH279633   2.056   1.092   3.848 -0.6898 -0.2103  0.5922
19381TIP3    H179634   1.994   1.144   3.899 -0.7532  0.6533 -0.3464
19381TIP3    H279635   2.121   1.155   3.817 -1.6960 -0.3671 -1.9781
19382TIP3   OH279636   4.741   0.615   1.783  0.3850 -0.1432 -0.7269
19382TIP3    H179637   4.667   0.584   1.732 -0.2302 -0.3876  0.3055
19382TIP3    H279638   4.797   0.538   1.795  3.2020  0.9194 -5.3971
19383TIP3   OH279639   2.024   6.746   1.970 -0.6540 -0.5838  0.5254
19383TIP3    H179640   1.961   6.677   1.993 -0.2503 -1.3812 -0.6838
19383TIP3    H279641   2.039   6.733   1.876  2.8280 -1.6797  1.1631
19384TIP3   OH279642   2.015   5.692  10.459 -0.1878  0.1725 -0.2215
19384TIP3    H179643   1.942   5.643  10.423 -1.9954  2.3881  0.2986
19384TIP3    H279644   2.086   5.629  10.465 -2.3050 -2.2615  0.0677
19385TIP3   OH279645   2.388   6.373  12.121 -0.0677  0.4602 -0.2691
19385TIP3    H179646   2.410   6.282  12.102  0.2975 -0.1556  2.8780
19385TIP3    H279647   2.466   6.422  12.098  0.6365 -0.3523  0.3736
19386TIP3   OH279648   4.221   2.105   2.287 -0.1807  0.1439  0.0743
19386TIP3    H179649   4.140   2.075   2.246 -0.2605  1.8860 -1.0834
19386TIP3    H279650   4.196   2.186   2.332  0.7624  0.3086  0.3128
19387TIP3   OH279651   3.590   6.750  12.486  0.1725  0.4002  0.4367
19387TIP3    H179652   3.650   6.707  12.425 -0.6354  0.5206 -0.4478
19387TIP3    H279653   3.520   6.687  12.500  0.0879  0.5796  0.8461
19388TIP3   OH279654   4.289   2.884  11.989  0.4120  0.5108 -0.5697
19388TIP3    H179655   4.336   2.897  12.071  0.0148  0.4847 -0.3350
19388TIP3    H279656   4.231   2.960  11.982 -0.1655  0.0937 -0.3989
19389TIP3   OH279657   5.868   4.603  11.334 -0.1434 -0.0402  0.3497
19389TIP3    H179658   5.784   4.613  11.378  0.3271 -0.4189  1.3378
19389TIP3    H279659   5.932   4.637  11.396  0.5119 -0.4905 -0.0759
19390TIP3   OH279660   1.711   1.473  14.640  0.4803 -0.1266  0.0534
19390TIP3    H179661   1.645   1.409  14.667  0.2973 -0.9615 -2.1968
19390TIP3    H279662   1.794   1.425  14.645  0.5909  0.0995  0.3673
19391TIP3   OH279663   1.587   3.338  14.032 -0.8823  0.0115  0.3023
19391TIP3    H179664   1.665   3.330  14.087 -0.9512 -1.7480  0.1560
19391TIP3    H279665   1.622   3.362  13.946 -0.6321  0.7644  0.6034
19392TIP3   OH279666   1.943   0.311  14.467  0.5306  0.7432  0.4611
19392TIP3    H179667   2.010   0.379  14.455 -0.1028  1.6328  1.7551
19392TIP3    H279668   1.864   0.348  14.428  0.3412  0.4872  0.6012
19393TIP3   OH279669   0.051   2.056  12.003  0.6548 -0.2790  0.4654
19393TIP3    H179670   0.135   2.083  12.040  0.6512  0.6843 -0.2375
19393TIP3    H279671   0.074   1.993  11.935  0.7424 -0.8378  1.0054
19394TIP3   OH279672   0.983   4.957   4.174  0.0945 -0.2427  0.0480
19394TIP3    H179673   1.053   4.953   4.239  0.1204  1.6313  0.1452
19394TIP3    H279674   0.988   5.046   4.138 -3.8254  0.7818  1.8282
19395TIP3   OH279675   4.496   2.507  13.211  0.3616  0.4524  0.2579
19395TIP3    H179676   4.553   2.462  13.273 -0.3359 -1.7669 -0.6509
19395TIP3    H279677   4.556   2.553  13.153  1.1885 -0.5031  0.3322
19396TIP3   OH279678   6.178   3.134  12.050  0.1009  0.5649 -0.3979
19396TIP3    H179679   6.173   3.058  12.108  4.4994 -1.4862 -2.5068
19396TIP3    H279680   6.157   3.101  11.963  0.6495  2.0815 -1.1331
19397TIP3   OH279681   1.462   6.392  13.022 -0.3783 -0.0558 -0.2675
19397TIP3    H179682   1.512   6.467  12.989 -0.0551 -0.1691 -0.0380
19397TIP3    H279683   1.412   6.427  13.096 -0.9140  0.1402 -0.7128
19398TIP3   OH279684   1.629   0.094   1.169  0.0951 -0.2936 -0.0031
19398TIP3    H179685   1.671   0.103   1.255 -0.5912  2.7739  0.0520
19398TIP3    H279686   1.540   0.067   1.189  0.1474 -0.3021  0.2253
19399TIP3   OH279687   0.208   5.409   3.359  0.0373  0.1542  0.4304
19399TIP3    H179688   0.293   5.373   3.383 -0.1065  0.1427  0.9191
19399TIP3    H279689   0.209   5.498   3.395 -0.5700 -0.2100  1.3395
19400TIP3   OH279690   4.043   1.935   1.063 -0.3805 -0.3130 -0.3968
19400TIP3    H179691   4.089   1.890   1.134  0.4939 -0.5403 -1.1044
19400TIP3    H279692   3.955   1.899   1.065 -1.2174  1.6587  2.3710
19401TIP3   OH279693   0.119   0.357  13.963  0.3363  0.1372 -0.6934
19401TIP3    H179694   0.025   0.336  13.958  0.3821 -0.2247 -0.1350
19401TIP3    H279695   0.132   0.424  13.896 -0.6909  1.4942  0.4327
19402TIP3   OH279696   2.725   0.110   1.280  0.4036 -0.2593 -0.0680
19402TIP3    H179697   2.783   0.040   1.250  2.0650  2.0426 -2.3902
19402TIP3    H279698   2.751   0.126   1.371  0.5313 -2.1055  0.2326
19403TIP3   OH279699   3.103   3.211   4.349  0.2855  0.2186  0.0126
19403TIP3    H179700   3.122   3.158   4.272 -1.0503 -0.7114  0.3009
19403TIP3    H279701   3.183   3.261   4.365  1.3867 -1.3402 -0.5623
19404TIP3   OH279702   5.415   4.671  16.195  0.5279 -0.1273 -0.3647
19404TIP3    H179703   5.477   4.600  16.177 -1.1793 -1.6907 -0.1769
19404TIP3    H279704   5.339   4.627  16.232 -0.0916  1.9500  0.8615
19405TIP3   OH279705   5.067   4.533  11.330 -0.2776 -0.0165  0.0436
19405TIP3    H179706   5.001   4.563  11.392 -1.3737 -0.4419 -0.9091
19405TIP3    H279707   5.148   4.574  11.360 -0.7650 -0.3011  1.8255
19406TIP3   OH279708   0.464   4.782  15.020 -0.2152 -0.1873  0.5832
19406TIP3    H179709   0.539   4.824  14.978 -0.5516 -0.2390 -0.0667
19406TIP3    H279710   0.449   4.702  14.969 -1.4164  0.3857  0.0069
19407TIP3   OH279711   0.523   5.873  12.231  0.3006 -0.4069 -0.0450
19407TIP3    H179712   0.502   5.794  12.181  1.0933 -0.0763 -0.9063
19407TIP3    H279713   0.503   5.945  12.171  0.5150  0.0187  0.3943
19408TIP3   OH279714   1.733   1.810  16.782 -0.0845 -0.1219 -0.7094
19408TIP3    H179715   1.738   1.763  16.865  1.6359 -0.4578 -0.9859
19408TIP3    H279716   1.684   1.889  16.802 -2.4762 -1.6959 -0.0936
19409TIP3   OH279717   5.430   4.743   2.724 -0.1515  0.5353  0.2351
19409TIP3    H179718   5.433   4.760   2.630 -1.0062  0.5610  0.2031
19409TIP3    H279719   5.371   4.667   2.732 -1.0993  1.3316  0.8456
19410TIP3   OH279720   2.671   2.063   2.831  0.9288 -0.2165 -0.0445
19410TIP3    H179721   2.657   2.157   2.823  1.3392 -0.2537 -1.1838
19410TIP3    H279722   2.584   2.025   2.822  0.7242  0.0583  0.6875
19411TIP3   OH279723   0.401   3.309   5.025  0.6728  0.0802 -0.0967
19411TIP3    H179724   0.358   3.338   5.106 -0.5050 -1.0004 -0.3200
19411TIP3    H279725   0.400   3.213   5.031  0.2482 -0.0151 -1.5490
19412TIP3   OH279726   4.638   0.170  13.144  0.2063 -0.7579  0.0106
19412TIP3    H179727   4.572   0.100  13.145  0.7069 -1.2812 -2.0704
19412TIP3    H279728   4.719   0.127  13.171  0.2780 -0.7288 -0.1591
19413TIP3   OH279729   2.656   3.433  14.264  0.8572 -0.8163  0.2849
19413TIP3    H179730   2.700   3.349  14.253  0.9102 -0.7065 -0.3889
19413TIP3    H279731   2.603   3.443  14.185  2.3007  0.6411 -0.5417
19414TIP3   OH279732   3.442   1.437  12.354 -0.1504 -0.3481  0.2469
19414TIP3    H179733   3.396   1.356  12.332 -2.1342  0.9602 -0.6035
19414TIP3    H279734   3.522   1.434  12.302 -0.1665 -1.7950  0.2855
19415TIP3   OH279735   6.788   2.750  11.008 -0.2543 -0.0991  0.3175
19415TIP3    H179736   6.786   2.819  10.942 -0.5171 -1.7202 -1.4290
19415TIP3    H279737   6.723   2.687  10.978  1.0571 -1.8367  1.0364
19416TIP3   OH279738   0.552   2.877  14.383  0.0549  0.1091  0.3237
19416TIP3    H179739   0.602   2.875  14.302  0.0208  2.9112  0.1862
19416TIP3    H279740   0.570   2.793  14.424  2.6987 -0.0420 -1.0206
19417TIP3   OH279741   5.890   2.431  12.997 -0.0267  0.2909 -0.1099
19417TIP3    H179742   5.954   2.428  13.069 -2.1568 -0.0830  1.8268
19417TIP3    H279743   5.938   2.399  12.921  2.0120 -0.2294  1.3425
19418TIP3   OH279744   1.277   6.758   0.942 -0.0673 -0.2041 -0.0574
19418TIP3    H179745   1.308   6.823   0.879 -0.3286 -0.1945 -0.1797
19418TIP3    H279746   1.346   6.692   0.945  0.2123  0.0957  0.0911
19419TIP3   OH279747   2.129   5.584  11.360  0.3890  0.3316  0.0666
19419TIP3    H179748   2.154   5.516  11.424 -0.4502  0.1754  0.2356
19419TIP3    H279749   2.130   5.539  11.276 -4.1544 -1.0273  0.5942
19420TIP3   OH279750   0.790   2.826  14.571  0.0797 -0.8981  0.0557
19420TIP3    H179751   0.811   2.884  14.497  2.3976 -2.5791 -0.6667
19420TIP3    H279752   0.865   2.767  14.577 -0.5712 -1.4850  3.1010
19421TIP3   OH279753   0.837   2.377   5.469  0.8981  0.1205  0.1931
19421TIP3    H179754   0.838   2.369   5.564 -1.3555  0.4485  0.2818
19421TIP3    H279755   0.813   2.290   5.438  0.1774  0.3827  0.0056
19422TIP3   OH279756   4.168   2.649  11.225 -0.0568  0.2558  0.4775
19422TIP3    H179757   4.199   2.630  11.137  1.3765 -1.2508  1.2793
19422TIP3    H279758   4.139   2.564  11.259  0.9498  0.5214  2.0431
19423TIP3   OH279759   2.754   2.097   4.869 -0.6510  0.1718 -0.9350
19423TIP3    H179760   2.841   2.129   4.893 -1.3222  0.7436  0.8206
19423TIP3    H279761   2.712   2.172   4.826 -0.1194 -0.2359 -2.1455
19424TIP3   OH279762   3.374   1.013   2.807  0.1069 -0.1489  0.2639
19424TIP3    H179763   3.341   1.103   2.805 -1.4082 -0.7100 -1.4989
19424TIP3    H279764   3.466   1.022   2.831 -0.0077  1.8890  0.0393
19425TIP3   OH279765   6.790   3.123   1.715 -0.4190  0.2093  0.0380
19425TIP3    H179766   6.744   3.170   1.785  0.6134  2.6647 -0.8517
19425TIP3    H279767   6.883   3.134   1.737 -0.1457 -0.6901 -0.6574
19426TIP3   OH279768   1.444   5.587  14.091  0.0781 -0.1665  0.3186
19426TIP3    H179769   1.456   5.594  14.186  0.0788 -1.5494  0.4168
19426TIP3    H279770   1.463   5.675  14.058 -0.9860  0.6091  1.7164
19427TIP3   OH279771   5.810   6.124  13.250 -0.1284  1.0580 -0.2160
19427TIP3    H179772   5.846   6.171  13.326  1.0429 -1.0086  0.5370
19427TIP3    H279773   5.887   6.099  13.199 -0.4771 -2.3835  0.8014
19428TIP3   OH279774   3.439   6.509  13.659 -0.1172  0.2724 -0.2328
19428TIP3    H179775   3.390   6.576  13.611 -0.1884  0.9993  0.8384
19428TIP3    H279776   3.382   6.433  13.659 -0.8909  0.8418  0.2441
19429TIP3   OH279777   6.670   0.675  16.971  0.2919 -0.3355  0.0019
19429TIP3    H179778   6.738   0.637  16.916 -0.0474 -0.5304 -0.2885
19429TIP3    H279779   6.601   0.701  16.910 -0.4428 -1.3101  0.3879
19430TIP3   OH279780   2.445   3.419  15.385  0.0539 -0.1496  0.2915
19430TIP3    H179781   2.510   3.412  15.454 -1.5574 -1.5626  1.7131
19430TIP3    H279782   2.485   3.476  15.319  2.1476  0.1012  1.7572
19431TIP3   OH279783   5.314   3.214   1.662  0.1450 -0.1600 -0.0692
19431TIP3    H179784   5.366   3.239   1.586  0.1992 -1.2271 -0.3935
19431TIP3    H279785   5.374   3.224   1.736  0.0410  1.0452 -0.1430
19432TIP3   OH279786   5.015   1.729   1.533  0.2083 -0.2707  0.5760
19432TIP3    H179787   5.011   1.818   1.499 -0.8788 -0.1147  1.0852
19432TIP3    H279788   4.971   1.675   1.467 -0.6206 -0.1779  1.0436
19433TIP3   OH279789   6.633   5.327   6.438  0.0558  0.0963 -0.1277
19433TIP3    H179790   6.608   5.419   6.435 -0.5127 -0.0991 -1.5829
19433TIP3    H279791   6.690   5.315   6.362  0.9687 -0.5174  0.6409
19434TIP3   OH279792   3.600   4.705  13.599  0.1030 -1.0472  0.6298
19434TIP3    H179793   3.633   4.787  13.634 -1.1548  0.3998 -1.4465
19434TIP3    H279794   3.538   4.674  13.665  0.5095 -0.2874  1.3799
19435TIP3   OH279795   0.151   1.983  16.720 -0.4935  0.2435 -0.0029
19435TIP3    H179796   0.115   1.942  16.642 -0.6670 -0.1572  0.2886
19435TIP3    H279797   0.082   2.041  16.751 -1.1771 -1.0563  0.9608
19436TIP3   OH279798   3.858   5.383   2.407  0.4632 -0.2763 -0.1288
19436TIP3    H179799   3.820   5.304   2.367 -1.6580  1.0298 -0.8207
19436TIP3    H279800   3.782   5.433   2.438  1.7972  1.2155  0.8238
19437TIP3   OH279801   5.371   3.787  15.803  0.2905 -0.7604  0.0448
19437TIP3    H179802   5.337   3.851  15.741  0.5175 -0.0927  0.5907
19437TIP3    H279803   5.409   3.718  15.749  1.6964  0.4622 -0.5717
19438TIP3   OH279804   0.844   1.677   1.088  0.0413 -0.1978 -0.4068
19438TIP3    H179805   0.936   1.666   1.066  0.3206  2.0822 -0.4799
19438TIP3    H279806   0.843   1.683   1.184  0.0815  0.6930 -0.4599
19439TIP3   OH279807   5.463   0.576  14.495 -0.2103 -0.2691 -0.0802
19439TIP3    H179808   5.501   0.518  14.560  0.6882  1.0898  0.6392
19439TIP3    H279809   5.506   0.553  14.413 -0.9417 -1.6066 -0.1015
19440TIP3   OH279810   3.817   2.920  12.253  0.0059 -0.0072  0.1115
19440TIP3    H179811   3.879   2.905  12.181  0.4464 -2.6978  0.9982
19440TIP3    H279812   3.866   2.897  12.332 -1.8123 -1.2847  0.9022
19441TIP3   OH279813   5.949   6.433   1.329  0.2849 -0.4185 -0.0836
19441TIP3    H179814   5.963   6.371   1.400  0.5998 -1.0792 -0.7164
19441TIP3    H279815   5.961   6.519   1.369  2.4877 -0.8362  0.2151
19442TIP3   OH279816   3.079   6.661   0.086 -0.3274  0.8040  0.0237
19442TIP3    H179817   3.130   6.725   0.136  0.1552 -0.5093  1.2336
19442TIP3    H279818   3.128   6.579   0.096 -2.7394 -0.5197  1.3125
19443TIP3   OH279819   5.015   5.770   3.117  0.4370 -0.0252  0.1227
19443TIP3    H179820   5.081   5.729   3.061 -0.3759  1.9881 -2.4663
19443TIP3    H279821   5.064   5.832   3.171  1.0287 -0.7682  0.4478
19444TIP3   OH279822   0.198   2.200   2.271  0.3094 -0.1775 -0.3420
19444TIP3    H179823   0.163   2.145   2.341 -0.3859 -0.8322 -1.1868
19444TIP3    H279824   0.292   2.183   2.272  0.3413  0.0159  0.6007
19445TIP3   OH279825   4.752   2.019   2.188  0.6404  0.5623  0.7851
19445TIP3    H179826   4.698   2.093   2.163  0.0288  0.1418  0.8567
19445TIP3    H279827   4.831   2.027   2.134 -0.7128 -0.4104 -1.3934
19446TIP3   OH279828   2.523   0.301  14.332 -0.7753 -0.5152  0.2615
19446TIP3    H179829   2.524   0.296  14.236  1.9377  0.5358  0.1926
19446TIP3    H279830   2.562   0.218  14.360 -0.3240 -0.2579  0.4043
19447TIP3   OH279831   6.101   1.376   2.211 -0.4855  0.1355 -0.5294
19447TIP3    H179832   6.012   1.343   2.221  0.0788 -1.2816  0.0158
19447TIP3    H279833   6.152   1.324   2.273  0.7209  0.9432 -0.8333
19448TIP3   OH279834   0.290   6.093   0.733  0.3969  0.4622 -0.3604
19448TIP3    H179835   0.208   6.086   0.781  0.8842  2.3245  0.7615
19448TIP3    H279836   0.266   6.134   0.650  0.0259  0.0021 -0.4808
19449TIP3   OH279837   6.052   2.396  14.791  0.5585  0.6764  0.1008
19449TIP3    H179838   6.065   2.452  14.715  0.8764 -1.0530 -1.1361
19449TIP3    H279839   5.963   2.363  14.782  1.1070 -0.7273 -0.3431
19450TIP3   OH279840   4.938   0.480  15.968  0.3178 -0.3286  0.3748
19450TIP3    H179841   5.022   0.434  15.977  0.5757 -0.4772 -2.5186
19450TIP3    H279842   4.946   0.555  16.028  3.5025  1.0267 -1.5938
19451TIP3   OH279843   2.283   3.688  11.083 -0.2060  0.2740 -0.2142
19451TIP3    H179844   2.246   3.669  10.997  0.5576 -0.1583 -0.4530
19451TIP3    H279845   2.373   3.716  11.064  0.3131 -0.8938  0.5212
19452TIP3   OH279846   3.331   6.038   2.754  0.4267 -0.1798 -0.1063
19452TIP3    H179847   3.251   5.991   2.779  0.5548  0.2007  1.0360
19452TIP3    H279848   3.367   5.986   2.682  0.8084 -2.1206  1.4251
19453TIP3   OH279849   6.753   3.086   4.678 -0.0162 -0.2884  0.0799
19453TIP3    H179850   6.731   3.166   4.630 -1.1428 -0.8905 -0.4156
19453TIP3    H279851   6.828   3.050   4.631 -0.1675 -0.0746 -0.3234
19454TIP3   OH279852   5.262   2.274  11.409  0.6532 -0.0222  0.1256
19454TIP3    H179853   5.228   2.220  11.338 -0.4413 -1.1134  1.4350
19454TIP3    H279854   5.319   2.215  11.459  1.2975  0.6881  0.2449
19455TIP3   OH279855   4.263   3.039   5.683  0.0784 -0.5601  0.5885
19455TIP3    H179856   4.224   3.106   5.628 -1.6918 -1.3813  0.7866
19455TIP3    H279857   4.299   3.086   5.758  2.0036  0.5003 -0.9731
19456TIP3   OH279858   6.053   5.810  15.957 -0.0081 -0.1025 -0.2536
19456TIP3    H179859   6.097   5.872  15.899  0.0667 -0.1082 -0.2026
19456TIP3    H279860   6.114   5.797  16.030  0.5827 -1.2742 -0.9272
19457TIP3   OH279861   2.618   0.115   5.577  0.7433 -0.1385  0.0582
19457TIP3    H179862   2.703   0.099   5.618  0.4248  0.1197  0.8180
19457TIP3    H279863   2.595   0.031   5.537  1.3196 -0.2290 -0.0916
19458TIP3   OH279864   6.332   3.758  13.403 -0.4463  0.4385  0.0691
19458TIP3    H179865   6.367   3.702  13.334  2.8209  1.2350  0.9775
19458TIP3    H279866   6.274   3.701  13.454  1.0450 -1.5015 -0.3586
19459TIP3   OH279867   3.513   4.563   2.075 -0.8243  0.3412  0.1186
19459TIP3    H179868   3.562   4.567   1.993 -0.1243 -0.4976  0.4913
19459TIP3    H279869   3.566   4.612   2.137  0.0296 -1.3561  0.7587
19460TIP3   OH279870   2.226   0.344  15.661  0.0438  0.3602 -0.8478
19460TIP3    H179871   2.311   0.301  15.653 -0.8044 -2.1426  2.4249
19460TIP3    H279872   2.177   0.317  15.583  0.6560 -2.1094 -0.4230
19461TIP3   OH279873   2.004   6.230   5.111  0.0555  0.2191 -0.4269
19461TIP3    H179874   1.997   6.255   5.019 -0.1446 -0.1754 -0.5224
19461TIP3    H279875   1.918   6.193   5.132  0.3166 -0.2948 -0.2677
19462TIP3   OH279876   5.407   5.012  12.779 -0.9580 -0.3968 -0.2737
19462TIP3    H179877   5.367   5.099  12.768  0.2076 -0.0455 -1.8550
19462TIP3    H279878   5.414   5.001  12.874 -0.3203  1.6145 -0.0610
19463TIP3   OH279879   3.200   6.380  15.831 -0.1195 -0.2761 -0.1701
19463TIP3    H179880   3.249   6.451  15.789 -0.1284 -0.2160 -0.0797
19463TIP3    H279881   3.245   6.300  15.803  2.9260 -0.0520  3.5498
19464TIP3   OH279882   6.317   2.538   3.909 -0.2726 -0.4925  0.8338
19464TIP3    H179883   6.309   2.575   3.997 -2.0970 -0.4424  0.6620
19464TIP3    H279884   6.337   2.613   3.853  0.8476 -0.5186  1.1980
19465TIP3   OH279885   2.757   0.902   3.367 -0.2094  0.6936  0.1437
19465TIP3    H179886   2.703   0.872   3.294 -3.1121  3.0528  1.2328
19465TIP3    H279887   2.788   0.821   3.408 -1.1511 -0.6800 -1.7802
19466TIP3   OH279888   6.410   3.735   1.487  0.2096  0.4098 -0.3581
19466TIP3    H179889   6.342   3.796   1.515  0.2397  0.2273  0.1277
19466TIP3    H279890   6.484   3.791   1.463  1.7094  0.5222  3.9167
19467TIP3   OH279891   2.207   2.429  13.813 -0.6276 -0.0212 -0.6330
19467TIP3    H179892   2.286   2.477  13.838 -0.6225  0.4846 -1.6293
19467TIP3    H279893   2.135   2.487  13.838 -0.6111  0.6827 -2.2067
19468TIP3   OH279894   0.640   6.659  11.308 -0.1097  0.2058  0.1533
19468TIP3    H179895   0.607   6.738  11.264 -0.1964 -0.0370 -0.2205
19468TIP3    H279896   0.602   6.663  11.395 -0.2048  0.5215  0.0990
19469TIP3   OH279897   5.044   0.327   1.395 -0.4138  0.8840 -0.0418
19469TIP3    H179898   5.031   0.371   1.311  0.0261  1.4958  0.2044
19469TIP3    H279899   5.136   0.304   1.397 -0.1102  2.0812  0.8346
19470TIP3   OH279900   2.067   6.601   1.008  0.5426  0.1784 -0.3920
19470TIP3    H179901   1.993   6.662   1.012 -0.0493 -0.6128  3.4231
19470TIP3    H279902   2.131   6.644   0.952 -1.9118  1.9125 -1.9811
19471TIP3   OH279903   4.218   0.471   1.702  0.3686 -0.2447 -0.3677
19471TIP3    H179904   4.212   0.444   1.794  0.1379 -1.4780 -0.7380
19471TIP3    H279905   4.266   0.554   1.705  0.7175 -0.4721  0.8341
19472TIP3   OH279906   4.097   5.317  12.470 -0.2260  0.3864 -0.5463
19472TIP3    H179907   4.120   5.228  12.442 -1.2843 -0.2681  0.6441
19472TIP3    H279908   4.098   5.368  12.389  0.6478 -0.6462 -1.2000
19473TIP3   OH279909   0.821   3.430   0.993 -0.1110  0.2283 -0.5646
19473TIP3    H179910   0.727   3.449   0.997 -0.5547 -1.8305 -0.8766
19473TIP3    H279911   0.836   3.403   0.902  0.9629  1.4197 -0.7515
19474TIP3   OH279912   0.795   4.118   5.953 -0.0885  0.2267 -0.0854
19474TIP3    H179913   0.765   4.031   5.979 -1.0968  0.7515  0.5548
19474TIP3    H279914   0.716   4.163   5.924  0.1749  1.4005  0.9695
19475TIP3   OH279915   4.022   2.254  14.111  0.1603 -0.0242  0.5553
19475TIP3    H179916   3.966   2.190  14.157  1.8525 -1.2587  0.9665
19475TIP3    H279917   4.056   2.309  14.181 -0.0608  0.3433  0.3727
19476TIP3   OH279918   0.937   1.402   5.273  0.0526 -0.3903 -0.1075
19476TIP3    H179919   0.853   1.388   5.316 -0.4105 -0.2182 -0.9574
19476TIP3    H279920   0.962   1.316   5.240  0.4073 -0.5221  0.4982
19477TIP3   OH279921   0.544   2.562  13.640  0.1637  0.5554 -0.1434
19477TIP3    H179922   0.589   2.521  13.566 -0.8754  2.1649 -1.7258
19477TIP3    H279923   0.453   2.533  13.631  0.4988 -1.3076  2.0423
19478TIP3   OH279924   3.870   6.414  16.738  0.5360 -0.3004 -0.4031
19478TIP3    H179925   3.864   6.347  16.670  1.5181 -1.2404  0.4273
19478TIP3    H279926   3.923   6.375  16.807  3.5600  2.3443 -1.1137
19479TIP3   OH279927   6.048   3.244   3.174  0.1540  0.3252 -0.1692
19479TIP3    H179928   5.955   3.241   3.195  0.3611  0.2795  0.7714
19479TIP3    H279929   6.057   3.186   3.098 -0.7568  1.2147 -0.9670
19480TIP3   OH279930   6.602   5.500  15.907  1.0326 -0.6669  0.3490
19480TIP3    H179931   6.619   5.580  15.858  0.3323 -1.8553 -1.9412
19480TIP3    H279932   6.528   5.522  15.964  0.5784  0.2231 -0.5610
19481TIP3   OH279933   5.218   4.633   1.823  0.5233 -0.0814  0.2643
19481TIP3    H179934   5.235   4.635   1.917 -0.2849 -1.7955  0.4682
19481TIP3    H279935   5.297   4.670   1.784  0.7629  0.8904  1.6198
19482TIP3   OH279936   1.398   4.472  12.571 -0.8826 -0.3297 -0.8154
19482TIP3    H179937   1.335   4.506  12.509 -0.0318  0.3191 -1.3337
19482TIP3    H279938   1.346   4.421  12.634 -1.9827  0.7353 -0.8566
19483TIP3   OH279939   5.118   2.176   1.858 -0.1129  0.0312  0.3472
19483TIP3    H179940   5.101   2.266   1.832  0.9364 -0.0817 -0.7862
19483TIP3    H279941   5.138   2.131   1.776  2.9561 -0.3972  1.2644
19484TIP3   OH279942   6.260   0.674   5.659  0.1358  0.0488  0.6863
19484TIP3    H179943   6.347   0.636   5.673 -1.1834 -2.8628  1.5667
19484TIP3    H279944   6.242   0.659   5.566 -0.9721 -2.9949  1.3295
19485TIP3   OH279945   0.553   4.789   0.451 -0.4788  0.2483  0.4798
19485TIP3    H179946   0.493   4.715   0.441  1.0724 -0.9742  0.1553
19485TIP3    H279947   0.563   4.824   0.362  1.1489 -1.0321  0.1424
19486TIP3   OH279948   4.435   4.568   1.563  0.4352 -0.3378 -0.4116
19486TIP3    H179949   4.495   4.610   1.501 -0.2097  1.0781 -0.1171
19486TIP3    H279950   4.373   4.519   1.508 -1.7239  2.9923 -1.1260
19487TIP3   OH279951   2.343   4.771   5.557  0.1346  0.7638 -0.2944
19487TIP3    H179952   2.297   4.696   5.520 -0.1872  0.8736 -0.1160
19487TIP3    H279953   2.435   4.745   5.557 -0.1077 -0.1163  0.9241
19488TIP3   OH279954   2.799   1.890  11.134  1.1127 -0.4112  0.5347
19488TIP3    H179955   2.835   1.899  11.046  0.4289 -0.4826  0.2404
19488TIP3    H279956   2.739   1.816  11.128 -0.5516  0.8893  0.4943
19489TIP3   OH279957   1.155   3.135  16.075  0.3443 -0.1627  0.0675
19489TIP3    H179958   1.177   3.222  16.107 -0.4131 -0.3665  1.1409
19489TIP3    H279959   1.175   3.139  15.981  0.8268  0.9922  0.2073
19490TIP3   OH279960   1.824   3.268   0.789  0.7499 -0.2123  0.5495
19490TIP3    H179961   1.831   3.291   0.881  1.2709  0.7158  0.2872
19490TIP3    H279962   1.893   3.319   0.746  0.4822 -0.5938 -0.3577
19491TIP3   OH279963   2.572   1.974   3.864 -0.1456 -0.0021 -0.6524
19491TIP3    H179964   2.549   1.992   3.773  0.3706  1.5848 -0.5035
19491TIP3    H279965   2.500   2.010   3.915  0.6163  1.1636 -0.3615
19492TIP3   OH279966   6.761   1.326  15.176 -0.7431  0.1291 -0.6225
19492TIP3    H179967   6.709   1.251  15.148 -0.4679 -0.4127  0.2904
19492TIP3    H279968   6.807   1.296  15.254  1.0613  0.5375 -1.4923
19493TIP3   OH279969   5.475   3.669   1.175  0.3211 -0.0717 -0.5083
19493TIP3    H179970   5.406   3.736   1.179 -0.1150 -0.4606 -1.4714
19493TIP3    H279971   5.543   3.707   1.119  0.2923 -0.2325 -0.6531
19494TIP3   OH279972   2.436   2.279   2.399 -0.0018 -0.3314  0.8728
19494TIP3    H179973   2.487   2.216   2.349  0.4467  0.9744 -0.3575
19494TIP3    H279974   2.501   2.341   2.434 -0.6028  0.6725  0.2592
19495TIP3   OH279975   4.725   1.483  10.580 -0.0978 -0.4313 -0.0944
19495TIP3    H179976   4.680   1.566  10.567 -1.4706 -1.1768 -0.2527
19495TIP3    H279977   4.814   1.497  10.546 -0.6463  0.6365 -1.1028
19496TIP3   OH279978   3.301   1.601   0.853  0.3946  0.1221  0.3715
19496TIP3    H179979   3.364   1.669   0.830 -0.4292  1.3477  1.7097
19496TIP3    H279980   3.229   1.647   0.894 -0.2718 -1.5336  1.1254
19497TIP3   OH279981   5.769   5.423   5.736 -0.0773  0.2710  0.1208
19497TIP3    H179982   5.848   5.463   5.700  1.3834 -1.3394  1.4415
19497TIP3    H279983   5.747   5.352   5.676  1.4981 -1.4645  1.5388
19498TIP3   OH279984   3.007   3.967  16.445  0.9592  0.4538  0.2861
19498TIP3    H179985   3.084   3.923  16.410  0.0747 -0.6789 -0.3061
19498TIP3    H279986   2.945   3.896  16.464  0.0243  1.3404  0.6551
19499TIP3   OH279987   4.197   5.341   6.317  0.5487  0.0164  0.6135
19499TIP3    H179988   4.117   5.321   6.366 -0.9321  0.4145 -1.5929
19499TIP3    H279989   4.244   5.402   6.373 -0.7545 -0.0905  1.8665
19500TIP3   OH279990   1.615   1.750   6.019 -0.3649  0.4928 -0.1134
19500TIP3    H179991   1.582   1.667   6.054 -0.1677  0.1174 -0.8113
19500TIP3    H279992   1.581   1.816   6.080 -0.0823 -0.1390  0.7525
19501TIP3   OH279993   1.261   2.965  17.059  0.2094  0.0951 -0.3916
19501TIP3    H179994   1.312   3.043  17.037 -1.4828  1.4333  0.3530
19501TIP3    H279995   1.290   2.899  16.996  1.9970  1.1700 -0.7259
19502TIP3   OH279996   2.406   2.883  16.581 -0.3083 -0.6868 -0.4170
19502TIP3    H179997   2.323   2.845  16.554  0.1879 -1.7201 -0.4882
19502TIP3    H279998   2.419   2.853  16.671 -1.2243  1.5150  0.4882
19503TIP3   OH279999   0.614   1.404  13.253 -0.3848  0.4932  0.6721
19503TIP3    H180000   0.621   1.351  13.332 -0.0859 -0.7695 -0.1871
19503TIP3    H280001   0.688   1.376  13.199  0.1438  2.2336  0.4707
19504TIP3   OH280002   1.152   2.521   5.733 -0.2718  1.0476  0.1457
19504TIP3    H180003   1.062   2.522   5.767 -0.3026  0.8281  0.0701
19504TIP3    H280004   1.143   2.493   5.642  0.0126 -0.3515  0.5415
19505TIP3   OH280005   5.514   6.497   3.642 -0.7513 -0.0284 -0.4852
19505TIP3    H180006   5.555   6.489   3.556  2.0716 -0.3933  0.8445
19505TIP3    H280007   5.525   6.590   3.665 -2.4986  0.3207 -0.9510
19506TIP3   OH280008   6.398   5.724  12.322 -0.1220  0.0127  0.4587
19506TIP3    H180009   6.478   5.674  12.340  0.1702  0.9470  1.8862
19506TIP3    H280010   6.416   5.771  12.241  0.7867  0.2137  0.7717
19507TIP3   OH280011   2.020   5.291   6.071  0.5151 -0.2278  0.0150
19507TIP3    H180012   1.960   5.343   6.017  0.1818 -2.3445 -1.7023
19507TIP3    H280013   1.991   5.308   6.161 -0.3140  1.6484 -0.5810
19508TIP3   OH280014   3.238   5.454   4.647  0.3177 -0.2798 -0.1092
19508TIP3    H180015   3.215   5.533   4.695  1.0957 -0.3849  0.4615
19508TIP3    H280016   3.266   5.393   4.715  0.4124 -0.7999 -0.6104
19509TIP3   OH280017   1.640   4.895  17.201 -0.3224  0.1201  0.2576
19509TIP3    H180018   1.673   4.817  17.157 -0.7673  0.1354 -0.1151
19509TIP3    H280019   1.716   4.952  17.211 -0.5518  0.9247 -2.2203
19510TIP3   OH280020   0.065   4.988   0.442  0.4325  0.3180 -0.6358
19510TIP3    H180021   0.037   4.986   0.350  3.1066  0.3715 -1.4767
19510TIP3    H280022   0.158   5.010   0.438  0.7840 -0.5738  2.0544
19511TIP3   OH280023   5.196   4.818  16.033  0.4509  0.1672  0.4232
19511TIP3    H180024   5.167   4.825  16.124 -0.3368  1.5264  0.1000
19511TIP3    H280025   5.138   4.752  15.995 -0.1900  0.6429  0.5573
19512TIP3   OH280026   1.148   4.557   2.776  0.0589 -0.0223 -0.3606
19512TIP3    H180027   1.061   4.562   2.816 -0.0404 -0.2519 -0.5510
19512TIP3    H280028   1.156   4.639   2.726  0.0263  0.0816 -0.1977
19513TIP3   OH280029   0.383   5.985   5.789  0.0774 -0.1737 -0.2984
19513TIP3    H180030   0.303   5.964   5.741  0.3868 -0.5369 -0.6560
19513TIP3    H280031   0.408   5.904   5.833  1.8942 -0.9131 -2.5796
19514TIP3   OH280032   2.946   6.766  14.734 -0.3999 -0.1836 -0.1522
19514TIP3    H180033   2.852   6.778  14.749 -0.3568  0.1877 -0.1763
19514TIP3    H280034   2.987   6.831  14.791 -0.1262 -0.9267  0.5068
19515TIP3   OH280035   5.648   6.044  10.111  0.4179  0.4556  0.3437
19515TIP3    H180036   5.558   6.026  10.084  0.1654  0.7336  0.9995
19515TIP3    H280037   5.692   5.959  10.106 -0.1663  0.1040  1.1068
19516TIP3   OH280038   3.346   3.185   2.220 -0.0695  0.4802 -0.0822
19516TIP3    H180039   3.357   3.092   2.201  1.0020  0.5282  0.2848
19516TIP3    H280040   3.268   3.188   2.276 -0.3747 -0.1449 -0.4620
19517TIP3   OH280041   2.922   2.206  11.607  0.2855  0.3812  0.3630
19517TIP3    H180042   2.973   2.278  11.569 -0.7378 -0.1041 -2.0264
19517TIP3    H280043   2.947   2.129  11.557 -0.5150 -0.4557  1.2204
19518TIP3   OH280044   6.433   2.924  17.189 -0.2023 -0.2134  0.2139
19518TIP3    H180045   6.450   3.009  17.228  0.2700  0.4143 -1.3392
19518TIP3    H280046   6.370   2.883  17.248  0.0536  0.9418  1.3110
19519TIP3   OH280047   2.670   2.389   2.480  0.0518 -0.1027 -0.0502
19519TIP3    H180048   2.706   2.459   2.535  0.4852  1.1559 -1.9254
19519TIP3    H280049   2.746   2.355   2.432 -0.8801  1.2296 -2.5396
19520TIP3   OH280050   5.445   6.778   0.183  0.0637 -0.3903  0.3149
19520TIP3    H180051   5.357   6.763   0.149  0.2583  0.1439 -0.4457
19520TIP3    H280052   5.469   6.695   0.224 -0.2735 -0.9726 -0.6558
19521TIP3   OH280053   3.262   0.750   6.049 -0.4653 -0.8646  0.3628
19521TIP3    H180054   3.229   0.750   5.959 -0.4664  1.8974  0.3022
19521TIP3    H280055   3.183   0.744   6.103 -0.6471 -0.2981  0.1707
19522TIP3   OH280056   6.744   0.376  15.429  0.1186  0.0662 -0.0189
19522TIP3    H180057   6.756   0.358  15.335  0.2957  0.5325 -0.0861
19522TIP3    H280058   6.773   0.296  15.472 -0.0988 -0.2073 -0.3704
19523TIP3   OH280059   0.893   3.304   4.116 -0.2983  0.8452  0.2207
19523TIP3    H180060   0.853   3.353   4.044 -0.9220  0.5632  0.3770
19523TIP3    H280061   0.890   3.213   4.087  2.3494  1.0149 -0.8065
19524TIP3   OH280062   3.415   5.107   0.065 -0.3716 -0.0777  0.2224
19524TIP3    H180063   3.455   5.187   0.031  1.9033 -1.9796 -1.7925
19524TIP3    H280064   3.326   5.108   0.030  0.3297  0.5311 -1.6179
19525TIP3   OH280065   2.772   2.047   4.049  0.1359  0.1530  0.2696
19525TIP3    H180066   2.702   2.095   4.093 -0.9201 -1.7071  0.6672
19525TIP3    H280067   2.736   2.026   3.963  0.4108 -0.3393  0.2732
19526TIP3   OH280068   0.276   6.497  13.286 -0.2828 -0.2962 -0.5689
19526TIP3    H180069   0.202   6.464  13.337 -0.3776 -0.7828 -1.0238
19526TIP3    H280070   0.294   6.429  13.222  0.9120 -0.4112 -0.1198
19527TIP3   OH280071   0.470   3.555  12.653 -0.0623  0.0171 -0.5245
19527TIP3    H180072   0.409   3.623  12.624  1.1754  0.6925 -1.6210
19527TIP3    H280073   0.553   3.601  12.665  0.7380 -1.2595 -1.0655
19528TIP3   OH280074   4.510   6.125  11.296 -0.2949  0.1649  0.2631
19528TIP3    H180075   4.603   6.140  11.285 -0.2905  1.9335  2.4529
19528TIP3    H280076   4.472   6.212  11.308 -2.2285 -0.5338 -0.4502
19529TIP3   OH280077   1.208   0.568   5.015  0.2303  0.4609 -0.3994
19529TIP3    H180078   1.137   0.616   5.059  0.0472  1.0284 -1.2908
19529TIP3    H280079   1.192   0.477   5.037  0.9668  0.8436  1.8806
19530TIP3   OH280080   0.342   2.920  12.363 -0.1533 -0.6871  0.6139
19530TIP3    H180081   0.261   2.877  12.389 -0.3435 -0.9079 -0.3332
19530TIP3    H280082   0.401   2.849  12.336  0.2675 -0.5114  1.0534
19531TIP3   OH280083   5.117   2.191  14.106 -0.1559 -0.0499  0.1101
19531TIP3    H180084   5.058   2.197  14.031  0.3501 -0.2382 -0.3080
19531TIP3    H280085   5.060   2.176  14.180 -0.4980 -2.2392 -0.5684
19532TIP3   OH280086   5.158   0.279   5.822 -0.6689 -0.5608 -0.4623
19532TIP3    H180087   5.103   0.214   5.865  1.2707 -2.0827 -0.1975
19532TIP3    H280088   5.150   0.357   5.877 -1.4819 -1.2062  0.3475
19533TIP3   OH280089   6.813   1.084  14.568  0.9764  0.4118 -0.2574
19533TIP3    H180090   6.791   1.177  14.578 -0.1936  0.4789 -3.0359
19533TIP3    H280091   6.852   1.078  14.481 -1.7358 -2.1981 -1.3593
19534TIP3   OH280092   5.853   2.007  12.908 -0.6072  0.8933 -0.2509
19534TIP3    H180093   5.781   1.945  12.896 -0.4019  0.3789  1.0391
19534TIP3    H280094   5.908   1.996  12.831 -0.9392 -0.0428 -0.3622
19535TIP3   OH280095   3.616   6.753  13.551 -0.5807  0.2469 -0.2945
19535TIP3    H180096   3.710   6.769  13.563 -0.1078 -2.8011  0.6840
19535TIP3    H280097   3.612   6.662  13.520 -3.2936 -0.4496  1.8913
19536TIP3   OH280098   6.655   0.522  17.191 -0.0690  0.1385 -0.9550
19536TIP3    H180099   6.559   0.518  17.198  0.0293  1.1586  1.8175
19536TIP3    H280100   6.671   0.588  17.123 -1.3302  0.5765 -0.8483
19537TIP3   OH280101   6.760   4.927   0.201 -0.0887  0.4399 -0.7913
19537TIP3    H180102   6.715   4.843   0.191  1.1114 -0.3345  0.2049
19537TIP3    H280103   6.692   4.992   0.182 -1.0357 -0.7389 -1.5749
19538TIP3   OH280104   2.786   1.927  13.323 -0.3172 -0.0432 -0.7574
19538TIP3    H180105   2.698   1.898  13.347  0.2842  0.0993  1.7941
19538TIP3    H280106   2.833   1.846  13.305 -0.2858 -0.2998  0.4221
19539TIP3   OH280107   5.716   5.505   0.302  0.4549 -0.5236  0.5466
19539TIP3    H180108   5.734   5.465   0.217  1.6610  3.2733 -1.1006
19539TIP3    H280109   5.629   5.473   0.326  0.1324 -1.7427 -2.0834
19540TIP3   OH280110   4.787   2.602  16.352 -0.1344  0.2748 -0.0526
19540TIP3    H180111   4.730   2.596  16.429 -0.1260  0.3892 -0.0364
19540TIP3    H280112   4.758   2.531  16.295  0.0204  0.0354  0.1631
19541TIP3   OH280113   6.700   6.416   1.796 -0.2255 -0.5431 -0.7474
19541TIP3    H180114   6.764   6.439   1.863 -1.4668  0.2208  0.1969
19541TIP3    H280115   6.737   6.339   1.753  1.6752  0.3142 -0.7161
19542TIP3   OH280116   4.156   3.813   5.703  0.4042  0.0258 -0.7322
19542TIP3    H180117   4.113   3.898   5.711  1.0323  0.3798 -1.0630
19542TIP3    H280118   4.145   3.772   5.788 -2.1191 -0.6273 -1.3465
19543TIP3   OH280119   4.788   6.010   1.080  0.1280  0.0836 -0.3320
19543TIP3    H180120   4.714   5.953   1.059 -0.8812  1.9063 -1.9273
19543TIP3    H280121   4.855   5.986   1.017  0.2921 -0.4485  0.0473
19544TIP3   OH280122   3.136   0.420   5.523 -0.2775  0.3683 -0.5105
19544TIP3    H180123   3.176   0.371   5.452 -1.3110  0.0201 -0.8660
19544TIP3    H280124   3.042   0.408   5.510 -0.4926  0.9783  0.4368
19545TIP3   OH280125   1.503   6.085   1.885 -0.2035  0.0337  0.3457
19545TIP3    H180126   1.510   6.180   1.892  0.2618  0.0265 -0.0450
19545TIP3    H280127   1.419   6.065   1.927  0.1265  0.5160  1.2401
19546TIP3   OH280128   1.686   1.498   1.788 -0.7024 -0.0417  0.2584
19546TIP3    H180129   1.779   1.521   1.783 -0.3470 -0.6984  2.8027
19546TIP3    H280130   1.685   1.402   1.788 -1.4401 -0.0423 -0.3766
19547TIP3   OH280131   5.545   3.491   1.379  0.5538 -0.1672  1.1484
19547TIP3    H180132   5.639   3.487   1.362  0.5390  1.9756  0.3420
19547TIP3    H280133   5.507   3.519   1.296 -0.5833  0.9707  2.0266
19548TIP3   OH280134   1.428   5.376   1.207 -0.2244  0.0452 -0.8338
19548TIP3    H180135   1.479   5.446   1.249  0.3492 -0.6284 -0.3926
19548TIP3    H280136   1.344   5.377   1.253 -0.1081  0.2508 -0.6206
19549TIP3   OH280137   5.100   2.899   0.206  0.6140  0.2190 -0.1278
19549TIP3    H180138   5.102   2.891   0.301  1.3079 -0.3345 -0.1897
19549TIP3    H280139   5.122   2.991   0.189  1.2294  0.1305  0.2066
19550TIP3   OH280140   0.400   5.613   2.316  0.0183 -0.2814  0.0653
19550TIP3    H180141   0.346   5.561   2.256 -2.1841 -0.0574  1.7644
19550TIP3    H280142   0.396   5.566   2.399  2.3404 -0.1497  0.2751
19551TIP3   OH280143   6.580   3.945  14.507  0.1986  0.6217 -0.5537
19551TIP3    H180144   6.560   3.867  14.559  0.0599  1.3258  0.4565
19551TIP3    H280145   6.497   3.969  14.467  0.4594 -0.3441 -1.6839
19552TIP3   OH280146   6.547   2.855   0.805  1.1667  0.3340  0.9240
19552TIP3    H180147   6.521   2.893   0.890 -1.2868 -0.9073  0.7881
19552TIP3    H280148   6.514   2.765   0.808  1.6561  0.0690 -1.0928
19553TIP3   OH280149   4.778   4.803  15.608  0.1557  0.7534 -0.0675
19553TIP3    H180150   4.748   4.892  15.624  0.5063  0.9468 -0.4976
19553TIP3    H280151   4.719   4.769  15.541 -0.2591  0.5048  0.4150
19554TIP3   OH280152   2.834   4.596   6.139 -0.9468  0.4972  0.4552
19554TIP3    H180153   2.892   4.671   6.151  0.2994 -0.3795 -0.0378
19554TIP3    H280154   2.746   4.630   6.159 -0.1709  1.6152  2.0447
19555TIP3   OH280155   2.062   5.661   1.105 -0.7193 -0.3578  0.1047
19555TIP3    H180156   2.068   5.748   1.144  0.3944  0.0236 -0.8794
19555TIP3    H280157   2.086   5.601   1.175 -0.7461  0.1767  0.5747
19556TIP3   OH280158   3.074   4.129   2.712  0.3504 -0.2630 -0.0112
19556TIP3    H180159   3.159   4.087   2.699  0.2664  0.1282 -1.9551
19556TIP3    H280160   3.085   4.183   2.790  1.4502 -1.3153  0.5766
19557TIP3   OH280161   2.597   4.955   2.618  0.1256  0.2308  0.0908
19557TIP3    H180162   2.593   4.876   2.564 -0.6344  0.0157  0.4644
19557TIP3    H280163   2.511   4.960   2.660  0.1508  1.3003  0.0078
19558TIP3   OH280164   3.427   2.897   2.928 -0.4741 -0.4665  0.1200
19558TIP3    H180165   3.342   2.933   2.906  0.4159  0.8518 -1.2630
19558TIP3    H280166   3.443   2.926   3.018 -0.0038  2.2329 -0.7885
19559TIP3   OH280167   0.995   2.926   4.909  0.4301  0.4271 -0.4996
19559TIP3    H180168   1.060   2.881   4.855  0.2796  1.0550 -1.2110
19559TIP3    H280169   0.920   2.938   4.850 -1.0152 -1.8219  0.7708
19560TIP3   OH280170   1.600   3.961  12.261  0.1445 -0.0679 -0.2079
19560TIP3    H180171   1.634   3.900  12.195  1.5748 -0.4832  0.9060
19560TIP3    H280172   1.527   3.913  12.302  0.7856 -0.7461  0.1519
19561TIP3   OH280173   6.246   0.639   1.497 -0.3198 -0.1803 -0.0621
19561TIP3    H180174   6.334   0.668   1.521 -0.6488  1.7019 -1.0403
19561TIP3    H280175   6.237   0.553   1.539  1.6737 -0.0446  0.7094
19562TIP3   OH280176   3.779   3.295   5.520  0.7572 -0.0358 -0.0656
19562TIP3    H180177   3.803   3.388   5.515 -0.7182  0.3542  0.1425
19562TIP3    H280178   3.708   3.292   5.583 -1.7461 -0.7792 -2.7964
19563TIP3   OH280179   4.393   0.100   5.472 -0.5970  0.6577 -0.1222
19563TIP3    H180180   4.478   0.143   5.487  0.1955 -0.6966 -0.6427
19563TIP3    H280181   4.364   0.132   5.387  0.3271 -0.3246 -0.8327
19564TIP3   OH280182   3.741   4.133   0.103  0.8587  0.3667 -0.0056
19564TIP3    H180183   3.693   4.146   0.185 -0.9715 -0.8068 -0.8515
19564TIP3    H280184   3.674   4.142   0.034  1.0642 -4.6516 -1.0809
19565TIP3   OH280185   4.369   0.675  12.942 -0.0090 -0.2869 -0.3872
19565TIP3    H180186   4.346   0.756  12.895  0.9528 -0.7290 -1.6791
19565TIP3    H280187   4.287   0.645  12.981 -0.6801  0.5198 -1.1582
19566TIP3   OH280188   1.287   6.457   2.528 -0.0512 -0.3021  0.9447
19566TIP3    H180189   1.288   6.546   2.491  0.5268 -1.0843 -0.9910
19566TIP3    H280190   1.338   6.464   2.608  0.5727  0.9664  0.4600
19567TIP3   OH280191   4.285   2.114   2.606 -0.3139 -0.1621  0.2233
19567TIP3    H180192   4.279   2.019   2.600 -0.2077 -0.0657 -1.7157
19567TIP3    H280193   4.197   2.145   2.585 -0.2801  0.1889  0.5823
19568TIP3   OH280194   6.576   3.756   4.215 -0.1954 -0.2529 -0.7927
19568TIP3    H180195   6.557   3.738   4.122 -1.2773 -1.3352 -0.3710
19568TIP3    H280196   6.598   3.670   4.252  0.6798  0.2463 -0.1337
19569TIP3   OH280197   0.283   6.697   0.108 -0.2826 -0.0231 -0.0331
19569TIP3    H180198   0.279   6.706   0.203 -0.8554 -0.3082 -0.0271
19569TIP3    H280199   0.219   6.760   0.075  1.0424  1.1846 -0.2978
19570TIP3   OH280200   2.743   0.211  15.268  0.2220  0.5399 -0.3722
19570TIP3    H180201   2.693   0.176  15.341  2.8153  0.0162  1.2287
19570TIP3    H280202   2.792   0.285  15.305  0.7644  0.9435 -1.8302
19571TIP3   OH280203   0.846   5.948   1.610 -0.2121 -0.0158  0.2779
19571TIP3    H180204   0.934   5.911   1.615 -1.5165 -3.1526  1.0418
19571TIP3    H280205   0.826   5.950   1.516  1.2362  2.2272 -0.0254
19572TIP3   OH280206   5.504   3.630  15.642 -0.3810  0.0040 -0.1728
19572TIP3    H180207   5.517   3.546  15.598  0.6851  0.6860 -1.1986
19572TIP3    H280208   5.529   3.696  15.577 -1.0424  1.1188  0.6679
19573TIP3   OH280209   4.448   3.365   2.101 -0.3023  0.2251  0.3511
19573TIP3    H180210   4.470   3.378   2.193  1.2816  0.7466 -0.0850
19573TIP3    H280211   4.428   3.453   2.068 -1.2998 -0.0166  0.3071
19574TIP3   OH280212   0.904   6.593  12.721  0.4093 -0.1037  0.3524
19574TIP3    H180213   0.840   6.656  12.686 -1.2608 -0.9127  1.8643
19574TIP3    H280214   0.870   6.508  12.694  0.9203 -0.5367  1.0793
19575TIP3   OH280215   4.767   4.933   0.344  0.7498 -0.0968  0.0600
19575TIP3    H180216   4.820   4.930   0.423 -0.5131 -0.2893  0.9069
19575TIP3    H280217   4.765   5.026   0.320  0.0380  0.1415  1.0092
19576TIP3   OH280218   6.570   0.454   0.474  0.1384 -0.0843  0.7344
19576TIP3    H180219   6.609   0.412   0.397 -1.0777  1.3873 -0.7261
19576TIP3    H280220   6.615   0.538   0.481 -0.6958  0.3635  0.7937
19577TIP3   OH280221   3.667   4.254  12.495 -0.2171  0.2735 -0.3253
19577TIP3    H180222   3.679   4.335  12.445  0.7952  0.6793  0.5539
19577TIP3    H280223   3.647   4.284  12.584  0.4580 -0.4532  0.0714
19578TIP3   OH280224   0.192   4.769  15.234  0.2360 -0.1303  0.2351
19578TIP3    H180225   0.114   4.722  15.263 -0.8149  1.3380 -0.1440
19578TIP3    H280226   0.243   4.783  15.314 -0.4473 -0.0911  0.6684
19579TIP3   OH280227   2.480   2.518  16.857 -0.1006 -0.3969 -0.1597
19579TIP3    H180228   2.527   2.479  16.782  1.0277 -0.0364  0.3425
19579TIP3    H280229   2.394   2.477  16.855 -0.0532 -0.4683 -1.6033
19580TIP3   OH280230   5.805   4.748   2.249  0.7586  0.2231  0.2777
19580TIP3    H180231   5.799   4.653   2.238  0.5800  0.4401 -1.6564
19580TIP3    H280232   5.863   4.777   2.179  0.3624  1.6086  0.4958
19581TIP3   OH280233   2.789   0.006  13.420 -0.3546  0.3799  0.5631
19581TIP3    H180234   2.823   0.095  13.433  0.4644  0.4486 -1.8569
19581TIP3    H280235   2.720   0.017  13.354  0.9624 -1.0053 -1.0839
19582TIP3   OH280236   3.377   4.345   2.537 -0.1743  0.4663  0.4256
19582TIP3    H180237   3.412   4.349   2.626 -0.9045  3.3641  0.6204
19582TIP3    H280238   3.454   4.356   2.481  0.1678 -0.5015  0.6827
19583TIP3   OH280239   5.003   2.794  16.293  0.8630 -0.0229 -0.1548
19583TIP3    H180240   4.945   2.799  16.217 -0.9269  1.8543  1.3059
19583TIP3    H280241   4.993   2.705  16.325 -2.5762  0.7347  1.0937
19584TIP3   OH280242   2.327   5.462  16.583  0.1539  0.4587  0.1388
19584TIP3    H180243   2.410   5.464  16.536  2.2146  0.9483  3.6100
19584TIP3    H280244   2.274   5.531  16.542  2.3175  1.7240 -0.5964
19585TIP3   OH280245   1.509   0.603  13.880  0.4676  0.0979  0.0120
19585TIP3    H180246   1.603   0.589  13.882  0.1123 -2.6827  0.3785
19585TIP3    H280247   1.484   0.587  13.789  0.1724 -0.6652  0.2206
19586TIP3   OH280248   3.890   0.108  14.735 -0.2918 -0.6045 -0.1314
19586TIP3    H180249   3.820   0.129  14.798 -0.3132 -0.7225 -0.1152
19586TIP3    H280250   3.863   0.151  14.654 -0.8961 -1.4747 -0.4069
19587TIP3   OH280251   0.183   4.139   2.757  0.7664  0.2583 -0.5326
19587TIP3    H180252   0.167   4.064   2.815  1.2674 -1.6934 -2.8272
19587TIP3    H280253   0.144   4.213   2.802 -1.1007 -1.6657  1.1252
19588TIP3   OH280254   1.247   3.470   5.984 -0.0727 -0.4808 -0.3455
19588TIP3    H180255   1.227   3.427   5.901 -0.4569 -2.6155  0.8233
19588TIP3    H280256   1.190   3.427   6.048  0.2879  1.0694  1.0629
19589TIP3   OH280257   3.876   5.159   2.869 -0.2585  0.1771 -0.6891
19589TIP3    H180258   3.794   5.110   2.867 -0.7444  1.0037 -1.2567
19589TIP3    H280259   3.943   5.094   2.847 -0.8616 -0.3034 -1.1314
19590TIP3   OH280260   5.768   4.926   4.757  0.0346  0.5927  0.1942
19590TIP3    H180261   5.739   4.958   4.672  0.8432  0.1307 -0.2631
19590TIP3    H280262   5.687   4.911   4.806 -0.5991 -1.9675 -1.5268
19591TIP3   OH280263   6.729   0.017   5.809  0.0323  0.0575 -0.4136
19591TIP3    H180264   6.725  -0.076   5.788  0.5570  0.3139 -1.7201
19591TIP3    H280265   6.802   0.050   5.757 -0.1986  1.2145 -0.0248
19592TIP3   OH280266   0.438   2.183  11.215  0.5597  0.1303 -0.6287
19592TIP3    H180267   0.352   2.148  11.193 -0.4648  1.9781  0.2987
19592TIP3    H280268   0.487   2.180  11.133 -1.1975  1.3357 -1.7683
19593TIP3   OH280269   0.969   4.558   4.424  0.2591 -0.1183 -0.2035
19593TIP3    H180270   1.027   4.483   4.410 -1.7938 -1.6804 -0.5573
19593TIP3    H280271   0.953   4.560   4.518 -0.7310 -0.9342 -0.3504
19594TIP3   OH280272   3.438   4.284   1.625 -0.5219 -0.0883 -0.1773
19594TIP3    H180273   3.514   4.233   1.595  0.2616  0.8740  0.1423
19594TIP3    H280274   3.445   4.284   1.720  0.0443  1.4520 -0.2094
19595TIP3   OH280275   2.130   4.665  10.379  0.2991  0.2972 -0.0078
19595TIP3    H180276   2.091   4.630  10.299  0.5484 -0.0009 -0.0004
19595TIP3    H280277   2.209   4.613  10.393 -1.5606 -2.0488  2.3369
19596TIP3   OH280278   0.154   0.983  14.341 -0.1642  0.1006  0.4611
19596TIP3    H180279   0.191   0.932  14.413  3.1172 -1.0175 -1.8502
19596TIP3    H280280   0.078   0.933  14.312 -1.0643  0.1785  2.6312
19597TIP3   OH280281   4.655   6.800   1.354 -0.0453  0.6571 -0.1131
19597TIP3    H180282   4.734   6.747   1.353 -0.3977  0.1312  0.0435
19597TIP3    H280283   4.687   6.890   1.343  0.8326  0.7569  2.8214
19598TIP3   OH280284   2.766   1.399  15.336  0.0191 -0.2663 -0.1345
19598TIP3    H180285   2.787   1.306  15.327 -1.1436 -0.5494 -0.0095
19598TIP3    H280286   2.698   1.402  15.404  0.3051  0.7132  0.1246
19599TIP3   OH280287   3.222   6.386  14.146  0.2639 -0.0708  0.1863
19599TIP3    H180288   3.168   6.354  14.073  2.0694 -0.6268 -0.9194
19599TIP3    H280289   3.298   6.329  14.147 -0.1642 -0.6620  3.1410
19600TIP3   OH280290   1.799   0.546  12.315 -0.7938  0.1062  0.0187
19600TIP3    H180291   1.854   0.570  12.390 -0.3544 -0.9642  0.0485
19600TIP3    H280292   1.845   0.473  12.274 -1.3077  0.3428 -0.9877
19601TIP3   OH280293   3.815   4.689   3.374  0.3203  0.1210  0.9227
19601TIP3    H180294   3.838   4.775   3.339  2.7619 -1.1001 -0.6824
19601TIP3    H280295   3.868   4.680   3.453  0.2477  0.0098  0.9594
19602TIP3   OH280296   3.002   2.948   0.168 -0.9324 -0.0360  0.0909
19602TIP3    H180297   3.072   2.901   0.122 -0.6404 -0.1859  0.6762
19602TIP3    H280298   3.011   3.039   0.140 -1.6989 -0.3686 -1.2934
19603TIP3   OH280299   6.354   6.170  13.947  0.3389 -0.3058 -0.0699
19603TIP3    H180300   6.321   6.133  14.028 -0.5773 -1.0712 -0.7883
19603TIP3    H280301   6.436   6.213  13.972  0.3168 -0.9663  1.1620
19604TIP3   OH280302   3.820   0.477  15.768 -0.0901  1.1910 -0.2008
19604TIP3    H180303   3.855   0.557  15.808  0.5076 -0.5080  2.7855
19604TIP3    H280304   3.808   0.417  15.841 -1.0429 -1.2933 -2.3420
19605TIP3   OH280305   1.339   0.128   5.374 -0.0656 -0.1457  0.1798
19605TIP3    H180306   1.373   0.180   5.301 -0.5460 -0.3495 -0.1924
19605TIP3    H280307   1.311   0.046   5.334 -1.8222  0.3655  0.3466
19606TIP3   OH280308   1.731   3.608   2.559 -0.7378 -0.2291 -0.5225
19606TIP3    H180309   1.713   3.515   2.572 -0.9120  0.0847  1.6280
19606TIP3    H280310   1.827   3.613   2.551 -0.5175 -0.3537  1.7202
19607TIP3   OH280311   0.180   4.773   2.873 -0.0616  0.0489  0.0991
19607TIP3    H180312   0.202   4.735   2.959 -0.9792  0.3528  0.4757
19607TIP3    H280313   0.258   4.823   2.849  1.3138 -2.3138 -0.5597
19608TIP3   OH280314   1.647   5.685   5.257  0.3111  0.3806 -0.2874
19608TIP3    H180315   1.553   5.701   5.256  0.3367  0.5423  0.0888
19608TIP3    H280316   1.660   5.618   5.189 -0.0359  0.5544 -0.5288
19609TIP3   OH280317   1.216   5.337  15.270 -0.8365  0.0597  0.0281
19609TIP3    H180318   1.130   5.305  15.242 -1.4547  1.7244 -0.0551
19609TIP3    H280319   1.197   5.399  15.341  0.3733 -0.3472  0.7260
19610TIP3   OH280320   4.267   2.024   3.910 -0.3333 -0.3709 -0.5040
19610TIP3    H180321   4.343   2.006   3.855  1.8338  2.7389  1.3483
19610TIP3    H280322   4.287   1.981   3.994 -0.5098  0.6385  0.0653
19611TIP3   OH280323   0.129   4.112   0.600 -0.0674 -0.4586 -0.9114
19611TIP3    H180324   0.039   4.144   0.608  0.3846  0.9354 -1.2257
19611TIP3    H280325   0.140   4.094   0.507  0.1251 -0.1373 -0.9546
19612TIP3   OH280326   1.126   4.025  15.652  0.1736 -0.2592 -0.0395
19612TIP3    H180327   1.170   3.990  15.730 -1.9662 -1.8429  0.5044
19612TIP3    H280328   1.073   4.098  15.685  0.6331  0.2044 -0.3186
19613TIP3   OH280329   1.332   4.455  10.884 -0.3033 -0.0666  0.1493
19613TIP3    H180330   1.315   4.508  10.806  0.8940  0.1624  0.0354
19613TIP3    H280331   1.401   4.503  10.931 -2.2561  0.7603  2.2939
19614TIP3   OH280332   0.816   6.591   1.160  0.5856 -0.2151 -0.0615
19614TIP3    H180333   0.732   6.607   1.203  0.3734 -0.7590 -0.2583
19614TIP3    H280334   0.882   6.617   1.224  0.2659  0.6517 -0.0798
19615TIP3   OH280335   5.947   0.478  13.093 -0.0659  0.3511 -0.1182
19615TIP3    H180336   5.967   0.550  13.154  1.0505  0.5355 -0.7002
19615TIP3    H280337   5.912   0.522  13.015 -1.5225  0.1123  0.3763
19616TIP3   OH280338   5.100   5.310   1.075 -0.4647  0.2189 -0.5229
19616TIP3    H180339   5.150   5.386   1.047  2.3597 -0.7022  1.7486
19616TIP3    H280340   5.117   5.304   1.169 -0.1644 -3.5195 -0.7527
19617TIP3   OH280341   4.257   0.779  11.798  0.3474  0.5548  1.2786
19617TIP3    H180342   4.228   0.849  11.739 -1.8961  0.7132  2.5103
19617TIP3    H280343   4.304   0.824  11.868 -1.7776  0.9710  2.4915
19618TIP3   OH280344   2.155   3.195   5.481  0.2925  0.2083 -0.0742
19618TIP3    H180345   2.149   3.148   5.398  0.0014  1.6657 -0.9036
19618TIP3    H280346   2.133   3.130   5.547 -2.5342 -0.2406 -1.3616
19619TIP3   OH280347   5.872   0.308  14.533  0.5687  0.2238 -0.0820
19619TIP3    H180348   5.916   0.227  14.560 -1.7338  0.3258  4.3907
19619TIP3    H280349   5.944   0.370  14.516  2.2636 -1.2494  1.4856
19620TIP3   OH280350   1.567   3.519   5.700  0.0674 -0.2548  0.1636
19620TIP3    H180351   1.520   3.601   5.715 -1.9493 -1.3012 -0.2857
19620TIP3    H280352   1.637   3.519   5.765 -0.1286  1.6494  0.4036
19621TIP3   OH280353   1.958   6.450   1.470  0.0118  0.1140  0.4351
19621TIP3    H180354   1.878   6.494   1.499  0.5887  0.7828  1.0246
19621TIP3    H280355   1.927   6.373   1.422 -0.9872  0.4809  0.4824
19622TIP3   OH280356   6.008   4.546   2.972  0.0457 -0.4323 -0.7617
19622TIP3    H180357   5.952   4.623   2.976 -0.4901 -0.9006  1.3043
19622TIP3    H280358   6.084   4.569   3.025  0.7779 -0.6362 -1.7056
19623TIP3   OH280359   0.145   1.830  15.712  0.6406  0.1411 -0.1591
19623TIP3    H180360   0.135   1.919  15.746  2.0640 -0.4945  2.0551
19623TIP3    H280361   0.231   1.829  15.671  1.3889 -0.6786  1.3970
19624TIP3   OH280362   0.521   3.554  14.404  0.1472  0.8083 -0.0046
19624TIP3    H180363   0.523   3.575  14.497 -0.7094  1.0485 -0.0377
19624TIP3    H280364   0.453   3.487  14.396 -0.1735  1.1984 -0.5401
19625TIP3   OH280365   3.224   4.943   6.303  0.1422 -0.2796 -0.3464
19625TIP3    H180366   3.290   5.010   6.286  0.0708 -0.4296 -1.2428
19625TIP3    H280367   3.164   4.983   6.365  0.6629  0.1237 -0.0955
19626TIP3   OH280368   2.270   1.232   2.624  0.2152 -0.4965  0.1291
19626TIP3    H180369   2.234   1.309   2.581  1.5924  0.5345  0.7865
19626TIP3    H280370   2.213   1.160   2.596 -0.3517  0.5426 -1.4640
19627TIP3   OH280371   5.435   1.760   5.510  0.2372  0.2181 -0.0559
19627TIP3    H180372   5.382   1.737   5.586  1.6510 -0.9895  0.5712
19627TIP3    H280373   5.422   1.854   5.499  0.0509  0.4016  1.6934
19628TIP3   OH280374   6.653   6.315  16.125  0.2451 -0.0023  0.1074
19628TIP3    H180375   6.691   6.273  16.048  0.7050  0.1732  0.2384
19628TIP3    H280376   6.710   6.390  16.143  0.7489 -0.6569  1.2536
19629TIP3   OH280377   5.116   3.954   4.209 -0.1416  0.3297 -0.5857
19629TIP3    H180378   5.153   3.869   4.187 -0.4426  0.5810 -2.1099
19629TIP3    H280379   5.086   3.944   4.300 -1.0599 -1.4997 -1.0588
19630TIP3   OH280380   5.736   3.086   2.473 -0.5990  0.1020 -0.2940
19630TIP3    H180381   5.819   3.046   2.499 -1.1585 -0.5412  0.5309
19630TIP3    H280382   5.669   3.028   2.510 -1.4235 -0.0832 -2.0156
19631TIP3   OH280383   2.755   0.663   0.085  0.2436 -0.4443  0.0718
19631TIP3    H180384   2.680   0.607   0.101 -0.3811  0.6864  1.2722
19631TIP3    H280385   2.717   0.747   0.060  1.1083  0.0018  0.2292
19632TIP3   OH280386   3.935   6.780   6.017 -0.2511  0.2319  0.3659
19632TIP3    H180387   4.012   6.745   5.973 -0.5694  0.0575 -0.0683
19632TIP3    H280388   3.967   6.852   6.070  0.3463 -0.4172  0.8908
19633TIP3   OH280389   3.476   6.572   5.095 -0.4286  0.3650 -0.2309
19633TIP3    H180390   3.489   6.477   5.089 -0.6681  0.2901  0.3390
19633TIP3    H280391   3.412   6.592   5.027 -2.5678 -0.3352  1.5131
19634TIP3   OH280392   3.914   6.232   2.547 -0.4640 -0.1875 -0.1701
19634TIP3    H180393   3.944   6.149   2.583  0.6246 -0.0306 -0.7008
19634TIP3    H280394   3.916   6.220   2.452 -0.5873  0.3438 -0.2472
19635TIP3   OH280395   3.772   6.695  16.878  0.2036  0.3554 -0.0507
19635TIP3    H180396   3.752   6.770  16.822  0.8714  0.0695 -0.6796
19635TIP3    H280397   3.840   6.726  16.937  1.2537 -0.0730 -1.0233
19636TIP3   OH280398   3.884   1.650  14.949 -0.0440 -0.4193 -0.4289
19636TIP3    H180399   3.817   1.596  14.990  0.6861 -0.7971  0.2980
19636TIP3    H280400   3.966   1.617  14.985  0.2450  3.3638  2.7384
19637TIP3   OH280401   5.724   1.342  13.394  0.2861  0.1451  0.0341
19637TIP3    H180402   5.803   1.329  13.447 -0.6497 -0.7156  1.2020
19637TIP3    H280403   5.708   1.437  13.398  1.4361  0.3732 -0.4766
19638TIP3   OH280404   5.465   0.004   6.094  0.1635  0.0786  0.2954
19638TIP3    H180405   5.431   0.017   6.183  0.1504  1.8205  0.0388
19638TIP3    H280406   5.556   0.033   6.099  0.5185 -0.9689  0.0259
19639TIP3   OH280407   1.148   4.823   5.912  0.3676  0.4661  0.3655
19639TIP3    H180408   1.100   4.830   5.830  0.4944  1.2348  0.3591
19639TIP3    H280409   1.150   4.912   5.947  2.2958  0.5685  0.0703
19640TIP3   OH280410   2.682   6.512   2.853 -1.0053 -0.0853  0.6050
19640TIP3    H180411   2.634   6.429   2.859 -0.1950 -0.4808  1.7593
19640TIP3    H280412   2.660   6.558   2.934 -0.4878  0.3005  0.5251
19641TIP3   OH280413   1.239   2.444   4.391  0.5125  0.0648  0.2102
19641TIP3    H180414   1.157   2.401   4.367  1.6651 -2.1801  0.1294
19641TIP3    H280415   1.228   2.467   4.483 -1.4494  2.8266 -0.6608
19642TIP3   OH280416   0.914   0.917   1.224 -0.2988 -0.0283 -0.2138
19642TIP3    H180417   0.837   0.889   1.175 -0.6335  1.0684 -0.3263
19642TIP3    H280418   0.904   1.011   1.233  0.4585 -0.0268  0.7645
19643TIP3   OH280419   4.661   3.343   4.258  0.1398  0.1053  0.2945
19643TIP3    H180420   4.594   3.342   4.326  0.2745  1.3706  0.4569
19643TIP3    H280421   4.738   3.304   4.300  0.2189  0.8630  0.8622
19644TIP3   OH280422   0.702   3.484  14.657  0.1788  0.4651  0.3147
19644TIP3    H180423   0.758   3.533  14.597 -0.8313  0.4410 -0.6662
19644TIP3    H280424   0.752   3.405  14.677  1.1270  1.1323  0.6403
19645TIP3   OH280425   6.071   6.625  14.599  0.2677 -0.7744  0.5027
19645TIP3    H180426   6.144   6.588  14.648  0.4760  0.6238  1.2677
19645TIP3    H280427   6.104   6.634  14.510  0.3203 -2.0967  0.3732
19646TIP3   OH280428   4.889   2.818   0.950  0.4294  0.2877  0.6631
19646TIP3    H180429   4.823   2.757   0.982  0.7746 -0.3991  0.0885
19646TIP3    H280430   4.970   2.791   0.994  1.0931 -1.2102 -1.3929
19647TIP3   OH280431   4.747   3.574  13.175  0.0519  0.1543 -0.3941
19647TIP3    H180432   4.797   3.612  13.103  0.7076  1.3944  0.7056
19647TIP3    H280433   4.709   3.649  13.221  1.4930 -0.4646  1.8968
19648TIP3   OH280434   0.968   2.791  11.346  0.4548 -0.5096  0.7266
19648TIP3    H180435   0.953   2.711  11.397 -0.3386 -0.0901  1.1587
19648TIP3    H280436   0.914   2.857  11.389  0.9167  0.2036  0.2186
19649TIP3   OH280437   3.778   0.171   4.581 -0.1505 -0.2581 -0.1013
19649TIP3    H180438   3.713   0.137   4.519 -1.1406  0.0448  0.7571
19649TIP3    H280439   3.837   0.097   4.596 -0.1822 -0.4766 -1.0423
19650TIP3   OH280440   5.499   5.517   5.601  0.3845  0.3247  0.5228
19650TIP3    H180441   5.436   5.444   5.599 -1.0693  1.4880  2.0055
19650TIP3    H280442   5.569   5.486   5.659  0.1686 -0.1871  0.5156
19651TIP3   OH280443   6.761   6.686  12.712  0.1532 -0.2187 -0.5861
19651TIP3    H180444   6.775   6.594  12.693 -2.2123 -0.6219 -0.5167
19651TIP3    H280445   6.729   6.723  12.630  4.1597  1.3034 -1.5874
19652TIP3   OH280446   0.688   2.161   4.367 -0.0029 -0.4503 -0.4414
19652TIP3    H180447   0.693   2.255   4.348  0.0044 -0.2521  0.4873
19652TIP3    H280448   0.617   2.154   4.431  1.9748 -0.6818  1.8127
19653TIP3   OH280449   0.598   2.295  14.486 -0.2023  0.7824 -0.6158
19653TIP3    H180450   0.667   2.231  14.503 -0.4020  0.7543  0.0731
19653TIP3    H280451   0.628   2.341  14.407  0.7959  1.0371 -0.1000
19654TIP3   OH280452   0.081   5.347  12.125  0.4385  0.1857 -0.4191
19654TIP3    H180453   0.053   5.295  12.200 -1.8695  0.4254 -1.0721
19654TIP3    H280454   0.135   5.287  12.074  2.3532  0.1459  1.6004
19655TIP3   OH280455   4.164   4.604  14.972  0.1906 -0.2127  0.5565
19655TIP3    H180456   4.241   4.563  14.933 -0.3744  0.5187 -1.4347
19655TIP3    H280457   4.108   4.532  14.998 -0.4423 -0.7789 -2.1768
19656TIP3   OH280458   4.852   5.650  10.670 -0.5792 -0.0431 -0.1779
19656TIP3    H180459   4.947   5.645  10.655 -0.5497  0.2753 -0.0947
19656TIP3    H280460   4.835   5.743  10.681 -0.9044 -0.1028 -0.1915
19657TIP3   OH280461   1.545   3.002  14.268  0.1217 -0.0106 -0.1179
19657TIP3    H180462   1.511   2.917  14.241 -1.2411  0.3415  0.4234
19657TIP3    H280463   1.524   3.060  14.195  1.9917 -0.3479 -0.9386
19658TIP3   OH280464   5.926   6.023   3.527  0.4103  0.0263  0.7327
19658TIP3    H180465   5.939   6.114   3.500  1.3777  0.3461  2.1938
19658TIP3    H280466   5.843   6.023   3.574 -2.5526 -1.0175 -4.2453
19659TIP3   OH280467   6.800   2.962  14.890  1.0519 -0.0857 -0.7110
19659TIP3    H180468   6.778   3.038  14.836 -0.2631  0.7833  1.0080
19659TIP3    H280469   6.727   2.901  14.877  0.7731  0.0901  0.0113
19660TIP3   OH280470   2.801   3.136  17.150 -0.2304  0.3442  0.1561
19660TIP3    H180471   2.865   3.136  17.221  0.1280  0.9718 -0.1705
19660TIP3    H280472   2.853   3.124  17.071 -0.3415  2.6313 -0.2694
19661TIP3   OH280473   4.482   3.122  16.751 -0.1417  0.2577  0.1752
19661TIP3    H180474   4.550   3.097  16.688  1.0769 -0.7115  1.8531
19661TIP3    H280475   4.441   3.040  16.776  0.2087  0.5049  1.5852
19662TIP3   OH280476   5.929   6.787  16.279  0.0952  1.1170  0.1367
19662TIP3    H180477   6.020   6.816  16.292  1.1336 -1.3022 -1.3349
19662TIP3    H280478   5.897   6.839  16.205  0.4344  1.6846  0.3912
19663TIP3   OH280479   0.733   4.020   5.665 -0.0994 -0.6882 -0.4480
19663TIP3    H180480   0.670   3.986   5.601  0.2518  0.7188 -1.5742
19663TIP3    H280481   0.684   4.086   5.714  0.4925  0.4613 -1.3745
19664TIP3   OH280482   3.825   5.304  14.167  0.2087  0.6173 -0.8186
19664TIP3    H180483   3.913   5.342  14.179  0.6221 -0.9134  1.3994
19664TIP3    H280484   3.821   5.281  14.074  2.5687 -0.2123 -0.7538
19665TIP3   OH280485   6.403   0.568  17.245 -0.5562  0.3604  0.0051
19665TIP3    H180486   6.429   0.610  17.326 -0.0067 -2.3396  1.2865
19665TIP3    H280487   6.315   0.601  17.228 -1.3010 -0.2217  2.5652
19666TIP3   OH280488   0.091   0.025  12.900  0.1436  0.5164  0.1406
19666TIP3    H180489   0.155  -0.030  12.946  0.9753  0.8092 -0.6460
19666TIP3    H280490   0.053  -0.032  12.834  0.0473  0.5103  0.2028
19667TIP3   OH280491   4.789   3.820  15.980  0.2595 -0.0703  0.0386
19667TIP3    H180492   4.856   3.752  15.987 -0.6135 -1.0117 -0.6773
19667TIP3    H280493   4.755   3.811  15.891 -0.9251  0.2949  0.4457
19668TIP3   OH280494   5.076   1.785  11.741 -0.3165 -0.3502 -0.0061
19668TIP3    H180495   5.061   1.835  11.821  0.7708  0.4241 -0.2812
19668TIP3    H280496   5.036   1.838  11.672 -0.2088 -0.4442 -0.1402
19669TIP3   OH280497   2.231   6.704   2.458  0.5729  0.5864 -0.1190
19669TIP3    H180498   2.276   6.717   2.374  3.9755 -0.3959  1.4317
19669TIP3    H280499   2.235   6.609   2.473 -1.1459  0.6067  0.5586
19670TIP3   OH280500   6.664   2.274  13.496  0.6227  0.8972 -0.4714
19670TIP3    H180501   6.619   2.193  13.472  1.4957  0.1511  0.3284
19670TIP3    H280502   6.743   2.275  13.442  0.8691  0.9569 -0.1123
19671TIP3   OH280503   2.861   4.729   5.472 -0.0011 -0.2619 -0.3207
19671TIP3    H180504   2.944   4.687   5.452  0.9789  1.3462  0.3453
19671TIP3    H280505   2.819   4.742   5.386  1.4183  0.9349 -0.8464
19672TIP3   OH280506   3.185   1.635   4.458 -0.3032  0.2357 -0.4220
19672TIP3    H180507   3.134   1.560   4.427  1.4297 -0.6978 -1.0286
19672TIP3    H280508   3.118   1.697   4.489 -1.9496  0.0682 -3.4463
19673TIP3   OH280509   6.687   0.709  11.713 -0.1625 -0.2689 -0.1195
19673TIP3    H180510   6.672   0.618  11.689  0.1493  0.3480 -2.8179
19673TIP3    H280511   6.783   0.718  11.711 -0.1440 -0.1470  1.1855
19674TIP3   OH280512   3.300   2.868   3.948  0.0490  0.1920  0.4083
19674TIP3    H180513   3.362   2.920   3.897  0.1452 -0.0207  0.3088
19674TIP3    H280514   3.247   2.933   3.994  0.9257  0.3712  1.1976
19675TIP3   OH280515   2.743   3.332  10.874 -0.0908  0.4285 -0.4318
19675TIP3    H180516   2.732   3.386  10.795  2.3711  1.4995 -0.0717
19675TIP3    H280517   2.779   3.250  10.841  0.6755  0.7739 -0.4719
19676TIP3   OH280518   5.504   5.124   4.798 -0.1844  0.5857 -0.3354
19676TIP3    H180519   5.514   5.219   4.804 -0.8985  0.5844  0.9124
19676TIP3    H280520   5.453   5.110   4.718  0.9180  1.1808 -1.1456
19677TIP3   OH280521   4.056   2.543   2.177  0.4096  0.0282  0.2583
19677TIP3    H180522   3.969   2.522   2.145  0.8129 -1.1398 -0.1034
19677TIP3    H280523   4.042   2.603   2.250 -0.6202  1.1208 -0.8195
19678TIP3   OH280524   6.624   1.785   3.676 -0.1368 -0.3046 -0.0724
19678TIP3    H180525   6.565   1.751   3.608 -0.7179 -0.2693  0.4133
19678TIP3    H280526   6.566   1.829   3.738  0.6854  2.6126 -1.2695
19679TIP3   OH280527   3.147   1.450   3.372  0.2295 -0.7222  0.2328
19679TIP3    H180528   3.228   1.488   3.339 -0.1425  0.3354  0.5341
19679TIP3    H280529   3.082   1.468   3.304 -0.3165  0.6221  1.0808
19680TIP3   OH280530   4.109   4.782  13.768 -0.0272 -0.0900  0.1202
19680TIP3    H180531   4.019   4.798  13.741  0.1330 -0.0388 -0.3803
19680TIP3    H280532   4.108   4.799  13.863 -0.6713 -0.6846  0.2226
19681TIP3   OH280533   3.589   2.010  11.439  0.4195 -0.2114  0.1727
19681TIP3    H180534   3.544   1.998  11.355  1.2294  1.4031 -0.4976
19681TIP3    H280535   3.526   1.979  11.504 -2.6417  3.9931 -0.5679
19682TIP3   OH280536   1.710   0.227  15.514  0.5077  0.2070  0.0213
19682TIP3    H180537   1.791   0.270  15.544 -1.2457  1.2819  3.4691
19682TIP3    H280538   1.696   0.156  15.577 -0.6837 -0.6653 -1.1965
19683TIP3   OH280539   1.867   5.499   5.962  0.0105 -0.3498  0.1775
19683TIP3    H180540   1.956   5.529   5.940 -0.1146  0.5601  0.9122
19683TIP3    H280541   1.809   5.557   5.914 -0.2115 -0.2737  0.5380
19684TIP3   OH280542   2.514   0.223  13.096 -0.3109 -0.5119  0.1503
19684TIP3    H180543   2.592   0.170  13.080 -0.4083 -0.9520  1.1315
19684TIP3    H280544   2.490   0.205  13.187 -0.1145  1.4976  0.6331
19685TIP3   OH280545   1.613   1.104   1.232 -0.2137 -0.5187  0.2577
19685TIP3    H180546   1.593   1.097   1.326 -0.2863  2.5815  0.5413
19685TIP3    H280547   1.704   1.133   1.230 -0.0769 -1.0194 -0.6374
19686TIP3   OH280548   4.205   6.509  17.053 -0.4070  0.1718  0.2260
19686TIP3    H180549   4.272   6.575  17.039  0.2885  0.0478  2.7878
19686TIP3    H280550   4.247   6.426  17.030 -0.0070  0.2122  0.7977
19687TIP3   OH280551   6.358   0.104   3.263 -0.4444  0.2763 -0.0523
19687TIP3    H180552   6.347   0.198   3.249 -0.9145  0.5288  1.9693
19687TIP3    H280553   6.311   0.085   3.344 -1.0992 -1.8734 -0.8797
19688TIP3   OH280554   5.148   1.076   2.822 -0.4914  0.1294  0.2089
19688TIP3    H180555   5.239   1.066   2.796 -1.0099  0.2586 -1.7686
19688TIP3    H280556   5.150   1.084   2.917  1.5964  0.5999  0.1391
19689TIP3   OH280557   0.696   6.366   0.310 -0.3452 -0.0859  0.2244
19689TIP3    H180558   0.625   6.330   0.256 -0.2337  2.0605 -1.4336
19689TIP3    H280559   0.674   6.458   0.320  1.4749  0.2956  0.9301
19690TIP3   OH280560   1.106   6.065  14.931  0.1304 -0.2277 -0.3495
19690TIP3    H180561   1.037   6.031  14.873  0.3854 -0.2682 -0.6297
19690TIP3    H280562   1.135   5.988  14.980 -0.0715 -0.1973 -0.1807
19691TIP3   OH280563   6.803   6.296  11.691 -0.9638  0.3589 -0.7779
19691TIP3    H180564   6.784   6.245  11.770 -2.6216 -1.9588 -2.5987
19691TIP3    H280565   6.861   6.366  11.721 -1.9648 -0.1590  2.5711
19692TIP3   OH280566   6.026   4.594  13.486  1.0761  0.1498 -0.4253
19692TIP3    H180567   5.986   4.570  13.570  3.0671  0.1763  0.5596
19692TIP3    H280568   5.975   4.669  13.456  1.8265  1.6801  1.9659
19693TIP3   OH280569   1.071   3.570  16.458 -0.0156  0.0664 -0.0776
19693TIP3    H180570   1.041   3.660  16.474 -2.2614 -0.5917 -0.4099
19693TIP3    H280571   1.155   3.564  16.504 -0.1874  2.1160  0.5434
19694TIP3   OH280572   3.776   0.187   1.280 -0.2706  0.5440  0.4298
19694TIP3    H180573   3.822   0.139   1.211  0.0892  0.1396  0.9485
19694TIP3    H280574   3.819   0.272   1.282 -0.0982  0.4600  0.3424
19695TIP3   OH280575   6.334   4.268  14.667 -0.1637 -0.0090 -0.0502
19695TIP3    H180576   6.349   4.308  14.581  1.6872  2.7549  1.4715
19695TIP3    H280577   6.253   4.309  14.698 -0.2765 -0.2407 -0.0407
19696TIP3   OH280578   1.829   2.555  11.978  0.8204 -0.2071  0.1274
19696TIP3    H180579   1.772   2.480  11.965  0.5144 -0.0466  0.5499
19696TIP3    H280580   1.849   2.555  12.071  0.4622  0.4864  0.2115
19697TIP3   OH280581   6.225   3.758  15.206  0.0975  0.3108 -0.0729
19697TIP3    H180582   6.210   3.664  15.204 -0.4585  0.3806  0.5607
19697TIP3    H280583   6.165   3.794  15.141 -1.1978  0.4165  1.1602
19698TIP3   OH280584   6.060   0.144   1.923 -0.2368  0.2222  0.0892
19698TIP3    H180585   5.982   0.190   1.956 -2.2476 -1.8566 -1.5676
19698TIP3    H280586   6.091   0.199   1.851 -1.0758  0.3130 -0.2096
19699TIP3   OH280587   3.559   4.136  13.021  0.2232  0.2158  0.0916
19699TIP3    H180588   3.536   4.227  13.003 -2.3646 -0.1811  1.1192
19699TIP3    H280589   3.627   4.141  13.088  1.1623  1.3998 -0.9245
19700TIP3   OH280590   6.661   6.362  15.342 -0.3318  0.6691  0.1334
19700TIP3    H180591   6.680   6.328  15.429  1.2650  1.4323  0.1005
19700TIP3    H280592   6.625   6.287  15.294 -0.6241  0.0859  1.2476
19701TIP3   OH280593   2.261   1.441   2.221  0.2945  0.1451 -1.0807
19701TIP3    H180594   2.274   1.351   2.252 -1.9928  0.5793  1.2590
19701TIP3    H280595   2.339   1.488   2.251  0.1088 -0.4147  0.3117
19702TIP3   OH280596   0.845   0.757  16.421  0.2683 -0.4285  0.0425
19702TIP3    H180597   0.923   0.807  16.400  0.6730 -1.4059 -0.8121
19702TIP3    H280598   0.779   0.788  16.359  0.4450 -0.7541 -0.3143
19703TIP3   OH280599   6.478   3.083   4.346  0.0483 -0.3414  0.3019
19703TIP3    H180600   6.453   3.146   4.279 -0.9325 -1.0803 -0.0388
19703TIP3    H280601   6.395   3.047   4.378  0.5860 -1.3666  0.5762
19704TIP3   OH280602   0.461   5.880   0.837 -0.4982  0.3225  0.3024
19704TIP3    H180603   0.399   5.953   0.834 -0.1496  0.5731 -0.7062
19704TIP3    H280604   0.520   5.903   0.910  0.5829  1.8419 -1.0039
19705TIP3   OH280605   1.070   2.939  13.199 -0.0193 -0.4265 -0.1121
19705TIP3    H180606   1.137   2.965  13.263 -1.1939  1.4230  0.3942
19705TIP3    H280607   1.120   2.900  13.127  1.5999  0.8934  0.2742
19706TIP3   OH280608   0.726   5.360   2.952  0.7712 -0.1267 -0.2396
19706TIP3    H180609   0.781   5.428   2.913  0.2680 -0.8054 -2.1767
19706TIP3    H280610   0.687   5.315   2.878  1.5582 -2.9269  0.9787
19707TIP3   OH280611   1.966   3.746  11.270 -0.0248  0.4838  0.0472
19707TIP3    H180612   2.007   3.659  11.271 -1.6306 -0.3064 -1.2186
19707TIP3    H280613   1.894   3.738  11.208 -1.0092  2.3574  0.9070
19708TIP3   OH280614   3.818   0.549  13.292 -0.5886 -0.1017  0.2704
19708TIP3    H180615   3.759   0.557  13.367  0.9434  0.7213  1.4007
19708TIP3    H280616   3.870   0.471  13.310  0.2757  0.5040  0.4221
19709TIP3   OH280617   3.036   0.953  16.324 -0.1624 -0.0251 -0.9877
19709TIP3    H180618   3.057   1.045  16.340 -0.6869  0.1155 -1.1062
19709TIP3    H280619   2.955   0.955  16.275  0.5871 -0.5078 -2.2666
19710TIP3   OH280620   3.608   4.237  14.482  0.6444 -0.2059 -0.2655
19710TIP3    H180621   3.682   4.183  14.510  1.1068  0.1561 -0.7801
19710TIP3    H280622   3.531   4.193  14.518  0.9863 -1.4041 -0.9692
19711TIP3   OH280623   3.964   5.114  10.610 -0.0319  0.5397 -0.2431
19711TIP3    H180624   3.908   5.042  10.580  0.0378  0.9602 -1.4099
19711TIP3    H280625   3.932   5.190  10.562  0.1509  1.2148  0.6998
19712TIP3   OH280626   4.510   1.179  13.439  0.8993 -0.0519 -0.2219
19712TIP3    H180627   4.516   1.146  13.529  0.1370 -0.5681 -0.3529
19712TIP3    H280628   4.527   1.273  13.447  2.1041 -0.3104  0.2955
19713TIP3   OH280629   3.026   4.289  13.957  0.5921  0.6983  0.2510
19713TIP3    H180630   3.100   4.266  14.013  0.0126 -0.5152  0.5221
19713TIP3    H280631   2.961   4.221  13.973  0.0342  0.8757 -1.1744
19714TIP3   OH280632   6.381   0.782  12.132  0.2854  0.0310 -0.1019
19714TIP3    H180633   6.461   0.834  12.129 -0.2100  0.7724 -0.5418
19714TIP3    H280634   6.313   0.845  12.157 -0.2128 -0.5342 -0.0291
19715TIP3   OH280635   5.828   5.850   4.692  0.3243  0.7054  0.0473
19715TIP3    H180636   5.895   5.815   4.634 -0.4605  0.0711 -0.4868
19715TIP3    H280637   5.820   5.784   4.761 -2.2767 -0.9817 -1.7991
19716TIP3   OH280638   3.078   6.390  15.045 -0.3545  0.1748  0.5589
19716TIP3    H180639   3.069   6.298  15.020  2.9398 -0.1162  0.2572
19716TIP3    H280640   3.072   6.437  14.962 -2.6044  0.3319  0.7715
19717TIP3   OH280641   6.447   4.287   3.362 -0.3194  0.0678  0.0353
19717TIP3    H180642   6.461   4.370   3.317  1.2615  0.1951  0.7067
19717TIP3    H280643   6.521   4.280   3.423 -1.1994 -1.1570  0.9965
19718TIP3   OH280644   1.563   5.554   6.757  0.5520  0.5643 -0.2515
19718TIP3    H180645   1.595   5.478   6.805 -1.9762 -0.0736  0.5033
19718TIP3    H280646   1.595   5.629   6.807  0.8311 -0.0480  0.4978
19719TIP3   OH280647   6.040   5.298  13.031 -0.4898 -0.6477 -0.4264
19719TIP3    H180648   6.049   5.234  12.960  1.1144  2.5935 -3.3145
19719TIP3    H280649   5.957   5.341  13.014 -0.8356 -0.9032  0.5958
19720TIP3   OH280650   4.911   4.711  15.395  0.1706 -0.1027 -0.2427
19720TIP3    H180651   4.885   4.756  15.476 -0.2958  0.8233 -0.8916
19720TIP3    H280652   4.942   4.626  15.424  0.8298  0.5463  0.9994
19721TIP3   OH280653   3.278   0.763  11.481 -0.0002  0.0573 -0.4676
19721TIP3    H180654   3.262   0.820  11.407  2.0946 -0.1038 -1.0606
19721TIP3    H280655   3.363   0.723  11.464  0.6368  0.1917  2.1195
19722TIP3   OH280656   4.866   2.695  10.841  0.1263 -0.5433 -0.1392
19722TIP3    H180657   4.866   2.620  10.782 -0.4962  0.4461 -1.4184
19722TIP3    H280658   4.849   2.658  10.927  1.5237 -2.0651 -0.4958
19723TIP3   OH280659   5.398   3.772  14.657 -0.1670  0.2841  1.2965
19723TIP3    H180660   5.402   3.867  14.649  0.2289  0.3059  1.8042
19723TIP3    H280661   5.320   3.756  14.711 -0.4840  0.2994  0.8489
19724TIP3   OH280662   5.817   1.304   5.621 -0.3870 -0.1010 -0.0016
19724TIP3    H180663   5.803   1.250   5.699  0.2609 -1.5554 -0.8850
19724TIP3    H280664   5.735   1.298   5.572 -1.0052  1.2766  0.8214
19725TIP3   OH280665   0.773   6.478  12.381 -0.1128  0.1714  0.0600
19725TIP3    H180666   0.775   6.414  12.310 -0.5874  1.4496 -1.1244
19725TIP3    H280667   0.864   6.484  12.410  0.1493 -0.1077 -0.6755
19726TIP3   OH280668   2.747   3.945  16.206 -0.1854  0.2999  0.5383
19726TIP3    H180669   2.694   3.940  16.127  1.3648  0.6917 -0.5429
19726TIP3    H280670   2.685   3.970  16.275 -1.8954 -1.8533 -0.1745
19727TIP3   OH280671   3.603   3.033  11.625 -0.3638  0.1703  0.1695
19727TIP3    H180672   3.523   2.986  11.599 -0.2725  0.0538  0.0994
19727TIP3    H280673   3.609   3.105  11.563 -0.7622  0.5517  0.5728
19728TIP3   OH280674   0.404   1.138  11.998 -0.0668 -0.0867 -0.4203
19728TIP3    H180675   0.453   1.203  12.049  0.6240  0.0969 -1.3149
19728TIP3    H280676   0.334   1.188  11.956  0.8722  0.1962 -1.6484
19729TIP3   OH280677   1.785   6.656   5.941  0.2962 -0.0514  0.3305
19729TIP3    H180678   1.763   6.606   6.020  0.3948  0.5927  0.7704
19729TIP3    H280679   1.843   6.599   5.892  2.3951  0.5884  1.9981
19730TIP3   OH280680   1.003   3.438   4.655 -0.5264  0.3279  0.2920
19730TIP3    H180681   0.964   3.500   4.593  1.5585  0.7345 -0.6571
19730TIP3    H280682   1.029   3.493   4.730 -1.4829  0.1059  0.7912
19731TIP3   OH280683   2.329   1.250  16.126  0.9016 -0.2399 -0.1371
19731TIP3    H180684   2.402   1.196  16.095 -0.4572 -1.3494 -1.4798
19731TIP3    H280685   2.306   1.304  16.051  0.5101  0.2876  0.3613
19732TIP3   OH280686   2.980   5.275   0.621  0.1253  0.3370 -0.0264
19732TIP3    H180687   2.895   5.312   0.596 -1.3351 -0.7701  3.0509
19732TIP3    H280688   2.992   5.200   0.562 -1.4915 -0.0580  0.1221
19733TIP3   OH280689   6.190   2.471   5.519  0.1463 -0.0000 -0.3303
19733TIP3    H180690   6.276   2.497   5.485 -0.5533  1.2505 -1.1730
19733TIP3    H280691   6.146   2.429   5.445  0.3721 -1.4793  0.3614
19734TIP3   OH280692   1.442   2.855   6.010  0.3292 -0.5755 -0.5409
19734TIP3    H180693   1.520   2.878   5.960  0.7955 -1.6406 -0.3283
19734TIP3    H280694   1.374   2.843   5.944 -0.1543  2.1990 -0.5930
19735TIP3   OH280695   3.928   4.520   4.667  0.0460  0.1273  0.1112
19735TIP3    H180696   4.008   4.540   4.716  0.0277 -1.5999  0.8850
19735TIP3    H280697   3.958   4.501   4.578  0.6028 -1.3851  0.6166
19736TIP3   OH280698   1.737   0.556  14.398  0.6117 -0.0977  0.1937
19736TIP3    H180699   1.679   0.589  14.466 -0.5835 -1.9942  0.1256
19736TIP3    H280700   1.685   0.559  14.318  0.0951 -3.0916  0.3679
19737TIP3   OH280701   5.362   2.661   0.494 -0.0384 -0.5872 -0.0874
19737TIP3    H180702   5.280   2.627   0.531 -0.2622 -0.0707 -0.1100
19737TIP3    H280703   5.394   2.723   0.560 -1.0030  1.1704 -1.2350
19738TIP3   OH280704   0.608   6.593  15.292 -0.6797  0.0830 -0.3892
19738TIP3    H180705   0.573   6.558  15.210 -1.4118 -1.5241  0.5760
19738TIP3    H280706   0.702   6.602  15.276 -0.2915 -3.2921 -0.3927
19739TIP3   OH280707   4.705   1.178  16.736 -0.3403 -0.1613 -0.4506
19739TIP3    H180708   4.712   1.238  16.662 -0.1571  2.8972  1.9177
19739TIP3    H280709   4.615   1.189  16.766 -0.6235 -1.9055 -0.5940
19740TIP3   OH280710   5.687   0.045   6.795  0.3642  0.3355 -0.3315
19740TIP3    H180711   5.772   0.009   6.771  0.0862 -0.4714 -0.0961
19740TIP3    H280712   5.678   0.123   6.740  2.1017  1.5307  1.0187
19741TIP3   OH280713   0.627   1.460  15.308  0.0381  0.0285  0.4770
19741TIP3    H180714   0.590   1.405  15.377  1.0264 -0.7821  0.3627
19741TIP3    H280715   0.565   1.452  15.236 -0.1435 -0.4306  0.6844
19742TIP3   OH280716   2.516   5.313   0.352  0.0950 -0.4083  0.3270
19742TIP3    H180717   2.515   5.218   0.348 -0.2351 -0.5248  2.3779
19742TIP3    H280718   2.425   5.339   0.342  0.1918 -0.3116 -0.2847
19743TIP3   OH280719   3.919   0.109  13.015 -0.1116 -0.2740 -0.3558
19743TIP3    H180720   3.925   0.014  13.010 -1.0191 -0.4102  0.9174
19743TIP3    H280721   4.002   0.136  13.054  0.3985 -0.4834 -1.2765
19744TIP3   OH280722   2.519   0.275   3.071 -0.4102  0.1597 -0.5282
19744TIP3    H180723   2.431   0.277   3.032 -0.3551 -2.2848 -0.8718
19744TIP3    H280724   2.508   0.316   3.157 -1.7934  0.3146 -0.7657
19745TIP3   OH280725   2.170   6.476   4.085 -0.0885 -0.5541 -0.6689
19745TIP3    H180726   2.100   6.471   4.020 -0.0126  0.3167 -0.8316
19745TIP3    H280727   2.189   6.570   4.092  0.9193 -0.7688 -0.4738
19746TIP3   OH280728   6.656   4.665   1.068 -0.1997 -0.2211  0.3578
19746TIP3    H180729   6.698   4.580   1.082  0.7629 -0.2209 -2.1672
19746TIP3    H280730   6.685   4.718   1.142  0.5605 -1.6006  1.0755
19747TIP3   OH280731   6.139   4.205  14.915  0.4422 -0.2364  0.4220
19747TIP3    H180732   6.152   4.128  14.860  0.1104 -1.1334  1.5795
19747TIP3    H280733   6.194   4.190  14.991  0.2718  0.6135  0.7170
19748TIP3   OH280734   5.488   0.151   0.990  0.5070  0.8565  0.0506
19748TIP3    H180735   5.505   0.179   0.900  0.7821  4.1073  1.0413
19748TIP3    H280736   5.532   0.216   1.044 -0.7113 -0.3235  2.5628
19749TIP3   OH280737   0.728   3.907   3.914  0.0823  0.0299 -0.2008
19749TIP3    H180738   0.691   3.860   3.988  1.3020  0.1728  0.5138
19749TIP3    H280739   0.755   3.992   3.949 -1.0685  0.8327 -1.2308
19750TIP3   OH280740   5.495   0.695  16.929 -0.4444  0.0551  0.4243
19750TIP3    H180741   5.445   0.756  16.984 -1.4582  0.6061 -1.0695
19750TIP3    H280742   5.514   0.745  16.850  2.4880 -0.1671  0.9534
19751TIP3   OH280743   6.632   5.574   3.813  0.4287 -0.0795  0.0894
19751TIP3    H180744   6.669   5.515   3.747 -1.2825 -0.6914 -0.3458
19751TIP3    H280745   6.658   5.661   3.784  0.9347 -0.4429 -0.5730
19752TIP3   OH280746   3.122   4.029   3.944  0.4484  0.3962 -0.4422
19752TIP3    H180747   3.130   4.008   3.852  3.2393 -0.0486 -0.1327
19752TIP3    H280748   3.193   4.092   3.961 -0.0442  0.4887  1.3804
19753TIP3   OH280749   1.121   1.393   5.770  0.3205  0.1100 -0.0179
19753TIP3    H180750   1.149   1.484   5.782 -0.7664  0.2039  2.2493
19753TIP3    H280751   1.142   1.351   5.853 -0.0929 -1.4683 -0.6992
19754TIP3   OH280752   5.114   2.445  13.519  0.0555  0.3505  0.4795
19754TIP3    H180753   5.044   2.487  13.470 -0.1583 -1.3816 -0.7553
19754TIP3    H280754   5.093   2.352  13.516  0.6640  0.0951  2.8970
19755TIP3   OH280755   4.499   1.644   1.840 -0.0247 -0.4751  0.2561
19755TIP3    H180756   4.587   1.668   1.810 -0.2731  0.0451 -0.0498
19755TIP3    H280757   4.507   1.639   1.936  0.2427 -0.0675  0.2534
19756TIP3   OH280758   4.224   0.621  13.906 -0.4500 -0.2127  0.1180
19756TIP3    H180759   4.253   0.623  13.997 -0.3529 -1.0116  0.1057
19756TIP3    H280760   4.287   0.564  13.862 -1.2531 -0.8550 -0.1927
19757TIP3   OH280761   3.412   3.259  12.468 -0.0939  0.0748 -0.1807
19757TIP3    H180762   3.488   3.202  12.461  0.8759  1.0689  1.8336
19757TIP3    H280763   3.342   3.202  12.501  0.4233 -0.3205  0.2413
19758TIP3   OH280764   0.994   4.935  13.216 -0.1760  0.0305  0.6539
19758TIP3    H180765   0.978   4.868  13.150 -0.1671  0.4194  0.2494
19758TIP3    H280766   0.918   4.994  13.209  0.8031  1.2007 -0.4258
19759TIP3   OH280767   6.704   2.278   6.190 -0.2866  0.1002  0.0377
19759TIP3    H180768   6.713   2.191   6.228 -1.3417  0.0775  0.2692
19759TIP3    H280769   6.785   2.323   6.212 -0.2552 -0.4133  1.0087
19760TIP3   OH280770   1.172   0.325  12.951 -1.3341 -0.3592 -0.6052
19760TIP3    H180771   1.231   0.400  12.955 -0.9048 -0.7437  0.6949
19760TIP3    H280772   1.088   0.361  12.921 -1.0044  0.5517 -0.4470
19761TIP3   OH280773   5.573   6.451  14.468 -0.4258 -0.0593  0.0800
19761TIP3    H180774   5.540   6.362  14.457 -0.2448 -0.1103 -0.0505
19761TIP3    H280775   5.533   6.482  14.549 -0.4692 -0.2689  0.1391
19762TIP3   OH280776   2.271   6.752   4.042  0.1258  0.0704  0.1397
19762TIP3    H180777   2.207   6.732   3.975  1.8443 -0.0046 -1.5275
19762TIP3    H280778   2.269   6.848   4.050 -1.2278 -0.0289  1.1766
19763TIP3   OH280779   3.049   0.464   6.260 -0.2599  0.0010  0.6310
19763TIP3    H180780   3.101   0.418   6.326 -1.6200  0.0892  1.7835
19763TIP3    H280781   2.979   0.506   6.309 -0.9698  0.5441 -0.8114
19764TIP3   OH280782   2.993   1.555   5.298 -0.7630 -0.1013  0.1696
19764TIP3    H180783   3.009   1.558   5.392  0.4957 -0.8420 -0.0067
19764TIP3    H280784   3.075   1.586   5.259 -0.7138 -1.2904 -0.7095
19765TIP3   OH280785   5.924   0.927   2.335 -0.4790 -0.0491  0.4929
19765TIP3    H180786   5.934   1.017   2.305 -0.0474  0.5335  2.3056
19765TIP3    H280787   5.878   0.882   2.264 -1.8615  1.9233  0.1124
19766TIP3   OH280788   6.353   6.214  11.596  0.9490 -0.4149  0.2030
19766TIP3    H180789   6.352   6.274  11.670  1.2128  0.9920 -0.8945
19766TIP3    H280790   6.316   6.265  11.524  0.1106 -1.9596 -0.4808
19767TIP3   OH280791   0.010   0.740   5.895 -0.1067  0.0824 -0.0901
19767TIP3    H180792   0.063   0.764   5.971  1.5389 -0.4584 -1.0500
19767TIP3    H280793  -0.042   0.665   5.924  0.4286 -0.0516  0.5220
19768TIP3   OH280794   4.451   3.047  13.008 -0.2624 -1.2111  0.0651
19768TIP3    H180795   4.389   3.032  13.080  0.1253  0.2970  0.7233
19768TIP3    H280796   4.532   3.072  13.051 -0.5824  1.7606 -0.9064
19769TIP3   OH280797   6.666   3.135   3.742 -0.3344  0.2103 -0.5317
19769TIP3    H180798   6.606   3.075   3.789 -0.1160 -0.4672 -1.1117
19769TIP3    H280799   6.629   3.222   3.757 -1.5475 -0.2126 -0.9851
19770TIP3   OH280800   3.867   3.032   3.101  0.1188  0.3929  0.3651
19770TIP3    H180801   3.893   3.104   3.044  0.1053 -0.2096 -0.4034
19770TIP3    H280802   3.852   2.958   3.042  0.5937 -0.3761  1.1954
19771TIP3   OH280803   0.808   1.553   3.887  0.5795  0.5295  0.0899
19771TIP3    H180804   0.719   1.579   3.863  0.4521  0.3720  0.3854
19771TIP3    H280805   0.863   1.628   3.864 -0.1448  2.1818  3.4877
19772TIP3   OH280806   6.653   1.103  11.904 -0.5149 -0.8766  0.3459
19772TIP3    H180807   6.577   1.142  11.861  0.0939 -0.4751 -0.3933
19772TIP3    H280808   6.711   1.077  11.832 -0.9783 -3.3524  0.8206
19773TIP3   OH280809   6.630   2.901   4.193  0.1591 -0.5201  0.1570
19773TIP3    H180810   6.634   2.817   4.238  0.3027 -0.9115 -0.5816
19773TIP3    H280811   6.576   2.956   4.250  1.5693 -0.5411  1.5620
19774TIP3   OH280812   6.181   3.758   3.672 -0.1513  0.2747  0.5316
19774TIP3    H180813   6.162   3.833   3.728  0.0588  0.7610 -0.0321
19774TIP3    H280814   6.267   3.728   3.700  0.1675  0.8181  0.1544
19775TIP3   OH280815   2.674   3.177   0.524 -0.1249  0.5986  0.2769
19775TIP3    H180816   2.714   3.264   0.527  0.6050  0.3048 -0.7040
19775TIP3    H280817   2.613   3.176   0.598 -1.2458  2.4692 -0.5945
19776TIP3   OH280818   2.161   4.312  16.202  0.1546 -0.2490 -0.4638
19776TIP3    H180819   2.145   4.316  16.107  1.1457  1.8725 -0.5901
19776TIP3    H280820   2.253   4.287  16.210 -0.0329 -0.8024 -0.0629
19777TIP3   OH280821   3.821   1.184   3.275 -0.6672 -0.1781 -0.1877
19777TIP3    H180822   3.792   1.221   3.359  0.0142 -0.2565  0.0852
19777TIP3    H280823   3.905   1.142   3.295 -0.6687 -0.4936 -0.8387
19778TIP3   OH280824   5.311   5.807  15.005  0.1519 -0.0250 -0.3163
19778TIP3    H180825   5.298   5.902  15.001 -1.3278 -0.2802 -2.4590
19778TIP3    H280826   5.373   5.788  14.934 -0.2939 -0.7704 -0.5164
19779TIP3   OH280827   1.047   5.232  13.161  0.0415  0.1560 -0.0756
19779TIP3    H180828   1.053   5.250  13.067 -2.2131 -0.7290 -0.4267
19779TIP3    H280829   1.025   5.317  13.200  2.4592  0.8411 -0.1436
19780TIP3   OH280830   4.238   1.306   2.659  0.0931 -0.4512  0.5507
19780TIP3    H180831   4.194   1.277   2.580  0.5945  0.8051 -0.2084
19780TIP3    H280832   4.199   1.391   2.679 -1.1215 -1.4404  2.5444
19781TIP3   OH280833   0.702   2.824   0.602 -0.3083  0.0006 -0.0705
19781TIP3    H180834   0.668   2.759   0.663  1.7219  0.6555  1.7923
19781TIP3    H280835   0.637   2.895   0.604 -0.4404 -0.1462  1.0087
19782TIP3   OH280836   2.037   1.897   3.928 -0.0434  0.0860  0.1989
19782TIP3    H180837   2.082   1.882   3.845 -0.9917 -0.7870 -0.1749
19782TIP3    H280838   1.993   1.981   3.917 -0.6896 -0.3307 -0.4246
19783TIP3   OH280839   4.561   5.376   3.718 -0.5494 -0.5712  0.5701
19783TIP3    H180840   4.580   5.291   3.759  1.1682 -0.1385  0.7281
19783TIP3    H280841   4.647   5.418   3.710 -1.6304  2.1694  2.6834
19784TIP3   OH280842   0.496   2.994   1.124  0.3563  0.4299  0.3413
19784TIP3    H180843   0.437   2.927   1.089  0.5695 -1.1683  2.8831
19784TIP3    H280844   0.440   3.071   1.134 -0.3620  0.0819 -0.8856
19785TIP3   OH280845   2.530   0.129   2.276 -0.3562  0.2285 -0.1183
19785TIP3    H180846   2.598   0.105   2.213  0.8374 -1.0705  1.6317
19785TIP3    H280847   2.528   0.056   2.338 -2.8262  0.6112  0.3018
19786TIP3   OH280848   0.183   5.842  11.722 -0.1784 -0.3715 -0.3686
19786TIP3    H180849   0.120   5.830  11.794 -0.8231 -0.2916 -0.9138
19786TIP3    H280850   0.139   5.904  11.663  0.4922 -0.1799 -0.6657
19787TIP3   OH280851   4.727   0.772  15.522 -0.0128  0.7320 -0.0416
19787TIP3    H180852   4.796   0.721  15.565  1.2059  1.0254 -1.5838
19787TIP3    H280853   4.656   0.709  15.508 -0.0152  0.3919  1.4596
19788TIP3   OH280854   6.478   3.957  15.752 -0.0298 -0.1769 -0.6382
19788TIP3    H180855   6.551   4.010  15.784 -0.8274 -0.0960  1.0795
19788TIP3    H280856   6.521   3.885  15.704  1.1027  0.9258 -1.3027
19789TIP3   OH280857   3.745   1.247   2.560  0.2575  0.1654  0.2021
19789TIP3    H180858   3.654   1.263   2.538  0.5332  0.1174 -0.9705
19789TIP3    H280859   3.795   1.283   2.487  1.0113 -3.1939 -1.0445
19790TIP3   OH280860   0.541   6.388  11.599  0.0570  0.1957  0.5093
19790TIP3    H180861   0.607   6.449  11.632  0.1129  1.1958 -1.4169
19790TIP3    H280862   0.592   6.315  11.563  0.1548  1.1551 -1.3460
19791TIP3   OH280863   0.472   6.465  12.594 -0.1638 -0.5033 -0.0745
19791TIP3    H180864   0.546   6.415  12.627 -0.0996  0.6292  1.5624
19791TIP3    H280865   0.398   6.404  12.595  0.4124 -1.1977 -0.2617
19792TIP3   OH280866   3.289   2.844   1.317 -0.3136  0.1071  0.2380
19792TIP3    H180867   3.229   2.912   1.349 -0.1835  0.3074  0.0575
19792TIP3    H280868   3.267   2.835   1.224 -0.4643 -0.2381  0.3065
19793TIP3   OH280869   4.154   6.263  15.313  0.0559 -0.4402 -0.1083
19793TIP3    H180870   4.166   6.331  15.379 -0.6581 -0.4734  0.0628
19793TIP3    H280871   4.094   6.301  15.249  1.0149 -0.2912 -0.9149
19794TIP3   OH280872   6.003   6.780   5.940 -0.7772 -0.5051  0.1102
19794TIP3    H180873   5.938   6.765   5.872 -0.1357 -1.4166 -0.3137
19794TIP3    H280874   5.952   6.808   6.016 -1.5036  0.4890 -0.7202
19795TIP3   OH280875   0.060   1.693   2.024 -0.5483  0.1265 -0.1871
19795TIP3    H180876   0.092   1.651   1.945 -0.2353  1.3198 -0.6949
19795TIP3    H280877   0.138   1.717   2.073 -0.7394 -1.1155  0.7801
19796TIP3   OH280878   1.861   3.146   0.120 -0.2783  0.1395 -0.3712
19796TIP3    H180879   1.781   3.199   0.115 -0.0555  0.3651 -1.6976
19796TIP3    H280880   1.908   3.180   0.196 -2.2816 -1.1757  1.5058
19797TIP3   OH280881   0.853   3.775  16.738 -0.5031  0.0557  0.5580
19797TIP3    H180882   0.866   3.844  16.672 -0.8343  0.0266  0.4595
19797TIP3    H280883   0.910   3.703  16.709  0.1180  0.4230  0.8561
19798TIP3   OH280884   2.104   4.755   0.947 -0.4731 -0.2419  0.0897
19798TIP3    H180885   2.094   4.725   1.037 -1.8641  1.6286  0.5871
19798TIP3    H280886   2.036   4.709   0.898 -0.7792 -0.0191  0.3068
19799TIP3   OH280887   2.392   5.075  17.082  0.1442 -0.5125 -0.1937
19799TIP3    H180888   2.380   5.050  16.990 -0.8190 -0.8845  0.0306
19799TIP3    H280889   2.353   5.163  17.088  0.9469 -0.1418 -0.3227
19800TIP3   OH280890   2.032   0.606   0.152 -0.0600 -0.5885 -0.6717
19800TIP3    H180891   2.057   0.604   0.245 -0.2913 -1.8048 -0.6165
19800TIP3    H280892   2.076   0.683   0.116 -2.0458  1.3930  1.0084
19801TIP3   OH280893   5.465   2.909   3.892 -0.6511 -0.3025  0.2178
19801TIP3    H180894   5.417   2.826   3.882 -0.6212 -0.3353  0.3468
19801TIP3    H280895   5.399   2.976   3.873 -0.3027 -0.3872 -1.3537
19802TIP3   OH280896   3.669   2.741  14.794 -0.0880  0.0433 -0.2141
19802TIP3    H180897   3.653   2.744  14.700  1.6006 -0.7275 -0.5333
19802TIP3    H280898   3.703   2.828  14.816  0.7943 -0.2097 -0.5613
19803TIP3   OH280899   2.830   6.524   3.804 -0.2764  0.5290  0.4527
19803TIP3    H180900   2.850   6.534   3.710 -0.0160  2.9293  0.7263
19803TIP3    H280901   2.890   6.456   3.834  0.3795  0.4877 -0.8893
19804TIP3   OH280902   1.436   5.078  13.936  0.0187 -0.2774  0.2347
19804TIP3    H180903   1.512   5.021  13.941  1.5128  1.8342  3.1051
19804TIP3    H280904   1.397   5.075  14.023 -2.3363 -0.1408 -0.7632
19805TIP3   OH280905   2.365   5.776  12.913 -0.0486 -0.0480  0.7491
19805TIP3    H180906   2.400   5.710  12.973  1.3677  0.2453  0.2590
19805TIP3    H280907   2.271   5.759  12.911  0.2212 -1.6534  1.1309
19806TIP3   OH280908   3.560   6.807   6.066 -0.8268 -0.4350  0.1918
19806TIP3    H180909   3.595   6.786   6.152 -0.0308 -0.0694 -0.0325
19806TIP3    H280910   3.512   6.729   6.039  1.6797 -1.8191 -0.4278
19807TIP3   OH280911   2.178   6.418  14.218  0.4782 -0.0813 -0.6029
19807TIP3    H180912   2.102   6.474  14.200  0.0183  0.4758  2.7720
19807TIP3    H280913   2.242   6.476  14.258  1.0066 -1.4301  0.5550
19808TIP3   OH280914   5.202   5.214   1.926  0.2702 -0.3731  0.1755
19808TIP3    H180915   5.226   5.169   2.007 -0.1779 -0.5150  0.2304
19808TIP3    H280916   5.173   5.143   1.868 -3.0142  0.0775  1.1520
19809TIP3   OH280917   1.026   5.225   0.466  0.1574 -0.1689 -0.1644
19809TIP3    H180918   1.037   5.143   0.514 -0.6037 -0.5509 -0.6285
19809TIP3    H280919   0.940   5.217   0.425  0.2976  0.6523 -0.6252
19810TIP3   OH280920   4.314   6.580   3.755 -0.0897  0.3207  0.6216
19810TIP3    H180921   4.306   6.565   3.661  1.4609 -1.4182  0.7401
19810TIP3    H280922   4.241   6.638   3.776 -1.5340 -0.7308 -1.3214
19811TIP3   OH280923   0.643   0.637  13.773  0.3314  0.8525  0.1318
19811TIP3    H180924   0.737   0.621  13.769  0.1526  0.3613 -2.6070
19811TIP3    H280925   0.615   0.589  13.851  2.0418 -0.6722 -0.1444
19812TIP3   OH280926   1.032   3.618  11.208  0.4938 -0.6281  0.0154
19812TIP3    H180927   1.042   3.564  11.286  0.0552  0.5361  0.8909
19812TIP3    H280928   0.961   3.576  11.159  0.5940 -1.2161  0.3675
19813TIP3   OH280929   6.560   5.084  15.706  0.1003  0.6935 -0.4989
19813TIP3    H180930   6.609   5.026  15.764  1.4549  1.1855 -1.1463
19813TIP3    H280931   6.568   5.171  15.747 -2.1381  0.4118  0.6125
19814TIP3   OH280932   3.566   2.292   0.556  0.8953  0.0970 -1.2736
19814TIP3    H180933   3.606   2.230   0.617 -0.4405  0.3183 -0.1385
19814TIP3    H280934   3.631   2.362   0.546  0.8428  0.4094  0.4649
19815TIP3   OH280935   0.153   5.648  15.543  0.7304 -0.2342 -0.1507
19815TIP3    H180936   0.176   5.558  15.564  2.5197 -0.1944 -1.7583
19815TIP3    H280937   0.120   5.644  15.453 -0.5980  0.5211  0.2828
19816TIP3   OH280938   2.036   4.869   5.816 -0.3250 -0.1689 -0.0970
19816TIP3    H180939   2.112   4.902   5.767 -0.5762  0.1064 -0.3004
19816TIP3    H280940   1.994   4.808   5.755 -0.0545 -0.6140  0.1539
19817TIP3   OH280941   3.714   0.950  12.584  0.0129  0.3682 -0.4953
19817TIP3    H180942   3.770   0.876  12.559  2.0554  2.0423 -0.9954
19817TIP3    H280943   3.683   0.986  12.501  0.1697  0.9377 -0.3113
19818TIP3   OH280944   6.088   4.559   2.543  0.5236 -0.3791 -0.2630
19818TIP3    H180945   6.166   4.598   2.505 -0.0535 -0.1753 -1.2461
19818TIP3    H280946   6.033   4.633   2.568  0.0113 -0.5440 -0.9014
19819TIP3   OH280947   5.256   1.908  13.351 -0.3088  0.2028  0.4098
19819TIP3    H180948   5.280   2.001  13.350  0.4891  0.0168 -1.5284
19819TIP3    H280949   5.302   1.872  13.275  0.1295 -1.9803  1.6867
19820TIP3   OH280950   3.686   3.302  12.925 -0.0152 -0.4889  0.1876
19820TIP3    H180951   3.702   3.252  13.006 -1.3107  0.4651  1.0439
19820TIP3    H280952   3.735   3.383  12.937  0.6451 -0.7812 -0.4566
19821TIP3   OH280953   0.539   3.518   0.953 -0.0675  0.4202  0.6582
19821TIP3    H180954   0.467   3.455   0.956 -0.2721  0.6693  1.1047
19821TIP3    H280955   0.573   3.511   0.864 -0.9136  0.5986  0.3147
19822TIP3   OH280956   4.740   6.274   3.604 -0.2447 -0.3326  0.0407
19822TIP3    H180957   4.699   6.253   3.688 -0.9668  0.3408 -0.1455
19822TIP3    H280958   4.759   6.367   3.609  1.0209 -0.5723  0.0154
19823TIP3   OH280959   4.384   1.062  13.700  0.0481  0.5302  0.5738
19823TIP3    H180960   4.331   1.022  13.768 -0.8159  2.9625  1.3825
19823TIP3    H280961   4.473   1.031  13.717 -0.5533 -0.8052  1.3215
19824TIP3   OH280962   3.000   2.472   6.260  0.5722  0.2033 -0.4991
19824TIP3    H180963   2.932   2.540   6.260  0.8982  0.5671 -2.1826
19824TIP3    H280964   3.025   2.462   6.351 -1.4684  0.3535  0.0895
19825TIP3   OH280965   3.473   3.004  15.834  0.0819 -0.0675  0.0046
19825TIP3    H180966   3.498   3.011  15.926  0.1801  1.3799 -0.1155
19825TIP3    H280967   3.385   2.968  15.835 -0.6883  1.7980  0.7572
19826TIP3   OH280968   3.669   5.646  17.000 -0.2427 -1.0228 -0.5261
19826TIP3    H180969   3.751   5.634  17.048  0.6502  0.3594 -1.6611
19826TIP3    H280970   3.678   5.589  16.923 -0.7033 -1.5140 -0.2136
19827TIP3   OH280971   0.165   5.157  14.884  0.0221  0.2333  0.3291
19827TIP3    H180972   0.156   5.095  14.957 -0.9001  0.2279  0.2157
19827TIP3    H280973   0.076   5.187  14.867  0.2226  0.2002 -0.8321
19828TIP3   OH280974   0.078   3.151   2.680  0.1015  0.7559  0.2705
19828TIP3    H180975   0.039   3.095   2.747 -1.3896  0.9745 -0.3831
19828TIP3    H280976   0.172   3.146   2.696 -0.1514 -0.2315  1.5524
19829TIP3   OH280977   5.530   5.862   2.493 -0.1129  0.2642  0.3586
19829TIP3    H180978   5.598   5.929   2.497 -0.9237  1.1017  0.3746
19829TIP3    H280979   5.456   5.905   2.451  0.2834 -1.4642 -2.2415
19830TIP3   OH280980   4.068   4.203   0.693  0.4308  0.2747  0.3550
19830TIP3    H180981   4.044   4.287   0.733  2.6722  0.6973  0.8876
19830TIP3    H280982   4.008   4.194   0.619 -1.2954  1.2787  1.5764
19831TIP3   OH280983   6.639   5.348  16.785 -0.1129 -0.1686  0.0081
19831TIP3    H180984   6.653   5.443  16.792 -0.1431 -0.1561 -0.0987
19831TIP3    H280985   6.591   5.337  16.703  0.8094 -0.3674 -0.5141
19832TIP3   OH280986   3.596   0.431  14.904  0.3647  0.3345  0.3067
19832TIP3    H180987   3.565   0.518  14.876  2.0107  0.6462 -0.6165
19832TIP3    H280988   3.557   0.371  14.840  0.7710  0.6127 -0.2144
19833TIP3   OH280989   0.102   2.317   0.915  0.3312  0.2010  0.0206
19833TIP3    H180990   0.063   2.276   0.838  0.5416  0.4355 -0.2086
19833TIP3    H280991   0.154   2.247   0.955 -0.7928 -0.2935  0.6635
19834TIP3   OH280992   5.916   2.445   3.547  0.0921  0.7575  0.3031
19834TIP3    H180993   6.005   2.466   3.575  0.6988 -0.7294 -0.4605
19834TIP3    H280994   5.902   2.355   3.576 -1.1911  0.9973  0.4595
19835TIP3   OH280995   1.879   0.239  13.138 -0.1513  0.1194 -0.7205
19835TIP3    H180996   1.930   0.291  13.200 -0.9615 -2.5414  2.2916
19835TIP3    H280997   1.800   0.290  13.123  0.5613  1.3253 -0.4811
19836TIP3   OH280998   4.364   5.289   4.091 -0.5557  0.0523 -0.1566
19836TIP3    H180999   4.357   5.372   4.138  3.2177 -0.2398  1.1034
19836TIP3    H281000   4.376   5.223   4.159  0.9974 -0.8982 -1.3121
19837TIP3   OH281001   4.569   0.595  13.832 -0.1820  0.5035 -0.1265
19837TIP3    H181002   4.651   0.620  13.789  1.1788 -2.0142  0.8748
19837TIP3    H281003   4.517   0.554  13.762  0.0232  0.7438 -0.4218
19838TIP3   OH281004   0.561   0.541   1.069  0.1151 -0.4210  0.0290
19838TIP3    H181005   0.587   0.517   0.980 -0.7920 -0.7096 -0.1634
19838TIP3    H281006   0.492   0.606   1.058 -1.1888 -1.7023  0.4980
19839TIP3   OH281007   3.421   5.570  12.844  0.3078  0.2850  0.0434
19839TIP3    H181008   3.409   5.554  12.751  1.4475 -1.0565  0.1054
19839TIP3    H281009   3.354   5.634  12.867  0.3970  1.0563 -1.8150
19840TIP3   OH281010   1.746   3.383   2.005  0.3047 -0.1508  0.1699
19840TIP3    H181011   1.804   3.457   1.985 -0.8632  0.1108 -2.4456
19840TIP3    H281012   1.805   3.307   2.004  0.7731  0.2028 -1.7145
19841TIP3   OH281013   5.271   6.266   3.492  0.2535 -0.4017  0.3730
19841TIP3    H181014   5.188   6.314   3.493  0.7552  0.4673  1.1402
19841TIP3    H281015   5.276   6.230   3.404 -1.1393 -0.8130  0.4525
19842TIP3   OH281016   3.369   2.693   1.700  0.1831  0.5247 -0.3329
19842TIP3    H181017   3.357   2.788   1.709 -0.4904  0.7015 -2.8604
19842TIP3    H281018   3.413   2.682   1.616  0.4197 -1.4127  0.0213
19843TIP3   OH281019   0.273   3.341   4.540 -0.4826  0.1321 -0.4043
19843TIP3    H181020   0.311   3.273   4.595 -1.9249 -0.9016 -0.6612
19843TIP3    H281021   0.302   3.319   4.451 -0.5233  0.1411 -0.4198
19844TIP3   OH281022   3.001   1.734  14.908 -0.2380  0.0500 -0.1936
19844TIP3    H181023   2.921   1.714  14.957  0.0046  0.5600  0.4147
19844TIP3    H281024   3.026   1.822  14.938  0.9549 -0.4016  0.1669
19845TIP3   OH281025   5.112   4.125   0.691  0.3572  0.3903  0.1832
19845TIP3    H181026   5.143   4.140   0.780  0.3743  0.3022  0.1917
19845TIP3    H281027   5.188   4.147   0.636  0.4550  0.1178  0.2070
19846TIP3   OH281028   3.780   2.830  11.691 -0.6679 -0.4046  0.7514
19846TIP3    H181029   3.736   2.915  11.696 -1.0350 -0.5325 -0.2815
19846TIP3    H281030   3.781   2.799  11.782 -0.8782  0.5197  1.0791
19847TIP3   OH281031   4.377   5.759  13.544 -0.7117  0.2635  0.5446
19847TIP3    H181032   4.446   5.703  13.579  0.7376  0.5162 -1.7773
19847TIP3    H281033   4.316   5.698  13.502  0.0853  0.2863 -0.6757
19848TIP3   OH281034   5.380   1.958  15.463  0.0185  0.7435 -0.0725
19848TIP3    H181035   5.429   1.949  15.544  0.2902 -0.0755 -0.3213
19848TIP3    H281036   5.348   2.048  15.464 -0.6039  0.5079  1.2811
19849TIP3   OH281037   3.332   4.268   6.110  0.0521  0.2592 -0.0881
19849TIP3    H181038   3.328   4.239   6.201  2.3406  0.2138  0.0240
19849TIP3    H281039   3.398   4.337   6.110  0.8180 -0.4555 -1.8779
19850TIP3   OH281040   0.528   2.644   4.429  0.1733  0.1339  0.1207
19850TIP3    H181041   0.471   2.570   4.450 -2.2726  2.2546  1.4163
19850TIP3    H281042   0.500   2.672   4.342 -1.1040  1.4272  0.9241
19851TIP3   OH281043   0.643   6.459   2.703  0.2844 -0.1659 -0.1412
19851TIP3    H181044   0.631   6.439   2.610 -1.3421 -2.5370  0.5413
19851TIP3    H281045   0.590   6.393   2.748  2.0278  0.2083  2.5025
19852TIP3   OH281046   1.115   2.391   0.432  0.0956  0.7206 -0.3881
19852TIP3    H181047   1.173   2.335   0.381  2.0793  0.4378  2.0794
19852TIP3    H281048   1.027   2.359   0.412  1.0735 -1.9499 -0.5961
19853TIP3   OH281049   6.263   5.320   3.815  0.2328 -0.4005  0.4630
19853TIP3    H181050   6.351   5.290   3.836 -0.0424 -0.2298  1.8877
19853TIP3    H281051   6.276   5.401   3.765  0.9108 -1.4388 -1.0677
19854TIP3   OH281052   0.415   6.008  10.852  0.1506  0.4518  0.0606
19854TIP3    H181053   0.327   6.030  10.821  0.0380  1.1129  0.8202
19854TIP3    H281054   0.446   6.088  10.893  2.3747  1.2355 -2.9717
19855TIP3   OH281055   2.628   5.215  11.901 -0.3659  0.2261  0.2228
19855TIP3    H181056   2.592   5.139  11.946  1.1053 -0.5450  0.1263
19855TIP3    H281057   2.624   5.192  11.808  3.5903 -1.4024  0.3436
19856TIP3   OH281058   6.283   1.976  11.451  0.4991  0.3341 -0.6479
19856TIP3    H181059   6.326   1.947  11.370  0.0325 -0.0833 -0.7478
19856TIP3    H281060   6.277   1.897  11.504  0.1440  0.4593 -0.5037
19857TIP3   OH281061   3.597   3.546   2.613  0.1007  0.9347 -0.2616
19857TIP3    H181062   3.530   3.514   2.673  2.0434 -1.1482  0.8601
19857TIP3    H281063   3.647   3.609   2.665 -0.2332  1.5977 -0.7331
19858TIP3   OH281064   4.514   3.857  14.185  0.3284  0.5242 -0.4659
19858TIP3    H181065   4.439   3.798  14.191  1.3257 -0.5507  1.9750
19858TIP3    H281066   4.475   3.943  14.168 -1.4367 -0.0966  0.2953
19859TIP3   OH281067   4.247   4.561   6.488  0.0546 -0.4946 -0.2293
19859TIP3    H181068   4.217   4.521   6.407 -0.6531 -2.6167  1.0215
19859TIP3    H281069   4.337   4.529   6.499  0.5982  0.7933 -0.7787
19860TIP3   OH281070   0.337   2.477  12.321  0.1982 -0.3960  0.3409
19860TIP3    H181071   0.404   2.429  12.273 -0.0668 -0.3415 -0.0873
19860TIP3    H281072   0.286   2.410  12.365  0.4496 -0.4455  0.5599
19861TIP3   OH281073   4.715   5.509   3.363 -0.2863 -0.0550  0.0770
19861TIP3    H181074   4.743   5.500   3.454 -1.7060  0.0613  0.5244
19861TIP3    H281075   4.661   5.432   3.346 -0.1450 -0.0069 -0.6331
19862TIP3   OH281076   5.642   0.931   2.875  0.8355 -0.3732  0.4115
19862TIP3    H181077   5.621   0.936   2.968 -1.0518 -1.7685  0.1054
19862TIP3    H281078   5.659   0.838   2.859  3.5406  0.1951 -0.1759
19863TIP3   OH281079   1.529   1.490  15.389  0.4284  1.0247  0.3886
19863TIP3    H181080   1.615   1.530  15.374  0.1653  1.1826 -0.7766
19863TIP3    H281081   1.521   1.424  15.320 -0.9160  1.8904 -0.3038
19864TIP3   OH281082   1.522   3.748   6.018  0.9342  0.3515  0.1926
19864TIP3    H181083   1.485   3.731   5.931  0.9666 -2.9960  0.7662
19864TIP3    H281084   1.616   3.749   6.005  0.8875  2.2846 -0.1715
19865TIP3   OH281085   3.871   3.309   3.224 -0.7497 -0.3328 -0.1728
19865TIP3    H181086   3.939   3.375   3.209 -0.0560 -0.6684  1.4118
19865TIP3    H281087   3.816   3.346   3.294 -1.0693 -0.8997 -0.1223
19866TIP3   OH281088   4.504   6.778   5.073  0.7882 -0.2578 -0.1630
19866TIP3    H181089   4.446   6.849   5.099  0.7687 -1.1490  2.3962
19866TIP3    H281090   4.504   6.780   4.977 -0.0557  2.4702 -0.1345
19867TIP3   OH281091   2.320   2.770   4.940 -0.2124 -0.5943  0.3399
19867TIP3    H181092   2.250   2.747   4.879 -0.2063  2.3459 -0.8333
19867TIP3    H281093   2.287   2.742   5.025 -1.9950 -0.9779 -0.4480
19868TIP3   OH281094   4.468   3.305   1.498 -0.3069  0.8544  0.5243
19868TIP3    H181095   4.535   3.252   1.455  0.0209  1.4882  0.2415
19868TIP3    H281096   4.478   3.286   1.591  2.1238  2.9866  0.7822
19869TIP3   OH281097   1.952   3.429  13.321  0.4373  0.2133 -0.3627
19869TIP3    H181098   1.889   3.368  13.361 -1.1058  0.8002 -1.8475
19869TIP3    H281099   2.023   3.435  13.385  0.3880 -2.7396  0.0640
19870TIP3   OH281100   3.176   1.585   2.287  0.5691  0.1273  0.8364
19870TIP3    H181101   3.210   1.519   2.347  0.0709  0.4620  1.4960
19870TIP3    H281102   3.137   1.651   2.344 -0.6688  0.0363  0.1223
19871TIP3   OH281103   2.032   1.900  17.076  0.4236 -0.1926 -0.0243
19871TIP3    H181104   2.079   1.971  17.119  1.2233 -0.7906  0.0840
19871TIP3    H281105   2.039   1.919  16.983 -1.1655  1.0117  0.0589
19872TIP3   OH281106   2.027   3.084   2.672 -0.0633  0.5534 -0.0508
19872TIP3    H181107   2.066   3.127   2.595  1.4556  1.2723  1.0975
19872TIP3    H281108   2.060   2.995   2.669 -1.0572  0.1992 -0.9384
19873TIP3   OH281109   3.384   0.671   1.528  0.0756 -0.6228 -0.5109
19873TIP3    H181110   3.398   0.764   1.544  1.0432 -0.8393 -0.0737
19873TIP3    H281111   3.468   0.639   1.496 -0.0397 -1.4817  0.0183
19874TIP3   OH281112   2.846   3.184   4.882 -0.0629  0.4180  0.0046
19874TIP3    H181113   2.842   3.269   4.925 -0.3443  1.3679 -1.8257
19874TIP3    H281114   2.938   3.170   4.862  0.3539 -0.9955  2.7327
19875TIP3   OH281115   2.897   3.965  13.512 -0.0457 -0.1163  0.7367
19875TIP3    H181116   2.880   3.990  13.603 -2.3693 -0.1069  0.3367
19875TIP3    H281117   2.901   3.869  13.514 -0.1376 -0.1181  0.8389
19876TIP3   OH281118   1.698   5.643   2.678  1.0078 -0.4755 -0.5789
19876TIP3    H181119   1.743   5.560   2.693  0.3259 -1.1720 -2.2420
19876TIP3    H281120   1.687   5.648   2.583 -2.4346 -0.3686 -0.2596
19877TIP3   OH281121   5.122   1.714   3.809  0.3968  0.3966 -0.4876
19877TIP3    H181122   5.107   1.801   3.845  2.2506  0.7270 -0.4467
19877TIP3    H281123   5.151   1.730   3.719 -0.8478 -0.2675 -1.0210
19878TIP3   OH281124   4.327   3.495   3.660  0.4567  0.1120  0.0010
19878TIP3    H181125   4.233   3.513   3.661  0.2601 -0.8625  1.6618
19878TIP3    H281126   4.367   3.573   3.700  0.2307 -0.0807  0.6041
19879TIP3   OH281127   1.349   3.591   5.423  0.3622 -0.0691  0.8835
19879TIP3    H181128   1.359   3.496   5.414 -2.0902 -0.2608 -0.1906
19879TIP3    H281129   1.337   3.604   5.517  0.9282 -0.7897  1.0659
19880TIP3   OH281130   4.469   3.276   4.434  0.6667  0.4793  0.2131
19880TIP3    H181131   4.427   3.278   4.520 -0.8998  0.3291 -0.5366
19880TIP3    H281132   4.525   3.198   4.436  0.7612  0.5674  1.1501
19881TIP3   OH281133   0.753   1.577   1.599 -0.2330 -0.1621 -0.1676
19881TIP3    H181134   0.725   1.588   1.690  0.5003  2.5999 -0.2288
19881TIP3    H281135   0.834   1.525   1.605 -0.8878 -1.0907  0.6469
19882TIP3   OH281136   5.680   1.671  12.079 -0.2961  0.6786 -0.2401
19882TIP3    H181137   5.715   1.594  12.124 -0.0400 -0.2389 -1.9667
19882TIP3    H281138   5.586   1.653  12.071 -0.5813  1.4742  1.1278
19883TIP3   OH281139   2.266   6.568  13.615 -0.4221 -0.6000 -0.7683
19883TIP3    H181140   2.300   6.498  13.559 -1.5950 -0.5278 -1.5941
19883TIP3    H281141   2.307   6.553  13.700 -0.1105 -1.8641 -1.1349
19884TIP3   OH281142   4.890   1.210   4.449  0.2870  0.3569 -0.2910
19884TIP3    H181143   4.823   1.276   4.460  0.3851  0.4690 -0.3656
19884TIP3    H281144   4.887   1.188   4.356  0.7228  0.7563 -0.4016
19885TIP3   OH281145   3.161   2.054   0.397  0.1329 -0.1141  0.7823
19885TIP3    H181146   3.195   2.139   0.428 -0.3057  0.6253 -0.7414
19885TIP3    H281147   3.237   1.996   0.399  1.1282  1.0929 -1.0025
19886TIP3   OH281148   5.932   5.572  12.624 -0.5972 -0.1472  0.0991
19886TIP3    H181149   5.896   5.539  12.706 -0.5868 -0.9272 -0.2107
19886TIP3    H281150   5.865   5.552  12.559  0.8516 -2.6343 -0.6869
19887TIP3   OH281151   6.538   6.794   4.070 -0.1927  0.2226  0.0679
19887TIP3    H181152   6.464   6.853   4.053 -0.2221 -0.1738 -1.2330
19887TIP3    H281153   6.521   6.718   4.015  0.8317 -0.1711  0.2926
19888TIP3   OH281154   4.075   6.441   2.619  0.3548  0.0221 -0.1031
19888TIP3    H181155   4.154   6.393   2.643  0.2508 -0.0048  0.1869
19888TIP3    H281156   4.014   6.374   2.588  0.4053  0.0315 -0.2258
19889TIP3   OH281157   5.444   4.731  14.259  0.5434 -0.3618  0.4422
19889TIP3    H181158   5.501   4.656  14.272 -1.4223 -1.9371  0.2895
19889TIP3    H281159   5.499   4.797  14.216  1.8020 -2.4233 -1.2006
19890TIP3   OH281160   6.062   6.693   6.196  0.1131  0.5727 -0.1399
19890TIP3    H181161   6.126   6.748   6.240  0.9867 -1.8351  1.7111
19890TIP3    H281162   5.989   6.687   6.259 -0.0240 -0.2783 -0.3820
19891TIP3   OH281163   5.679   0.978  11.642  0.2358 -0.5077 -0.1356
19891TIP3    H181164   5.646   1.024  11.719  1.2946  2.3333 -1.2994
19891TIP3    H281165   5.603   0.968  11.585 -0.2724 -1.3896  0.6913
19892TIP3   OH281166   6.472   6.377  11.336 -0.0153  0.4244  0.4818
19892TIP3    H181167   6.486   6.439  11.407 -2.4259  0.9731  0.5004
19892TIP3    H281168   6.406   6.418  11.281  0.3171 -0.9402 -0.9673
19893TIP3   OH281169   3.020   6.790  16.723 -0.3089 -0.3016 -0.2688
19893TIP3    H181170   3.042   6.786  16.630 -1.2554 -1.0741 -0.4731
19893TIP3    H281171   3.103   6.776  16.769  0.2294  0.4704 -0.9853
19894TIP3   OH281172   0.719   1.799  14.021  0.4320 -0.3670 -0.4618
19894TIP3    H181173   0.805   1.762  14.000  0.0191 -1.2316 -0.6574
19894TIP3    H281174   0.735   1.854  14.097  1.3066  0.0973 -0.9633
19895TIP3   OH281175   4.307   5.236   1.136 -0.0374 -0.0766  0.2264
19895TIP3    H181176   4.228   5.219   1.188 -0.4573 -1.3777 -0.8004
19895TIP3    H281177   4.377   5.194   1.186 -0.5081 -1.7101 -0.4177
19896TIP3   OH281178   2.816   2.040  14.832  0.3836 -0.2969 -0.0727
19896TIP3    H181179   2.891   1.981  14.845  0.3695 -0.3375 -0.1732
19896TIP3    H281180   2.843   2.122  14.873  0.9072  0.0214 -1.0499
19897TIP3   OH281181   6.717   5.958   4.004  0.7865  0.0323 -0.1552
19897TIP3    H181182   6.765   5.879   4.027 -2.6793 -2.3658 -0.8331
19897TIP3    H281183   6.637   5.954   4.056 -0.0775  2.4072 -1.2279
19898TIP3   OH281184   4.814   2.203   5.905  0.1388  0.4239 -0.0616
19898TIP3    H181185   4.844   2.292   5.885 -0.7997  0.8447  0.3503
19898TIP3    H281186   4.732   2.194   5.856  0.8312 -0.6476 -1.0500
19899TIP3   OH281187   6.300   3.383  14.691 -0.2501 -0.2576 -0.1401
19899TIP3    H181188   6.325   3.353  14.604 -1.3357  1.1834 -0.9942
19899TIP3    H281189   6.218   3.337  14.710 -1.1435  1.0068 -0.8241
19900TIP3   OH281190   6.037   1.488   1.952  0.3147 -0.1216 -0.1084
19900TIP3    H181191   5.990   1.405   1.964  0.3821  0.0004  1.0567
19900TIP3    H281192   6.067   1.511   2.040  1.4418  0.4660 -0.6408
19901TIP3   OH281193   1.006   2.705   1.641  0.3262  0.1342  0.2257
19901TIP3    H181194   0.972   2.639   1.702 -0.7967 -0.8808 -1.4601
19901TIP3    H281195   0.947   2.780   1.653 -1.5210 -0.9945 -1.4255
19902TIP3   OH281196   3.742   3.277   2.907 -0.3444  0.1409 -0.3668
19902TIP3    H181197   3.836   3.270   2.924 -0.3919 -0.6691 -0.4490
19902TIP3    H281198   3.734   3.348   2.844  0.1695  0.5462  0.0223
19903TIP3   OH281199   1.823   3.805   1.493 -0.3165 -0.6456 -0.8350
19903TIP3    H181200   1.736   3.779   1.524 -1.4093  2.6262 -0.9355
19903TIP3    H281201   1.811   3.821   1.400 -0.0608  1.3682 -0.5583
19904TIP3   OH281202   1.983   4.170   3.716  1.1569 -0.2822 -0.2117
19904TIP3    H181203   2.034   4.110   3.661  0.3295 -0.5547 -0.7030
19904TIP3    H281204   1.921   4.210   3.656 -1.7639 -2.7966  1.0050
19905TIP3   OH281205   2.134   2.393   5.680 -0.0386 -0.4973 -0.5870
19905TIP3    H181206   2.069   2.421   5.617 -0.1824 -0.1136 -0.2713
19905TIP3    H281207   2.158   2.473   5.728 -0.0341 -0.8056 -0.0637
19906TIP3   OH281208   0.686   0.462  14.228 -0.4620  0.3426 -0.0073
19906TIP3    H181209   0.596   0.470  14.198 -0.2323  0.1680 -0.7738
19906TIP3    H281210   0.696   0.530  14.294 -0.7080  1.3707 -1.0148
19907TIP3   OH281211   4.475   4.739   4.160 -0.5090  0.4640  0.4059
19907TIP3    H181212   4.527   4.666   4.128 -0.3176  0.1267  1.4481
19907TIP3    H281213   4.386   4.705   4.164 -0.4561  0.3577  0.6793
19908TIP3   OH281214   6.481   2.622   0.451  0.1180 -0.2504 -0.6038
19908TIP3    H181215   6.474   2.718   0.442 -0.9535 -0.3509 -0.8718
19908TIP3    H281216   6.456   2.588   0.366 -1.0550 -0.8403 -0.0258
19909TIP3   OH281217   0.974   2.224  16.318  0.3403 -0.4008 -0.0513
19909TIP3    H181218   1.021   2.205  16.237 -2.0603 -0.0762 -1.5770
19909TIP3    H281219   1.019   2.171  16.384  2.0060 -1.1017 -1.6704
19910TIP3   OH281220   5.265   4.485   1.508  0.3647 -0.6515  0.1360
19910TIP3    H181221   5.332   4.424   1.541 -0.0137 -1.7223 -1.0546
19910TIP3    H281222   5.188   4.467   1.561  0.3817 -0.9165  0.0721
19911TIP3   OH281223   1.587   2.534   2.063 -0.5301 -0.7851  0.4291
19911TIP3    H181224   1.508   2.493   2.028 -0.8309 -1.7089  2.1507
19911TIP3    H281225   1.604   2.607   2.002 -2.9375 -0.3024  0.2569
19912TIP3   OH281226   0.091   1.336  11.311  0.2901 -0.4093  0.0976
19912TIP3    H181227   0.050   1.355  11.396 -0.7212  0.5810 -0.6059
19912TIP3    H281228   0.179   1.373  11.318  0.9294 -2.1044  1.4326
19913TIP3   OH281229   0.993   6.591  11.822 -0.2261 -0.1894  0.2553
19913TIP3    H181230   0.972   6.533  11.895  0.5701 -1.0133 -0.1637
19913TIP3    H281231   0.991   6.679  11.861 -1.8435 -0.4458  0.7930
19914TIP3   OH281232   6.354   1.968   0.282  0.0769 -0.2513 -0.7015
19914TIP3    H181233   6.417   1.896   0.288 -0.6728 -0.7776  1.4007
19914TIP3    H281234   6.396   2.031   0.223  1.8008 -1.3402 -0.7006
19915TIP3   OH281235   3.024   5.535   6.419  0.2102  0.2387  0.0241
19915TIP3    H181236   2.941   5.543   6.373  0.7648 -0.3802 -1.1085
19915TIP3    H281237   3.088   5.574   6.359  0.7949  0.3088  0.6932
19916TIP3   OH281238   6.062   3.849  11.345 -0.3521  0.0057  0.4198
19916TIP3    H181239   6.091   3.758  11.348  0.3923  0.1919 -0.8412
19916TIP3    H281240   6.129   3.898  11.392  0.2094  0.1398 -0.5150
19917TIP3   OH281241   1.567   3.685   4.194  0.4655 -0.1798 -0.2628
19917TIP3    H181242   1.482   3.641   4.202  0.4442  0.2162  1.8745
19917TIP3    H281243   1.548   3.762   4.140 -0.9714  0.9248  1.7263
19918TIP3   OH281244   1.873   0.171   2.366 -0.2132  0.1373 -0.1541
19918TIP3    H181245   1.835   0.224   2.296  1.2493  2.3517  0.6983
19918TIP3    H281246   1.912   0.096   2.321 -1.3493  0.3203 -1.4689
19919TIP3   OH281247   4.251   5.736   2.627  0.3726 -0.1953 -0.4562
19919TIP3    H181248   4.170   5.752   2.674 -0.8164  1.5654 -3.0253
19919TIP3    H281249   4.231   5.664   2.567  0.6626  0.3515 -1.2158
19920TIP3   OH281250   0.305   0.232  16.663  0.5116  0.0571 -0.2713
19920TIP3    H181251   0.350   0.317  16.656  0.1270  0.2355 -0.6227
19920TIP3    H281252   0.335   0.183  16.587 -2.2592  1.3189 -2.2635
19921TIP3   OH281253   1.023   1.635   3.414  0.5071  0.6155 -0.2200
19921TIP3    H181254   1.093   1.696   3.435 -0.9210  1.6339  1.7627
19921TIP3    H281255   0.943   1.681   3.438 -0.7685 -1.0491 -1.1387
19922TIP3   OH281256   6.222   2.206  12.612 -0.3143  0.1645  0.6554
19922TIP3    H181257   6.267   2.247  12.686  1.8776 -1.0188 -0.0009
19922TIP3    H281258   6.285   2.211  12.540 -0.8620 -2.3211 -0.0351
19923TIP3   OH281259   2.532   4.193   4.182 -0.2030 -0.5932 -0.0805
19923TIP3    H181260   2.537   4.249   4.260 -2.0782 -0.2243 -0.1982
19923TIP3    H281261   2.608   4.135   4.189  1.3434  1.4276  0.4525
19924TIP3   OH281262   6.110   1.838   2.838  0.8013 -0.4108  0.4867
19924TIP3    H181263   6.035   1.807   2.788  0.7170  1.2834 -0.4787
19924TIP3    H281264   6.186   1.824   2.781  0.7882  0.9147  0.1246
19925TIP3   OH281265   2.605   2.830   3.682  0.4677 -0.2547  0.1235
19925TIP3    H181266   2.675   2.840   3.618  0.5592  1.2847  0.4524
19925TIP3    H281267   2.530   2.800   3.630  0.1127  2.4294 -1.0099
19926TIP3   OH281268   2.978   0.126   0.970 -0.2382 -1.0293 -0.8299
19926TIP3    H181269   3.061   0.079   0.977  0.2827 -0.1790 -1.3318
19926TIP3    H281270   2.980   0.189   1.042  0.2016 -0.0050 -1.7248
19927TIP3   OH281271   1.673   0.117  12.939  0.0653  0.5050 -0.3981
19927TIP3    H181272   1.668   0.213  12.949 -0.3316  0.5688 -1.1628
19927TIP3    H281273   1.737   0.104  12.868  0.0205  0.2116 -0.3814
19928TIP3   OH281274   1.592   2.741  14.604 -0.1810 -0.2071 -0.5873
19928TIP3    H181275   1.669   2.692  14.634  0.0838  0.5645  0.0121
19928TIP3    H281276   1.590   2.727  14.510  0.2998 -0.7944 -0.5122
19929TIP3   OH281277   4.843   3.573   1.713  0.2705  0.3450  0.2097
19929TIP3    H181278   4.868   3.592   1.622  1.2181 -1.1323  0.1293
19929TIP3    H281279   4.814   3.656   1.748  1.2821  1.2464 -1.0211
19930TIP3   OH281280   2.311   5.505   4.166 -0.1583  0.2241 -0.4548
19930TIP3    H181281   2.316   5.417   4.128 -0.7063  0.8264 -1.9814
19930TIP3    H281282   2.342   5.563   4.096  1.9401  1.1130  1.1542
19931TIP3   OH281283   0.323   0.301   1.327  0.0652 -0.0542 -0.4357
19931TIP3    H181284   0.254   0.241   1.354 -0.2361  0.2802 -0.4594
19931TIP3    H281285   0.374   0.252   1.262 -1.1811  0.2982 -1.7031
19932TIP3   OH281286   2.020   5.779   0.858 -0.6788 -0.1486  0.5759
19932TIP3    H181287   2.049   5.738   0.940 -1.0479  0.2882  0.9251
19932TIP3    H281288   2.099   5.781   0.803 -0.7594 -1.7413  0.3791
19933TIP3   OH281289   2.007   2.608  16.164  0.1386 -0.0976  0.0657
19933TIP3    H181290   1.942   2.678  16.153  0.2867 -0.0271 -0.3720
19933TIP3    H281291   2.008   2.564  16.080  2.1266  1.1738 -0.6006
19934TIP3   OH281292   2.667   0.351  17.044  0.0144  0.4939  0.1431
19934TIP3    H181293   2.653   0.284  16.976  1.0415 -1.6505  1.9544
19934TIP3    H281294   2.610   0.423  17.019 -0.5132 -0.7194 -2.3526
19935TIP3   OH281295   5.284   6.707  15.091 -0.3569 -0.6030 -0.2593
19935TIP3    H181296   5.331   6.626  15.072  1.2207  0.0530  0.7827
19935TIP3    H281297   5.352   6.770  15.114 -1.6069  0.8780 -0.5045
19936TIP3   OH281298   0.345   3.971   3.852  0.2684 -1.0922 -0.1442
19936TIP3    H181299   0.361   3.897   3.793  1.0080 -1.2650  0.2681
19936TIP3    H281300   0.413   4.034   3.829 -0.0961 -0.7207 -0.1974
19937TIP3   OH281301   2.842   0.246  16.269 -0.4139  0.1962 -0.0652
19937TIP3    H181302   2.882   0.255  16.356 -0.2185 -1.4176  0.0227
19937TIP3    H281303   2.770   0.309  16.269 -0.4941  0.1214  1.3071
19938TIP3   OH281304   6.031   0.879   6.465  0.5061 -0.3238  0.4236
19938TIP3    H181305   6.126   0.890   6.461  0.5336 -0.7991 -0.2987
19938TIP3    H281306   6.002   0.889   6.374 -0.1715  0.1308  0.6850
19939TIP3   OH281307   4.663   3.167  11.889  0.3853  0.1897  0.1333
19939TIP3    H181308   4.611   3.174  11.969  2.1159  0.5824  1.2485
19939TIP3    H281309   4.712   3.249  11.885  0.1909  0.2341 -1.4207
19940TIP3   OH281310   4.695   0.590  10.481  0.7848 -0.3355  0.2876
19940TIP3    H181311   4.678   0.540  10.402 -0.4366  0.2707  0.1619
19940TIP3    H281312   4.718   0.678  10.450 -0.1424  0.0245  0.6267
19941TIP3   OH281313   3.146   3.689   5.817 -0.3626  0.2029  0.0142
19941TIP3    H181314   3.118   3.681   5.909 -0.4565 -0.5497 -0.0702
19941TIP3    H281315   3.084   3.634   5.769 -0.5467  0.8920 -0.5521
19942TIP3   OH281316   3.914   4.466   3.217 -0.9674  0.2573 -0.2994
19942TIP3    H181317   3.891   4.555   3.244 -0.2110  0.0134  1.1652
19942TIP3    H281318   4.009   4.464   3.221 -0.9820 -0.5809 -0.4462
19943TIP3   OH281319   6.276   6.509   4.410 -0.3769 -0.1707  0.2954
19943TIP3    H181320   6.320   6.588   4.440  0.4038 -0.1296 -0.9333
19943TIP3    H281321   6.208   6.493   4.476  1.7792 -0.5215  2.5312
19944TIP3   OH281322   2.492   1.816   2.748  0.5335  0.3949 -0.1300
19944TIP3    H181323   2.433   1.757   2.701 -0.0629 -0.4385  1.6188
19944TIP3    H281324   2.577   1.772   2.743  0.9403  1.3574 -2.2315
19945TIP3   OH281325   0.008   5.336  12.984  0.3221  0.0745  0.2817
19945TIP3    H181326  -0.047   5.264  13.014  1.3107 -0.7481  0.1442
19945TIP3    H281327  -0.053   5.408  12.969 -0.6497 -0.6692  0.6193
19946TIP3   OH281328   4.105   3.310  15.439 -0.0636 -0.0524 -0.6488
19946TIP3    H181329   4.099   3.406  15.439  0.8838  0.0168  0.2260
19946TIP3    H281330   4.014   3.280  15.439 -0.3687  0.8388 -1.3870
19947TIP3   OH281331   4.207   6.206   5.115  0.2666  0.1944 -0.2554
19947TIP3    H181332   4.292   6.163   5.101 -0.2671 -0.4574 -1.5685
19947TIP3    H281333   4.152   6.139   5.155 -0.1425  0.0756 -1.0030
19948TIP3   OH281334   1.015   4.720   1.311 -0.4547  0.0991 -0.0593
19948TIP3    H181335   0.982   4.746   1.225  0.8488  0.6093 -0.4153
19948TIP3    H281336   0.988   4.790   1.370  0.8701  1.0381 -0.5469
19949TIP3   OH281337   4.771   0.234  14.385 -0.2099  0.3362  0.2754
19949TIP3    H181338   4.773   0.167  14.453 -0.7070 -0.1519 -0.1782
19949TIP3    H281339   4.703   0.295  14.413  1.1993  1.4240  1.3929
19950TIP3   OH281340   4.612   3.274  16.950 -0.2341  0.4552 -0.3446
19950TIP3    H181341   4.549   3.228  16.895 -0.4476  1.6025 -1.0654
19950TIP3    H281342   4.559   3.319  17.015 -0.2061  1.8018 -1.2366
19951TIP3   OH281343   5.317   5.453  16.568  0.3175  0.2565 -0.1187
19951TIP3    H181344   5.266   5.391  16.516  0.9984 -1.5859  1.3544
19951TIP3    H281345   5.303   5.538  16.525 -2.7003 -0.4644 -0.6526
19952TIP3   OH281346   2.664   4.649   2.044 -0.3444  0.1595 -0.2514
19952TIP3    H181347   2.590   4.708   2.030 -1.2106 -0.6295  0.8548
19952TIP3    H281348   2.656   4.583   1.976 -1.0211 -0.2615  0.2285
19953TIP3   OH281349   0.303   0.177   0.890  0.4381 -0.0005  0.0099
19953TIP3    H181350   0.326   0.245   0.953  0.0432 -1.4879  1.8026
19953TIP3    H281351   0.250   0.115   0.940  0.3897 -1.3879 -1.7110
19954TIP3   OH281352   3.575   0.762   3.595  0.1669 -0.0036 -0.2116
19954TIP3    H181353   3.588   0.703   3.669 -0.6200  0.1582  0.0621
19954TIP3    H281354   3.663   0.788   3.569  0.5546 -1.6583 -0.6291
19955TIP3   OH281355   4.627   2.889  11.851 -0.5857 -0.0252 -0.1826
19955TIP3    H181356   4.564   2.876  11.780 -1.8416  2.6232  0.3786
19955TIP3    H281357   4.643   2.983  11.852  0.7463 -0.2337  1.9357
19956TIP3   OH281358   2.797   2.626   4.406 -0.7418  0.1860  0.5209
19956TIP3    H181359   2.785   2.698   4.468 -1.5500  1.9258 -1.6176
19956TIP3    H281360   2.771   2.548   4.456 -1.7731  1.5849  2.2548
19957TIP3   OH281361   4.277   4.580   0.900 -0.0917  0.3515  0.0655
19957TIP3    H181362   4.341   4.641   0.863 -0.5284  0.4845 -0.4670
19957TIP3    H281363   4.286   4.500   0.847  1.0063 -0.3315  1.2286
19958TIP3   OH281364   1.214   6.151  16.948 -0.2636 -0.2168  0.2740
19958TIP3    H181365   1.241   6.153  16.856 -1.4365 -1.4653 -0.1066
19958TIP3    H281366   1.124   6.119  16.946 -1.6688  3.3438  1.5731
19959TIP3   OH281367   4.061   4.721   2.670 -0.2066  0.6205 -0.1646
19959TIP3    H181368   4.148   4.757   2.650  0.1244  0.0606  0.2904
19959TIP3    H281369   4.001   4.792   2.645  0.3902  1.1224 -0.2069
19960TIP3   OH281370   4.293   1.355   3.471  0.1530 -0.4771 -0.0117
19960TIP3    H181371   4.232   1.408   3.523  0.6915 -0.2249  0.3710
19960TIP3    H281372   4.375   1.403   3.474  0.1575 -0.3925 -1.2280
19961TIP3   OH281373   2.268   2.803  15.995  0.4740  0.2505  0.6684
19961TIP3    H181374   2.255   2.812  15.900  2.2594  1.4918  0.5173
19961TIP3    H281375   2.294   2.712  16.007  0.0350  0.0274 -0.0055
19962TIP3   OH281376   3.013   1.897   0.002 -0.2071 -0.2292  0.3566
19962TIP3    H181377   3.000   1.908   0.096  0.3872  1.4778  0.2388
19962TIP3    H281378   3.066   1.971  -0.025 -0.4773 -0.6243 -1.3641
19963TIP3   OH281379   3.861   4.028   0.436  0.5945  0.5021  0.0244
19963TIP3    H181380   3.778   4.075   0.443  1.8644  2.4502  3.0466
19963TIP3    H281381   3.917   4.086   0.385  1.3216  1.0745  1.4472
19964TIP3   OH281382   5.820   5.751   6.156  0.0372  0.2146  0.7960
19964TIP3    H181383   5.872   5.726   6.081  0.5130  1.6724  0.6314
19964TIP3    H281384   5.731   5.723   6.134  0.5135 -1.1769  0.5689
19965TIP3   OH281385   1.785   0.339   4.355 -0.0838  0.0834  0.1835
19965TIP3    H181386   1.841   0.398   4.405  0.3370  0.7812 -1.0694
19965TIP3    H281387   1.781   0.379   4.268 -0.8677 -1.0513 -0.3132
19966TIP3   OH281388   4.597   5.693   1.966  0.1667  0.6604  0.5500
19966TIP3    H181389   4.516   5.730   2.002  0.2362  2.5880 -1.1729
19966TIP3    H281390   4.604   5.732   1.879  0.7790 -2.7483 -0.9699
19967TIP3   OH281391   1.616   4.880   4.783 -0.5226 -0.0595  0.5708
19967TIP3    H181392   1.582   4.968   4.764  1.6396  0.6688 -0.1514
19967TIP3    H281393   1.601   4.868   4.876 -1.3163  0.8852  0.5746
19968TIP3   OH281394   1.045   2.161   4.988  0.6841 -0.7740 -0.3157
19968TIP3    H181395   0.973   2.180   4.928  0.5456 -1.1631 -0.2760
19968TIP3    H281396   1.084   2.081   4.953  2.7738  0.8594 -1.8843
19969TIP3   OH281397   0.467   4.689  16.077  0.5161 -0.3093 -0.0665
19969TIP3    H181398   0.422   4.645  16.005  1.8288 -0.5957 -0.7267
19969TIP3    H281399   0.539   4.631  16.100 -0.4488 -0.6756  2.1490
19970TIP3   OH281400   1.163   2.250   3.536  0.1292 -0.3156 -0.1223
19970TIP3    H181401   1.249   2.208   3.541 -0.5236 -1.5699  1.1417
19970TIP3    H281402   1.182   2.341   3.514  1.9632 -0.0255  2.3251
19971TIP3   OH281403   2.302   2.797  17.264  0.1973 -0.1012  0.2635
19971TIP3    H181404   2.338   2.722  17.311  0.2064 -0.0942  0.2686
19971TIP3    H281405   2.275   2.857  17.333  0.6893  0.1355  0.2496
19972TIP3   OH281406   5.304   5.550   1.781  0.0046 -0.2803  0.0274
19972TIP3    H181407   5.225   5.513   1.743 -0.5330 -0.5510  1.3513
19972TIP3    H281408   5.375   5.522   1.724 -0.7430 -0.8885 -0.5996
19973TIP3   OH281409   2.542   3.922   3.420  0.2252 -0.6030  0.5151
19973TIP3    H181410   2.605   3.933   3.491 -0.6560  1.1827  1.0354
19973TIP3    H281411   2.472   3.869   3.457  1.0632 -2.0228  0.1323
19974TIP3   OH281412   6.110   4.627  15.526  0.6876  0.6200 -0.4808
19974TIP3    H181413   6.146   4.585  15.448  0.8500 -0.4396  0.1530
19974TIP3    H281414   6.162   4.592  15.599 -0.1969  0.7262  0.2172
19975TIP3   OH281415   1.264   1.641   2.577  0.1605  0.4527  0.4604
19975TIP3    H181416   1.196   1.575   2.589  0.2331  0.2188 -0.3627
19975TIP3    H281417   1.329   1.599   2.520  0.2516  1.1925  0.0004
19976TIP3   OH281418   2.894   3.409   2.674  0.1098  0.4094 -0.2225
19976TIP3    H181419   2.959   3.419   2.605 -0.7141  0.7350 -0.9744
19976TIP3    H281420   2.930   3.341   2.732  0.6948 -0.0592 -1.1146
19977TIP3   OH281421   4.277   3.046   0.898  0.0416  0.2129 -0.3560
19977TIP3    H181422   4.329   3.021   0.975 -0.6157 -0.3627 -0.0901
19977TIP3    H281423   4.194   3.076   0.935 -0.7130 -1.1594 -0.8865
19978TIP3   OH281424   0.211   5.398  15.809  0.3070  0.2018  0.0136
19978TIP3    H181425   0.195   5.490  15.833 -0.2077 -0.1559  1.0515
19978TIP3    H281426   0.258   5.362  15.884  0.6851 -0.3326 -0.4811
19979TIP3   OH281427   4.321   6.750   2.031  0.0977  0.1777 -1.3688
19979TIP3    H181428   4.392   6.696   2.067 -0.7694  0.1799  0.3905
19979TIP3    H281429   4.347   6.766   1.940  1.6028 -1.0931 -1.1852
19980TIP3   OH281430   0.282   2.418   0.601 -0.8058  0.1252  0.5881
19980TIP3    H181431   0.319   2.347   0.655 -2.2223 -2.2071 -1.3957
19980TIP3    H281432   0.203   2.445   0.649  0.1604  0.9625  1.7557
19981TIP3   OH281433   2.155   5.071  14.003  0.5069 -0.1924 -0.1480
19981TIP3    H181434   2.231   5.046  13.951  1.3474 -0.6786  1.2822
19981TIP3    H281435   2.155   5.167  14.001  0.5838 -0.2034 -0.9502
19982TIP3   OH281436   2.302   3.770   5.581  0.5520 -0.0998  0.3734
19982TIP3    H181437   2.223   3.747   5.533  0.2667  0.4431  0.5810
19982TIP3    H281438   2.315   3.863   5.564 -0.1297  0.3491  2.1880
19983TIP3   OH281439   1.676   5.163   4.684  0.0851 -0.4520  0.6885
19983TIP3    H181440   1.613   5.207   4.741  0.2789 -0.3144  0.7995
19983TIP3    H281441   1.645   5.180   4.595  1.8523  2.5937  0.5540
19984TIP3   OH281442   3.189   1.276  16.082 -0.1263  0.0160  0.0215
19984TIP3    H181443   3.194   1.216  16.008 -1.5756 -0.3804  0.2318
19984TIP3    H281444   3.136   1.230  16.147 -0.0310  0.9310  0.7537
19985TIP3   OH281445   0.968   4.466  10.922  0.4251 -0.2824 -0.5928
19985TIP3    H181446   0.986   4.559  10.911  0.6781 -0.0573  1.5073
19985TIP3    H281447   0.979   4.428  10.835  2.5395  1.2782 -1.0153
19986TIP3   OH281448   2.249   2.347  12.504 -0.2307 -0.4812  0.0704
19986TIP3    H181449   2.177   2.411  12.506  0.9483  0.9654 -1.6693
19986TIP3    H281450   2.285   2.355  12.415  0.1336 -3.3921 -0.0919
19987TIP3   OH281451   1.884   0.544  17.015  0.5410 -0.2765 -0.4640
19987TIP3    H181452   1.789   0.535  17.005  0.3137 -1.4814  2.1706
19987TIP3    H281453   1.900   0.638  17.013 -0.8596 -0.0160  0.0629
19988TIP3   OH281454   6.533   1.959   5.311 -0.0830 -0.1684  0.2252
19988TIP3    H181455   6.508   1.882   5.362 -1.7817 -0.0646 -0.3925
19988TIP3    H281456   6.621   1.980   5.341 -0.2616 -1.3111  1.6480
19989TIP3   OH281457   1.382   3.613   1.006 -0.4219 -0.2035 -0.2872
19989TIP3    H181458   1.408   3.657   0.926 -0.2256  1.6223  0.7477
19989TIP3    H281459   1.435   3.533   1.009  1.7154  1.1713 -0.5201
19990TIP3   OH281460   1.232   3.485  12.372  0.6135 -0.1131 -0.6169
19990TIP3    H181461   1.263   3.524  12.290 -0.8886  1.0739 -0.6560
19990TIP3    H281462   1.291   3.517  12.439 -0.1813  1.6848 -0.7612
19991TIP3   OH281463   0.120   3.514  12.257  0.1382 -0.4880  0.0816
19991TIP3    H181464   0.138   3.599  12.217 -0.2083 -0.6730 -0.4730
19991TIP3    H281465   0.201   3.464  12.246  0.1803 -0.3958 -0.0214
19992TIP3   OH281466   0.047   1.707  11.921 -0.0184  0.0718 -0.3473
19992TIP3    H181467   0.094   1.759  11.855  0.7340 -1.3974 -1.0151
19992TIP3    H281468  -0.042   1.699  11.886 -0.4880  1.9384  0.3752
19993TIP3   OH281469   6.760   0.099  16.887 -0.0443 -0.2654 -0.4754
19993TIP3    H181470   6.735   0.183  16.848 -0.1674 -0.8802 -1.7379
19993TIP3    H281471   6.692   0.082  16.952 -1.8900 -0.9949 -2.5411
19994TIP3   OH281472   4.681   4.979  15.103 -0.4444  0.7302  0.2326
19994TIP3    H181473   4.654   5.004  15.015  0.8283  0.1780 -0.3352
19994TIP3    H281474   4.765   5.024  15.117 -0.3490  0.3562  0.9307
19995TIP3   OH281475   6.514   6.382  16.941  0.0252 -0.0423  0.4317
19995TIP3    H181476   6.605   6.376  16.914  0.1149 -2.2938  1.0946
19995TIP3    H281477   6.513   6.448  17.010  1.0993  0.2626  0.1559
19996TIP3   OH281478   6.425   4.261  17.017 -0.0519  0.0856  0.1172
19996TIP3    H181479   6.440   4.352  17.042  1.4447 -0.5592  1.7393
19996TIP3    H281480   6.390   4.220  17.096  0.8758 -1.0966 -0.0592
19997TIP3   OH281481   4.321   2.792  16.417  0.2991 -0.0529 -0.3357
19997TIP3    H181482   4.279   2.830  16.494 -0.5567  0.5696 -1.1056
19997TIP3    H281483   4.410   2.829  16.418  0.1972  0.1826  0.1874
19998TIP3   OH281484   4.818   3.991   0.243  0.3452  0.2141  0.3824
19998TIP3    H181485   4.724   3.969   0.239  0.3540  0.4331 -1.2789
19998TIP3    H281486   4.845   3.996   0.152  1.9552  0.3149  0.8568
19999TIP3   OH281487   3.535   6.087   6.084  0.7507  0.0205  0.5175
19999TIP3    H181488   3.578   6.173   6.078  1.8336 -0.5460 -0.0587
19999TIP3    H281489   3.444   6.103   6.058  1.4202  0.6429 -1.5342
20000TIP3   OH281490   4.813   4.091  16.601  0.3254  0.1125  0.1981
20000TIP3    H181491   4.864   4.017  16.569  1.3496  0.5792  0.7127
20000TIP3    H281492   4.872   4.137  16.660 -0.6363  0.7738  0.6688
20001TIP3   OH281493   3.046   3.878  14.673  0.1570 -0.2237  0.1025
20001TIP3    H181494   3.060   3.944  14.604 -1.0129  1.4435  1.4210
20001TIP3    H281495   2.954   3.853  14.663  0.6835 -1.9598 -0.6081
20002TIP3   OH281496   6.478   6.610   3.220 -0.1987  0.4940  0.6423
20002TIP3    H181497   6.457   6.522   3.190  1.0876  0.1573  0.6871
20002TIP3    H281498   6.571   6.605   3.244  0.1888  2.1421 -0.4347
20003TIP3   OH281499   4.784   3.820   0.913  0.1482  0.2717  0.0741
20003TIP3    H181500   4.828   3.877   0.851 -3.5165  1.6393 -1.3888
20003TIP3    H281501   4.786   3.734   0.872  1.1777  0.3632 -0.0840
20004TIP3   OH281502   0.478   2.149   2.303 -0.3542 -0.1722  0.2367
20004TIP3    H181503   0.529   2.215   2.256  0.8151 -2.5066 -1.9217
20004TIP3    H281504   0.544   2.098   2.351 -0.9439 -1.3774 -0.2091
20005TIP3   OH281505   1.785   6.171  15.491 -0.1231 -0.5617  0.1235
20005TIP3    H181506   1.723   6.165  15.419 -1.7299 -2.1478  1.5917
20005TIP3    H281507   1.786   6.083  15.529  3.5491 -0.7703 -0.2693
20006TIP3   OH281508   3.553   5.001  10.568  0.1882 -0.0002  0.5144
20006TIP3    H181509   3.613   4.985  10.495  1.5791  1.5488  1.2906
20006TIP3    H281510   3.512   4.916  10.585  1.6387 -0.9110 -0.5059
20007TIP3   OH281511   5.473   4.697   5.377  0.6118 -0.4046 -0.2121
20007TIP3    H181512   5.534   4.764   5.346  0.6299  0.8457  2.3724
20007TIP3    H281513   5.524   4.617   5.382  2.2973  0.7778  2.5828
20008TIP3   OH281514   2.440   5.180   0.832 -0.6530  0.0497 -0.1442
20008TIP3    H181515   2.369   5.125   0.801  0.8077 -1.7565 -0.3695
20008TIP3    H281516   2.510   5.119   0.854  0.7511  1.7658  0.2736
20009TIP3   OH281517   0.274   0.966  12.217  0.0468  0.2773 -0.1937
20009TIP3    H181518   0.292   0.972  12.123 -0.6340 -0.2839 -0.3684
20009TIP3    H281519   0.193   0.915  12.222  0.4098 -0.2094  0.7330
20010TIP3   OH281520   3.365   2.597   2.662 -0.6357 -0.4060 -0.4486
20010TIP3    H181521   3.403   2.672   2.616 -0.0984 -0.3829  0.0295
20010TIP3    H281522   3.439   2.556   2.707 -1.0161 -0.9169 -0.2829
20011TIP3   OH281523   6.524   0.111  13.774  0.1156  0.0538  0.0249
20011TIP3    H181524   6.479   0.027  13.787  0.5258 -0.3471 -1.0818
20011TIP3    H281525   6.470   0.157  13.709  0.5055  0.1767 -0.2135
20012TIP3   OH281526   3.994   0.569   6.473  0.1773  0.1696  0.0252
20012TIP3    H181527   3.966   0.479   6.492  0.8905 -0.5781 -2.1867
20012TIP3    H281528   4.071   0.583   6.528 -0.6654 -0.1172  1.2950
20013TIP3   OH281529   3.556   4.244  16.279  0.4149 -0.4184  0.4331
20013TIP3    H181530   3.586   4.254  16.189  0.0423 -0.5245  0.2973
20013TIP3    H281531   3.576   4.153  16.301  1.4521 -0.1048  0.8093
20014TIP3   OH281532   1.734   5.685   4.208 -0.8657  0.0873 -0.4130
20014TIP3    H181533   1.650   5.717   4.174 -1.0749 -1.9254 -1.8703
20014TIP3    H281534   1.710   5.612   4.265 -0.0587 -0.9605 -1.4147
20015TIP3   OH281535   0.414   1.605  10.805 -0.1601 -0.1172  0.6750
20015TIP3    H181536   0.507   1.589  10.820  0.5510  2.4419 -0.6447
20015TIP3    H281537   0.395   1.685  10.855 -1.3703  0.0173  0.0247
20016TIP3   OH281538   5.017   0.519   2.989 -0.1209 -0.0347 -0.4013
20016TIP3    H181539   4.963   0.574   3.047 -0.0101 -1.4529  1.0677
20016TIP3    H281540   4.960   0.446   2.965 -0.4983  1.0537 -2.9207
20017TIP3   OH281541   0.070   4.630  15.544 -0.7054 -0.4590  0.1258
20017TIP3    H181542  -0.005   4.582  15.509  0.2410 -0.3103 -2.1982
20017TIP3    H281543   0.142   4.606  15.486  0.1279  2.5303 -0.1269
20018TIP3   OH281544   2.650   2.693  11.012  0.3318  0.0473  0.4282
20018TIP3    H181545   2.584   2.662  10.951  0.4549 -1.0073  0.8155
20018TIP3    H281546   2.701   2.756  10.962 -0.5197  0.3267 -0.0906
20019TIP3   OH281547   2.850   3.238  13.406  0.6855  0.0503  0.3412
20019TIP3    H181548   2.761   3.207  13.392  0.2235  0.9410  1.2292
20019TIP3    H281549   2.843   3.333  13.396  1.7703  0.0198 -0.7981
20020TIP3   OH281550   6.621   2.731   1.484  0.2529  0.3084 -0.2087
20020TIP3    H181551   6.703   2.700   1.447 -0.0619  0.5977 -1.1676
20020TIP3    H281552   6.647   2.794   1.551  0.8988 -1.7851  1.6092
20021TIP3   OH281553   6.418   4.065   4.771 -0.1915  0.1261 -0.0974
20021TIP3    H181554   6.498   4.117   4.776 -1.0637  1.5356 -0.5274
20021TIP3    H281555   6.402   4.054   4.677 -1.1081  0.7949 -0.0224
20022TIP3   OH281556   2.911   1.503  15.883  0.7055  0.6879 -0.3048
20022TIP3    H181557   2.902   1.585  15.932  0.7151  0.6990 -0.3208
20022TIP3    H281558   2.858   1.517  15.804 -0.9554 -0.1021  0.6543
20023TIP3   OH281559   6.323   2.615  16.350 -0.8974 -0.3887 -0.2742
20023TIP3    H181560   6.415   2.622  16.322 -0.6172  0.7917  0.8749
20023TIP3    H281561   6.313   2.523  16.373  0.1743 -0.4286  0.1029
20024TIP3   OH281562   4.475   0.694  14.454 -0.2809  0.1830  0.4643
20024TIP3    H181563   4.481   0.603  14.424  1.2754  1.1175 -2.2540
20024TIP3    H281564   4.566   0.723  14.460 -0.7786  1.7549  0.6390
20025TIP3   OH281565   5.931   2.097  12.020  0.4236  0.3267  0.3836
20025TIP3    H181566   5.982   2.166  12.061 -0.8838  2.0286 -0.7683
20025TIP3    H281567   5.883   2.141  11.950  1.0786 -2.1176 -1.6901
20026TIP3   OH281568   4.829   6.801  12.825  0.2033 -0.1527  0.2432
20026TIP3    H181569   4.902   6.810  12.764 -0.4448  0.4270 -0.4508
20026TIP3    H281570   4.783   6.885  12.821 -0.3509 -0.4175  0.8758
20027TIP3   OH281571   5.139   3.481   1.585  0.4475 -0.6919  0.1649
20027TIP3    H181572   5.181   3.525   1.659  0.5896  0.4024 -0.5510
20027TIP3    H281573   5.167   3.390   1.592  2.2958 -0.1372  0.1512
20028TIP3   OH281574   3.101   2.600   6.517  0.3071 -0.4559 -0.5019
20028TIP3    H181575   3.145   2.515   6.512  1.0609 -0.0708 -0.5090
20028TIP3    H281576   3.147   2.646   6.588  2.1431  1.2089 -2.6727
20029TIP3   OH281577   5.997   2.471   5.165  0.5016 -0.2666  0.3693
20029TIP3    H181578   5.921   2.413   5.168  0.8252 -0.7989 -1.0977
20029TIP3    H281579   5.981   2.526   5.088  1.7449 -0.6183 -0.1611
20030TIP3   OH281580   0.051   2.110   2.463  0.5153  0.2314 -0.3674
20030TIP3    H181581   0.021   2.082   2.549  0.5082 -0.2812 -0.5356
20030TIP3    H281582  -0.028   2.134   2.416  0.2930 -1.5941 -0.9824
20031TIP3   OH281583   5.921   5.848   1.346 -0.2639  0.4362 -0.2164
20031TIP3    H181584   5.997   5.854   1.288  0.3549 -1.4881  0.3707
20031TIP3    H281585   5.957   5.852   1.434 -0.6589 -2.2157  0.0883
20032TIP3   OH281586   5.550   5.724  11.880 -0.2869 -0.0512  0.2628
20032TIP3    H181587   5.640   5.749  11.858 -1.3401  1.5839 -2.4211
20032TIP3    H281588   5.524   5.664  11.811 -1.2672 -0.5491  1.0417
20033TIP3   OH281589   4.021   3.769  12.203  0.7206  0.2921 -0.0728
20033TIP3    H181590   3.988   3.737  12.287  0.9957  1.5725  0.5397
20033TIP3    H281591   3.954   3.832  12.175  0.4670 -0.3851 -0.9713
20034TIP3   OH281592   0.339   3.635   3.033  0.2686 -0.0415 -0.4947
20034TIP3    H181593   0.282   3.673   3.099 -0.5550 -1.2808 -0.4612
20034TIP3    H281594   0.420   3.685   3.038  0.4847 -0.5886  1.9604
20035TIP3   OH281595   1.092   0.139  14.535  0.2581  0.5420  0.2582
20035TIP3    H181596   1.124   0.087  14.461 -1.4201 -0.3109  0.1065
20035TIP3    H281597   1.099   0.230  14.506 -1.6863  0.1632 -1.5102
20036TIP3   OH281598   6.034   6.482   4.581 -0.2395 -0.3728 -0.1121
20036TIP3    H181599   6.038   6.459   4.674  0.9692  1.0837  0.2188
20036TIP3    H281600   5.940   6.495   4.563 -0.3394  1.0023  1.3334
20037TIP3   OH281601   0.625   0.197  12.724  0.0296  0.1077 -0.4612
20037TIP3    H181602   0.689   0.201  12.652 -0.4857  2.7911 -0.8309
20037TIP3    H281603   0.670   0.149  12.793  2.0336  0.9120 -1.1641
20038TIP3   OH281604   3.702   4.005   3.881 -0.1879  0.7504  0.5471
20038TIP3    H181605   3.628   4.051   3.841 -0.5732  0.3012  0.7335
20038TIP3    H281606   3.672   3.983   3.969  0.4598  1.2552  0.8960
20039TIP3   OH281607   4.508   0.692   3.814 -0.9380 -0.4663  0.0265
20039TIP3    H181608   4.537   0.714   3.725  2.2511 -0.4266  1.0292
20039TIP3    H281609   4.503   0.776   3.859  0.3851 -0.7659  0.7307
20040TIP3   OH281610   5.440   2.652   4.967 -0.3240 -0.5007  0.5059
20040TIP3    H181611   5.458   2.661   5.060 -0.4193 -0.2699  0.5017
20040TIP3    H281612   5.527   2.651   4.926 -0.3194  0.6877  0.4784
20041TIP3   OH281613   6.450   4.860  15.585  0.1507 -0.1763  0.2003
20041TIP3    H181614   6.490   4.790  15.636 -0.4078 -0.1004  0.7549
20041TIP3    H281615   6.514   4.931  15.587 -0.0791  0.0162  1.2513
20042TIP3   OH281616   2.012   3.883  13.621 -0.1699  0.3967  0.3276
20042TIP3    H181617   1.964   3.964  13.640 -1.0507  0.0054 -0.2102
20042TIP3    H281618   2.003   3.871  13.527  1.1324  0.3971  0.1923
20043TIP3   OH281619   6.063   1.487   5.779  0.8234 -0.0430  0.1205
20043TIP3    H181620   6.036   1.486   5.687  0.9201 -0.2689  0.0942
20043TIP3    H281621   6.052   1.578   5.806  1.0271  0.0709 -0.1810
20044TIP3   OH281622   0.441   5.212  14.293  0.3373 -1.2550  0.0719
20044TIP3    H181623   0.353   5.211  14.330 -0.2291 -0.9596 -1.2382
20044TIP3    H281624   0.469   5.303  14.301 -0.5800 -0.7705 -2.0378
20045TIP3   OH281625   5.146   0.174   4.661  0.1431  0.2621  0.4352
20045TIP3    H181626   5.124   0.100   4.718  0.8701  0.0967  0.5008
20045TIP3    H281627   5.084   0.242   4.686 -1.0603 -0.5961 -0.1889
20046TIP3   OH281628   1.348   3.194  16.868  1.0809 -0.5760 -0.2854
20046TIP3    H181629   1.398   3.233  16.797 -0.2518 -0.8348 -1.3988
20046TIP3    H281630   1.362   3.252  16.943  1.6293  0.2959 -1.0602
20047TIP3   OH281631   5.622   5.675  12.277 -0.1799 -0.1338 -0.1266
20047TIP3    H181632   5.544   5.655  12.225 -0.5233  1.7039 -0.3353
20047TIP3    H281633   5.587   5.706  12.361  0.3413  0.6086 -0.1854
20048TIP3   OH281634   1.191   1.530  15.720  0.5038  0.0723 -0.1141
20048TIP3    H181635   1.213   1.469  15.650 -2.2594 -0.9389 -0.1845
20048TIP3    H281636   1.183   1.614  15.676  0.1552 -0.3011 -0.7839
20049TIP3   OH281637   5.439   0.098   5.123  0.8073  0.2039 -0.2941
20049TIP3    H181638   5.523   0.145   5.132  1.5123 -1.1277  0.1827
20049TIP3    H281639   5.382   0.160   5.078  1.6563  1.6207  0.5356
20050TIP3   OH281640   2.961   3.686   3.008 -0.4162 -0.1562 -0.8315
20050TIP3    H181641   2.989   3.734   2.930 -0.1681  0.0983 -0.5863
20050TIP3    H281642   2.882   3.638   2.980 -0.8072  0.5859 -1.0038
20051TIP3   OH281643   5.990   2.012  13.146 -0.1244  0.0115 -0.2050
20051TIP3    H181644   5.947   1.975  13.070 -0.7258 -0.2692  0.2730
20051TIP3    H281645   5.939   2.091  13.168  0.2875  0.3193 -0.3389
20052TIP3   OH281646   1.704   4.694   6.597  0.0015 -0.1425  0.0133
20052TIP3    H181647   1.710   4.599   6.604  3.1830 -0.0172 -0.1485
20052TIP3    H281648   1.722   4.726   6.686 -1.7754  0.2988  0.2245
20053TIP3   OH281649   3.376   2.058  13.556  0.4313 -0.2399  0.6088
20053TIP3    H181650   3.330   2.076  13.638 -0.0618 -0.6303  0.4298
20053TIP3    H281651   3.399   1.965  13.562  1.2273 -0.0396  0.7053
20054TIP3   OH281652   6.126   1.951  11.767  0.0411  0.2340  0.0249
20054TIP3    H181653   6.111   2.037  11.727  1.0061 -0.0698 -1.0144
20054TIP3    H281654   6.118   1.967  11.861 -0.2637  1.3673 -0.1821
20055TIP3   OH281655   1.020   5.861  16.068 -0.6241  0.8745 -0.4447
20055TIP3    H181656   1.096   5.865  16.010 -0.4522  1.1483 -0.2019
20055TIP3    H281657   1.050   5.809  16.143 -0.6433  1.0774 -0.2966
20056TIP3   OH281658   6.485   3.940   5.306 -0.0385  0.2593 -0.3526
20056TIP3    H181659   6.399   3.951   5.266  0.2316 -0.7821 -1.2598
20056TIP3    H281660   6.545   3.936   5.232  0.5579 -0.9624  0.1840
20057TIP3   OH281661   4.998   5.258   1.338 -0.0874 -0.2190 -0.3224
20057TIP3    H181662   4.912   5.244   1.298 -0.6710  0.6808  0.6114
20057TIP3    H281663   5.039   5.171   1.336 -1.0265 -0.6640 -0.7272
20058TIP3   OH281664   5.743   6.055   2.859  0.4195  0.3194  0.0330
20058TIP3    H181665   5.820   6.102   2.829  0.6374 -0.2540 -0.2883
20058TIP3    H281666   5.722   6.097   2.943  2.2490 -0.8311  1.0974
20059TIP3   OH281667   4.498   1.440   1.323 -0.1890  0.9122 -0.3683
20059TIP3    H181668   4.488   1.345   1.318  1.1272  0.5905  2.3842
20059TIP3    H281669   4.425   1.470   1.376 -0.2588  1.3659 -0.7183
20060TIP3   OH281670   4.242   2.644  11.574 -0.0502 -0.9791  0.3910
20060TIP3    H181671   4.186   2.575  11.609  0.6940 -2.0921 -0.5723
20060TIP3    H281672   4.293   2.601  11.505  0.2298  0.5943 -0.4110
20061TIP3   OH281673   1.805   1.492  13.822 -0.1520 -0.3009  0.0046
20061TIP3    H181674   1.888   1.448  13.840  1.4414  2.8725  0.8548
20061TIP3    H281675   1.810   1.516  13.729 -0.6482 -1.1305 -0.2430
20062TIP3   OH281676   6.618   3.266  11.283  0.0603  0.4307 -0.2130
20062TIP3    H181677   6.696   3.266  11.228 -0.6623  0.3867 -1.2527
20062TIP3    H281678   6.626   3.187  11.336 -0.4766 -0.9030 -2.0628
20063TIP3   OH281679   2.270   5.860   0.702 -0.7465  0.5601  0.0373
20063TIP3    H181680   2.271   5.793   0.634  1.0816 -0.5581  1.1045
20063TIP3    H281681   2.317   5.820   0.775 -0.5687  2.6179  1.0862
20064TIP3   OH281682   5.263   1.397  16.582  0.3758 -0.4177 -0.7008
20064TIP3    H181683   5.243   1.344  16.505 -3.6973 -0.5491  0.3171
20064TIP3    H281684   5.244   1.339  16.656  1.2052  0.6996  0.3963
20065TIP3   OH281685   0.964   4.432  15.858  0.0543 -0.3399  0.7611
20065TIP3    H181686   1.021   4.373  15.809  0.6149  0.2291  0.7167
20065TIP3    H281687   1.009   4.445  15.941  1.1022  1.8292 -0.0980
20066TIP3   OH281688   6.780   3.742  12.786 -0.2789 -0.3878 -0.5494
20066TIP3    H181689   6.868   3.712  12.809 -0.4229 -1.0253 -0.7980
20066TIP3    H281690   6.733   3.661  12.764 -0.4608  0.0832 -1.9696
20067TIP3   OH281691   1.151   0.774  16.946  0.3029  0.5217 -0.3652
20067TIP3    H181692   1.105   0.756  17.028  3.2186 -1.1842  0.9672
20067TIP3    H281693   1.091   0.744  16.877 -1.3073  0.0323  1.2201
20068TIP3   OH281694   3.771   1.743  13.519  0.1136  0.1387  0.1195
20068TIP3    H181695   3.687   1.767  13.479 -0.5332 -0.0825  1.3321
20068TIP3    H281696   3.797   1.662  13.475 -1.5482 -1.1715  1.4729
20069TIP3   OH281697   1.330   6.652  15.523 -0.5297 -1.0354  0.3277
20069TIP3    H181698   1.403   6.598  15.552  0.7416  2.0070  3.1910
20069TIP3    H281699   1.366   6.703  15.450  0.2725  0.4654  1.7387
20070TIP3   OH281700   5.714   2.664   1.758 -0.3158 -0.1179  0.2717
20070TIP3    H181701   5.765   2.657   1.839  0.3886  0.4212 -0.1166
20070TIP3    H281702   5.694   2.573   1.734 -1.3190 -0.2446  1.5353
20071TIP3   OH281703   0.282   1.840   4.035  0.0460 -0.1922 -0.0269
20071TIP3    H181704   0.188   1.859   4.039  0.0595 -0.2902  0.7885
20071TIP3    H281705   0.316   1.868   4.120  0.9454  0.8200 -0.7101
20072TIP3   OH281706   5.430   5.466   4.737  0.3279  0.1030 -0.1693
20072TIP3    H181707   5.469   5.540   4.690  0.8430 -1.0002 -1.5148
20072TIP3    H281708   5.339   5.463   4.707  0.5369 -0.3226 -0.7814
20073TIP3   OH281709   6.727   3.123  15.389  0.2240 -0.0057 -0.1913
20073TIP3    H181710   6.752   3.095  15.477 -1.4178 -0.2474  0.2099
20073TIP3    H281711   6.777   3.204  15.375  1.4703 -0.6442  0.4335
20074TIP3   OH281712   1.462   4.644  14.225 -0.6510  0.5673 -0.5207
20074TIP3    H181713   1.448   4.706  14.296 -1.6374  0.5431 -0.6797
20074TIP3    H281714   1.555   4.623  14.229 -0.0761  2.9049 -1.1825
20075TIP3   OH281715   6.576   6.230   4.967 -0.0425  0.5227  0.0903
20075TIP3    H181716   6.483   6.247   4.977 -1.1896 -4.0406 -1.6681
20075TIP3    H281717   6.597   6.260   4.878 -0.6093 -1.2870 -0.6763
20076TIP3   OH281718   0.472   6.511  14.659 -0.1584 -0.3559  0.2730
20076TIP3    H181719   0.536   6.576  14.630 -1.3611  0.1428 -1.3509
20076TIP3    H281720   0.445   6.540  14.746  1.2620 -0.1513  0.6468
20077TIP3   OH281721   1.219   2.119  12.168  0.0405 -0.2314 -0.0625
20077TIP3    H181722   1.254   2.030  12.164 -1.1836 -0.7259 -0.1283
20077TIP3    H281723   1.293   2.174  12.193  0.8464 -1.2474 -0.2151
20078TIP3   OH281724   3.604   1.367  14.232 -1.1728 -0.3221  0.0580
20078TIP3    H181725   3.569   1.417  14.306  2.0115  1.6326  0.3132
20078TIP3    H281726   3.672   1.312  14.270 -1.9385 -1.9266 -0.8662
20079TIP3   OH281727   1.500   5.888   3.610  0.2511 -0.0662  0.0689
20079TIP3    H181728   1.584   5.935   3.609 -0.2721  0.8872 -0.0340
20079TIP3    H281729   1.514   5.813   3.553  0.7445  0.6137 -0.7178
20080TIP3   OH281730   5.765   1.468   5.963  0.1315  0.0115  0.3655
20080TIP3    H181731   5.804   1.394   5.916 -0.8747 -0.7072  0.6546
20080TIP3    H281732   5.713   1.513   5.897 -1.2171 -0.9521  0.7589
20081TIP3   OH281733   1.749   3.638  11.102 -0.6565  0.3579 -1.0487
20081TIP3    H181734   1.705   3.598  11.026  0.0988  0.5489 -1.5936
20081TIP3    H281735   1.791   3.564  11.146  0.7534  0.5371 -2.0643
20082TIP3   OH281736   2.348   5.013   2.753  0.0181  0.3476  0.1025
20082TIP3    H181737   2.265   5.032   2.709  0.3686  1.7072 -0.0114
20082TIP3    H281738   2.327   4.946   2.817 -0.9320 -0.1533 -0.7197
20083TIP3   OH281739   1.768   5.758  13.048  0.1995 -0.0699  0.0582
20083TIP3    H181740   1.837   5.752  13.115  0.0335  0.3546  0.2711
20083TIP3    H281741   1.782   5.843  13.007  1.3888 -1.0657 -1.6617
20084TIP3   OH281742   3.824   6.067  13.369  0.5118 -0.2325  0.3081
20084TIP3    H181743   3.767   5.991  13.365 -1.5710  1.2244  1.2780
20084TIP3    H281744   3.907   6.033  13.402 -0.6917 -1.9424  1.6654
20085TIP3   OH281745   1.017   1.995   0.609 -0.6542  0.3684  0.3321
20085TIP3    H181746   0.941   1.973   0.555 -1.7667  1.0671  1.5704
20085TIP3    H281747   1.001   2.086   0.637  0.5524  0.4636  0.7413
20086TIP3   OH281748   4.357   6.623  15.496  0.4619  0.0271 -0.6129
20086TIP3    H181749   4.385   6.650  15.583 -2.4421  1.4572 -0.0601
20086TIP3    H281750   4.438   6.607  15.448  2.1245  1.3408  1.6937
20087TIP3   OH281751   2.286   2.390  11.428  0.3042 -0.3396  0.0282
20087TIP3    H181752   2.270   2.482  11.406  0.9502 -0.2754 -0.1913
20087TIP3    H281753   2.246   2.378  11.515  0.9603  0.3689  0.4303
20088TIP3   OH281754   2.451   4.964   1.186 -0.0558 -0.0525 -0.7429
20088TIP3    H181755   2.455   4.937   1.094  0.3283 -0.9781 -0.4617
20088TIP3    H281756   2.539   4.948   1.219  0.0740  1.2246 -0.4712
20089TIP3   OH281757   3.446   1.510  12.612  0.0171  0.1304  0.1264
20089TIP3    H181758   3.466   1.524  12.519  0.4955  1.0285  0.3587
20089TIP3    H281759   3.422   1.597  12.645 -0.9000 -0.3257  0.6642
20090TIP3   OH281760   4.656   6.118  11.031  0.2322 -0.3508  0.4489
20090TIP3    H181761   4.710   6.144  10.956 -0.6172 -0.7089 -0.2874
20090TIP3    H281762   4.704   6.044  11.070  0.4627 -0.4285  0.0207
20091TIP3   OH281763   4.942   6.103   3.914  0.2000  0.3140 -0.3601
20091TIP3    H181764   5.021   6.129   3.961  0.5290 -1.9259  0.3742
20091TIP3    H281765   4.967   6.107   3.822  0.5537  1.4864 -0.2295
20092TIP3   OH281766   1.191   2.443   2.154 -0.1958 -0.0425 -0.3233
20092TIP3    H181767   1.106   2.487   2.144  0.4910  1.3626 -0.0869
20092TIP3    H281768   1.220   2.428   2.064 -1.2122 -1.5887 -0.4175
20093TIP3   OH281769   2.637   1.190  17.283  0.1340 -0.0370  0.3879
20093TIP3    H181770   2.655   1.116  17.226 -0.9731 -0.0315  0.0236
20093TIP3    H281771   2.717   1.243  17.280  0.6132 -0.7862 -0.0037
20094TIP3   OH281772   5.145   6.530  15.700  1.0142  0.2692 -0.3469
20094TIP3    H181773   5.136   6.440  15.670  1.5176 -0.5955  2.0486
20094TIP3    H281774   5.235   6.554  15.675  1.5253 -0.5392  0.7030
20095TIP3   OH281775   0.504   1.705  14.430 -0.1756  0.2671 -0.1726
20095TIP3    H181776   0.546   1.776  14.380  0.0971 -0.0072 -0.3345
20095TIP3    H281777   0.427   1.681  14.377 -1.1797  1.5219  0.6686
20096TIP3   OH281778   2.732   5.845  11.182 -0.2232  0.3667  0.2956
20096TIP3    H181779   2.806   5.839  11.121  0.1824 -0.5370  0.8625
20096TIP3    H281780   2.702   5.935  11.174  3.0223  1.7166  2.4660
20097TIP3   OH281781   6.325   6.339   4.989 -0.4962  0.2876  0.7700
20097TIP3    H181782   6.250   6.279   4.990 -0.6772  0.5171  1.3522
20097TIP3    H281783   6.289   6.422   4.959 -1.0771  1.1510  3.6972
20098TIP3   OH281784   6.136   3.088   1.315 -0.3390  0.6348  0.1060
20098TIP3    H181785   6.189   3.115   1.391 -2.5070  0.7361  1.6294
20098TIP3    H281786   6.053   3.060   1.353 -1.0952 -0.3124 -2.1793
20099TIP3   OH281787   1.649   4.301  11.649 -0.0502 -0.3583 -0.5644
20099TIP3    H181788   1.604   4.267  11.727 -0.4133  1.1023 -0.1172
20099TIP3    H281789   1.741   4.277  11.661 -0.2171 -0.7114 -0.0038
20100TIP3   OH281790   1.414   2.857  15.117  0.9058  0.1995  0.8194
20100TIP3    H181791   1.439   2.913  15.044  0.9375 -0.1400  0.5683
20100TIP3    H281792   1.324   2.830  15.098  1.5237 -1.3493 -0.0214
20101TIP3   OH281793   5.541   6.036   2.181  0.0427 -0.6640 -0.6878
20101TIP3    H181794   5.605   5.966   2.172  0.9453  0.0555  0.1154
20101TIP3    H281795   5.465   5.994   2.222  1.2630 -0.7793  1.4910
20102TIP3   OH281796   0.236   5.586   4.714  0.1789 -0.0417  0.0044
20102TIP3    H181797   0.295   5.577   4.639 -2.3291  1.6993 -2.2793
20102TIP3    H281798   0.187   5.504   4.716 -0.4074  0.2706 -0.9103
20103TIP3   OH281799   1.182   1.931   4.948 -0.2881  0.0246 -0.2060
20103TIP3    H181800   1.272   1.925   4.979  1.0375 -1.4251 -4.0174
20103TIP3    H281801   1.148   1.842   4.957 -1.3794  0.5821  1.2828
20104TIP3   OH281802   4.512   0.922  16.169  0.4806 -0.2301  0.0077
20104TIP3    H181803   4.527   0.936  16.262  2.2392 -0.6019 -0.1981
20104TIP3    H281804   4.553   0.998  16.126 -1.6249  0.7075 -0.3921
20105TIP3   OH281805   1.810   1.128   4.437  0.1768 -0.2588 -0.0880
20105TIP3    H181806   1.722   1.137   4.401 -0.0209  1.2368  0.7165
20105TIP3    H281807   1.852   1.212   4.419  0.5791 -0.0410  1.7263
20106TIP3   OH281808   2.432   3.291  15.666 -0.0697  0.4115 -0.0017
20106TIP3    H181809   2.435   3.198  15.643  0.1472  0.2590  0.6457
20106TIP3    H281810   2.339   3.313  15.661 -0.5551 -0.6921  3.1757
20107TIP3   OH281811   5.888   4.213  13.437  0.4685  0.2778 -0.5692
20107TIP3    H181812   5.832   4.278  13.394  0.0320  0.3815  0.1440
20107TIP3    H281813   5.860   4.130  13.399 -0.2993  0.3121 -0.0870
20108TIP3   OH281814   1.518   5.398  15.925  0.3935 -0.0899 -0.6000
20108TIP3    H181815   1.437   5.433  15.960 -0.3039  0.0154 -2.2686
20108TIP3    H281816   1.581   5.407  15.996 -0.6022  1.4883  0.1140
20109TIP3   OH281817   5.558   0.364  12.342 -0.4415 -0.0781  0.2180
20109TIP3    H181818   5.486   0.339  12.284 -0.3917 -1.0282  0.5585
20109TIP3    H281819   5.519   0.426  12.404 -0.7551  0.0779 -0.1386
20110TIP3   OH281820   0.847   6.070   2.471 -0.0274  0.1137  0.0909
20110TIP3    H181821   0.850   5.977   2.450  1.4657  0.3306 -0.6614
20110TIP3    H281822   0.924   6.108   2.429  1.0837  1.1658  2.9313
20111TIP3   OH281823   5.708   3.311  15.697  0.4972 -0.0740  0.0011
20111TIP3    H181824   5.704   3.375  15.768 -2.5272 -1.5964  1.2844
20111TIP3    H281825   5.737   3.230  15.740 -1.4190 -1.0208 -0.4522
20112TIP3   OH281826   3.111   5.000   1.535 -0.4314 -0.3246  0.1862
20112TIP3    H181827   3.193   5.047   1.518 -0.4503 -0.6946 -0.9450
20112TIP3    H281828   3.100   4.942   1.460 -0.4183 -2.1475  1.5487
20113TIP3   OH281829   0.230   3.611   5.326  0.2122  0.2158  0.0093
20113TIP3    H181830   0.289   3.542   5.355 -1.9764 -1.4588  0.5913
20113TIP3    H281831   0.247   3.683   5.386  0.7678 -0.6779  0.9511
20114TIP3   OH281832   0.030   3.910  15.518  0.6049 -0.6482  0.1189
20114TIP3    H181833   0.124   3.891  15.514  0.1280 -3.0054 -0.7632
20114TIP3    H281834   0.012   3.921  15.611  1.3341 -2.5267  0.5057
20115TIP3   OH281835   1.993   2.592   1.105 -0.5667 -0.3268 -0.3063
20115TIP3    H181836   2.051   2.668   1.101 -0.6893 -0.2954 -1.9499
20115TIP3    H281837   1.960   2.591   1.195 -0.0326  1.1560 -0.0857
20116TIP3   OH281838   2.752   6.777  15.968  0.1359  0.4532 -0.0909
20116TIP3    H181839   2.736   6.695  16.015  0.5668 -0.2267 -1.1190
20116TIP3    H281840   2.808   6.752  15.894 -2.1792  1.1672 -2.1258
20117TIP3   OH281841   0.467   1.719   1.566  0.1951 -0.0977 -0.1516
20117TIP3    H181842   0.391   1.691   1.515  0.9181  0.4166 -1.5477
20117TIP3    H281843   0.474   1.654   1.636 -0.3212 -1.3027 -1.1904
20118TIP3   OH281844   3.768   5.985   1.040 -0.3601  0.5946  0.4375
20118TIP3    H181845   3.733   6.026   0.961  1.4114  0.8722 -0.2353
20118TIP3    H281846   3.776   5.892   1.018  1.0247  0.8149 -0.0769
20119TIP3   OH281847   4.236   3.121   1.530 -0.5918  0.4177  0.2159
20119TIP3    H181848   4.314   3.075   1.500 -1.9650 -0.8929 -1.4731
20119TIP3    H281849   4.269   3.190   1.587  1.6787 -1.2522  1.0054
20120TIP3   OH281850   2.934   0.952   0.672  0.0083 -0.0595  0.4034
20120TIP3    H181851   2.849   0.942   0.714 -0.4410  1.1020 -0.2053
20120TIP3    H281852   2.987   0.880   0.707 -1.6434 -1.6375 -0.2862
20121TIP3   OH281853   4.683   5.939   0.379 -0.8719  0.3816 -0.9842
20121TIP3    H181854   4.767   5.953   0.336 -0.3254  0.8646  0.2051
20121TIP3    H281855   4.642   6.025   0.382  0.4546  0.9836  2.1747
20122TIP3   OH281856   3.058   5.286  16.826  0.0221 -0.3955  0.2036
20122TIP3    H181857   3.061   5.355  16.760 -1.4082 -1.5839 -1.1450
20122TIP3    H281858   3.039   5.332  16.908  0.2164  0.9251 -0.4745
20123TIP3   OH281859   0.819   5.094  16.222  0.1491 -0.7170 -0.1119
20123TIP3    H181860   0.895   5.049  16.257 -0.1879 -0.6867  0.6532
20123TIP3    H281861   0.800   5.164  16.285 -0.9291 -1.1527  0.0624
20124TIP3   OH281862   2.047   5.446  12.205  0.4914  0.2576  0.9672
20124TIP3    H181863   2.074   5.479  12.290  2.3671  0.3367  0.3645
20124TIP3    H281864   2.092   5.503  12.142 -0.6583  0.0364 -0.0701
20125TIP3   OH281865   6.305   0.911  13.590 -0.1223  0.1226 -0.0745
20125TIP3    H181866   6.393   0.878  13.608 -0.9363 -1.5144  1.0132
20125TIP3    H281867   6.271   0.937  13.676  0.2499  3.3127 -0.8121
20126TIP3   OH281868   2.707   5.652  10.622 -0.2487  0.1026  0.1116
20126TIP3    H181869   2.725   5.713  10.693 -0.8740  0.5558 -0.1197
20126TIP3    H281870   2.787   5.653  10.569 -0.2816  0.7728  0.0712
20127TIP3   OH281871   0.887   2.490  16.329  0.1762  0.2932 -0.0360
20127TIP3    H181872   0.878   2.395  16.329  2.4460  0.0467  1.1905
20127TIP3    H281873   0.850   2.518  16.245  0.3212 -1.7479 -0.7874
20128TIP3   OH281874   5.374   0.089  12.031  0.2911 -0.1275  0.0596
20128TIP3    H181875   5.297   0.076  11.976 -0.7138 -0.2037  1.4652
20128TIP3    H281876   5.377   0.013  12.088 -0.5321  1.4348  2.2701
20129TIP3   OH281877   2.436   3.895   5.175  0.3140 -0.4060  0.6087
20129TIP3    H181878   2.453   3.969   5.233 -3.0178  1.9611 -1.2832
20129TIP3    H281879   2.345   3.872   5.190  0.3119 -1.8498 -1.3348
20130TIP3   OH281880   5.880   5.541  13.301  0.1796 -0.3637  0.2288
20130TIP3    H181881   5.963   5.588  13.293 -1.1393  2.2747  1.3429
20130TIP3    H281882   5.822   5.603  13.346 -2.0660 -2.5618  0.4594
20131TIP3   OH281883   0.006   0.837   3.524  0.0298 -0.1373 -0.6144
20131TIP3    H181884  -0.031   0.895   3.590 -1.1773  1.3390 -2.5424
20131TIP3    H281885   0.073   0.890   3.481  0.9054 -1.1411 -0.5300
20132TIP3   OH281886   0.505   0.868  14.232  0.2783  0.4023  0.7459
20132TIP3    H181887   0.544   0.946  14.193 -1.9414  0.9303 -0.5014
20132TIP3    H281888   0.499   0.888  14.325  1.3631  0.9856  0.7008
20133TIP3   OH281889   3.241   3.208  15.674 -0.2720  0.0966  0.1209
20133TIP3    H181890   3.215   3.117  15.659 -2.0142  0.8877 -1.8631
20133TIP3    H281891   3.166   3.260  15.644 -0.2852  2.1378  3.5074
20134TIP3   OH281892   0.498   2.499   5.144  0.4609  0.5691 -0.4704
20134TIP3    H181893   0.526   2.409   5.126 -0.5101  0.6252 -2.4732
20134TIP3    H281894   0.501   2.507   5.239  3.5472 -0.6094 -0.3873
20135TIP3   OH281895   2.668   5.866   3.543  0.4486 -0.0042  0.6241
20135TIP3    H181896   2.753   5.848   3.502  0.0367  0.9863 -0.7149
20135TIP3    H281897   2.680   5.949   3.589  0.0994  0.3748  0.0493
20136TIP3   OH281898   1.321   5.639  17.191  0.0879 -0.5224 -0.2727
20136TIP3    H181899   1.391   5.609  17.134 -0.1753  0.6826 -1.2512
20136TIP3    H281900   1.262   5.688  17.133 -1.3550 -1.2042  0.6064
20137TIP3   OH281901   6.805   3.752  14.503 -0.3718  0.4192  0.5377
20137TIP3    H181902   6.829   3.775  14.593  0.7280 -0.0968  0.3816
20137TIP3    H281903   6.767   3.665  14.509 -1.4499  0.8838  0.6620
20138TIP3   OH281904   0.572   5.949   2.727 -0.3159  0.3644  0.6109
20138TIP3    H181905   0.544   5.942   2.818 -1.1265 -1.0663  0.2777
20138TIP3    H281906   0.493   5.927   2.676  0.4722 -0.1618 -0.3995
20139TIP3   OH281907   6.009   5.864   5.338  0.4727 -0.1339  0.1043
20139TIP3    H181908   6.027   5.845   5.246  1.4031  1.3217 -0.0378
20139TIP3    H281909   5.941   5.801   5.363 -1.4890  0.9654 -2.2347
20140TIP3   OH281910   5.260   1.070  12.956 -0.8580  0.0100  0.4460
20140TIP3    H181911   5.167   1.093  12.958 -0.9640 -0.4541  0.8739
20140TIP3    H281912   5.294   1.102  13.040 -0.9190 -1.0261  0.8704
20141TIP3   OH281913   2.856   4.460  12.544 -0.0766 -0.4863 -0.4811
20141TIP3    H181914   2.831   4.432  12.456 -1.5733  0.9845 -0.5305
20141TIP3    H281915   2.784   4.433  12.600  0.7321 -1.1363  0.2704
20142TIP3   OH281916   1.685   5.597   0.041  0.1390 -0.6334 -0.4124
20142TIP3    H181917   1.647   5.552  -0.035  0.0578 -0.7772 -0.2888
20142TIP3    H281918   1.621   5.663   0.064  0.8191  0.3667 -1.3481
20143TIP3   OH281919   5.604   5.028  12.038 -0.3560  0.8348  0.5076
20143TIP3    H181920   5.679   5.051  11.982 -0.1833  0.9596  0.7840
20143TIP3    H281921   5.640   4.965  12.101 -0.9413 -0.5463 -0.5249
20144TIP3   OH281922   3.821   2.674  13.135  0.4716 -0.2437 -0.3455
20144TIP3    H181923   3.810   2.633  13.049  1.0027 -1.0229 -0.0447
20144TIP3    H281924   3.746   2.643  13.186 -1.3381  2.3444 -1.3265
20145TIP3   OH281925   0.841   3.491  17.165 -0.0836  0.6220 -0.1880
20145TIP3    H181926   0.810   3.415  17.116 -0.1469  0.2953  0.3521
20145TIP3    H281927   0.878   3.549  17.099  1.6778 -0.7144 -0.4380
20146TIP3   OH281928   2.161   3.122   2.442  0.2434  0.1730 -0.0814
20146TIP3    H181929   2.140   3.191   2.379  1.4544  1.0116  0.4112
20146TIP3    H281930   2.211   3.059   2.391  0.8259  0.6258 -0.0822
20147TIP3   OH281931   1.459   2.945   3.990  0.7284 -0.2278 -0.4357
20147TIP3    H181932   1.518   2.937   3.914  0.7400  3.0176 -0.8602
20147TIP3    H281933   1.509   2.998   4.053 -0.1096 -1.1060  0.9775
20148TIP3   OH281934   1.239   2.838  11.655  0.1897 -0.0312  0.1970
20148TIP3    H181935   1.277   2.861  11.740  0.4967 -0.9006  0.2952
20148TIP3    H281936   1.168   2.901  11.643  0.5158  0.4677  0.8291
20149TIP3   OH281937   0.205   4.362   4.534  0.6052  0.1287  0.1521
20149TIP3    H181938   0.179   4.275   4.505  2.0313 -1.1590  2.6350
20149TIP3    H281939   0.144   4.383   4.605 -0.7378  1.8457 -1.4604
20150TIP3   OH281940   0.022   3.003   1.468 -0.0920  0.3939 -0.1831
20150TIP3    H181941   0.112   2.969   1.473 -0.9233 -1.7306  1.3386
20150TIP3    H281942   0.002   3.028   1.558 -1.5116 -0.4902 -0.2419
20151TIP3   OH281943   5.219   1.536  17.266 -0.5708  0.0801 -0.3027
20151TIP3    H181944   5.232   1.617  17.316  1.6124 -0.2835 -0.2352
20151TIP3    H281945   5.261   1.552  17.182  1.6517 -1.6269  0.4110
20152TIP3   OH281946   0.693   0.737  14.103  0.0463 -0.4443  0.6570
20152TIP3    H181947   0.632   0.797  14.145 -0.7240  0.0357 -1.1009
20152TIP3    H281948   0.709   0.669  14.169 -1.8261 -0.2091  1.3847
20153TIP3   OH281949   2.945   0.376  13.782  0.0034  0.7355  0.2889
20153TIP3    H181950   3.008   0.424  13.835  0.0249 -2.0625  2.9210
20153TIP3    H281951   2.991   0.296  13.757 -1.6290 -0.1539  0.0799
20154TIP3   OH281952   5.764   4.073   0.385 -0.2445 -0.1353 -0.1760
20154TIP3    H181953   5.846   4.102   0.427 -1.0143  0.2411  1.1167
20154TIP3    H281954   5.715   4.030   0.455 -1.0275 -0.6264 -1.0122
20155TIP3   OH281955   0.250   5.824  16.574  0.2860  0.0337  0.1061
20155TIP3    H181956   0.187   5.812  16.645 -1.9661  0.4465 -1.7523
20155TIP3    H281957   0.255   5.739  16.531  0.3435  0.2271 -0.2739
20156TIP3   OH281958   6.183   5.553   1.310 -0.2893  0.3737  0.1597
20156TIP3    H181959   6.095   5.565   1.348 -0.2747  0.8830  0.0361
20156TIP3    H281960   6.223   5.640   1.315  1.1368 -0.3814  2.5222
20157TIP3   OH281961   4.986   1.885  13.211 -0.1429 -0.4097  0.0680
20157TIP3    H181962   5.050   1.868  13.280 -0.0237 -0.4775 -0.0595
20157TIP3    H281963   4.910   1.831  13.236 -0.6952  0.7576  0.9811
20158TIP3   OH281964   1.467   1.278  11.723  0.6137 -0.3981 -0.2205
20158TIP3    H181965   1.520   1.201  11.702 -2.1212 -1.8185 -2.1987
20158TIP3    H281966   1.398   1.244  11.780 -0.3351  0.6765 -0.7098
20159TIP3   OH281967   6.403   2.784   2.024 -0.4296  0.1230  0.2150
20159TIP3    H181968   6.367   2.869   2.047 -0.4744 -0.1019  0.9721
20159TIP3    H281969   6.370   2.768   1.935 -2.5378 -0.2447  1.0350
20160TIP3   OH281970   2.197   3.545  14.155 -0.1124  0.1433  0.1248
20160TIP3    H181971   2.254   3.492  14.211  1.5218  0.6402 -1.0632
20160TIP3    H281972   2.182   3.491  14.078  0.8498  1.0313 -0.7030
20161TIP3   OH281973   4.006   0.847   4.788 -0.6027 -0.3054 -0.1239
20161TIP3    H181974   3.989   0.842   4.882 -0.7670  0.6276 -0.0976
20161TIP3    H281975   3.919   0.861   4.749 -0.5004 -0.4058 -0.3921
20162TIP3   OH281976   3.021   4.674   5.023 -0.0926 -0.0551 -0.2655
20162TIP3    H181977   3.105   4.632   5.002 -0.7851 -0.4084 -2.3603
20162TIP3    H281978   3.046   4.762   5.051  0.9254  0.1255 -1.6993
20163TIP3   OH281979   6.048   1.753  13.202 -0.7423 -0.5245 -0.1068
20163TIP3    H181980   6.027   1.846  13.198 -1.1559 -0.6084  0.0148
20163TIP3    H281981   6.098   1.743  13.283  1.0315 -0.0817 -1.1395
20164TIP3   OH281982   1.019   4.353  12.339  0.7077 -0.8916 -0.3146
20164TIP3    H181983   1.069   4.293  12.282  0.5833 -1.3408  0.0467
20164TIP3    H281984   1.053   4.337  12.427 -0.1164 -1.2489 -0.0582
20165TIP3   OH281985   4.440   1.806  13.081 -0.2323  0.1494  0.4210
20165TIP3    H181986   4.516   1.754  13.108 -0.8302 -1.5210 -0.9596
20165TIP3    H281987   4.396   1.830  13.162  0.4106 -0.9949  1.1188
20166TIP3   OH281988   3.147   1.165  11.977  0.4737  0.1947  0.3969
20166TIP3    H181989   3.233   1.200  12.001 -0.9312  1.9476  3.1734
20166TIP3    H281990   3.104   1.237  11.931 -0.1471 -0.0572  0.5778
20167TIP3   OH281991   3.462   4.562   3.665  0.9333 -0.7966  0.1252
20167TIP3    H181992   3.367   4.571   3.657  0.9956 -1.2178 -1.1274
20167TIP3    H281993   3.481   4.472   3.638  1.6508 -0.8582  0.7832
20168TIP3   OH281994   1.630   2.527  14.975 -0.0792 -0.8016  0.0914
20168TIP3    H181995   1.564   2.517  14.906  0.3057 -1.5428 -0.1744
20168TIP3    H281996   1.655   2.619  14.971 -0.8444 -0.5926 -0.0324
20169TIP3   OH281997   3.964   3.046  15.663  0.1273 -0.2161  0.5167
20169TIP3    H181998   4.035   3.081  15.716 -0.4578  0.4207  0.8802
20169TIP3    H281999   3.905   3.005  15.726 -0.0530 -0.3630  0.2528
20170TIP3   OH282000   2.906   6.253   6.300  0.1383 -0.1552 -0.6123
20170TIP3    H182001   2.968   6.290   6.363  0.4054 -0.8715 -0.4409
20170TIP3    H282002   2.855   6.327   6.269 -0.4376  0.1004  0.9425
20171TIP3   OH282003   0.606   2.046  12.728  0.6330 -0.1231  0.0320
20171TIP3    H182004   0.683   2.039  12.785 -0.0299 -0.6416  0.8837
20171TIP3    H282005   0.545   2.102  12.776 -0.0910 -0.8880  0.0257
20172TIP3   OH282006   1.758   2.920   0.279 -0.5033  0.2415 -0.0097
20172TIP3    H182007   1.677   2.972   0.280 -0.5647  0.1400  0.4604
20172TIP3    H282008   1.814   2.964   0.215 -0.8502  0.4339 -0.1853
20173TIP3   OH282009   6.246   0.370  12.902 -0.1716 -0.1428 -0.0329
20173TIP3    H182010   6.167   0.327  12.868 -1.1470  0.7696  1.0409
20173TIP3    H282011   6.217   0.457  12.929  1.2421  0.2682  0.2235
20174TIP3   OH282012   5.523   4.542   5.074  0.1846  0.3046  0.4097
20174TIP3    H182013   5.506   4.489   5.152 -1.6891  0.5415  0.1942
20174TIP3    H282014   5.601   4.593   5.096 -0.2188  0.2454  2.0698
20175TIP3   OH282015   2.602   6.651   1.322  0.0992 -0.7883 -0.1259
20175TIP3    H182016   2.687   6.617   1.350  0.4354  0.8863  0.9796
20175TIP3    H282017   2.621   6.741   1.295 -1.1139 -0.8048 -1.0224
20176TIP3   OH282018   2.469   0.198   1.235 -0.5183 -0.6672  0.5950
20176TIP3    H182019   2.561   0.172   1.231 -0.0380  1.1234 -0.8118
20176TIP3    H282020   2.463   0.254   1.312 -0.9741 -2.7753  2.0999
20177TIP3   OH282021   0.928   0.400   4.045 -0.5045 -0.1942  0.4362
20177TIP3    H182022   0.957   0.473   3.991 -0.7731  0.7713  1.5770
20177TIP3    H282023   1.003   0.341   4.048 -0.3904 -0.1207 -0.7409
20178TIP3   OH282024   0.376   4.814   5.131 -0.7566  0.3677  0.5733
20178TIP3    H182025   0.289   4.855   5.129 -2.7291 -3.4860  2.0551
20178TIP3    H282026   0.402   4.809   5.039 -3.9653 -2.0688 -0.2846
20179TIP3   OH282027   5.135   3.619   4.980 -0.5056  0.1957  0.1210
20179TIP3    H182028   5.194   3.544   4.986 -1.3007 -0.6452 -1.9432
20179TIP3    H282029   5.143   3.664   5.064  2.7159 -0.1637  0.0495
20180TIP3   OH282030   4.483   6.711  12.524  0.2230  0.1107 -0.0276
20180TIP3    H182031   4.427   6.637  12.549  0.2886  0.6973  1.8982
20180TIP3    H282032   4.562   6.701  12.577 -0.8914  3.0471  2.3547
20181TIP3   OH282033   1.069   3.559   3.067 -0.1321  0.6567 -0.8927
20181TIP3    H182034   1.005   3.612   3.020 -0.8583  1.1500  0.6536
20181TIP3    H282035   1.025   3.476   3.083 -0.7320  1.3093  0.9586
20182TIP3   OH282036   5.881   1.357  14.503 -0.5062 -0.2629 -0.3151
20182TIP3    H182037   5.875   1.421  14.575 -0.6001 -0.4712 -0.1370
20182TIP3    H282038   5.975   1.341  14.494 -0.4806 -0.0840 -0.3714
20183TIP3   OH282039   0.604   5.887  12.527  1.0340  0.4939 -0.6233
20183TIP3    H182040   0.583   5.904  12.435  1.3726  0.4640 -0.7062
20183TIP3    H282041   0.619   5.974  12.564  0.8150  0.5118 -0.5746
20184TIP3   OH282042   1.607   2.237   5.322  0.4717 -0.4091 -0.1898
20184TIP3    H182043   1.661   2.186   5.261  0.9605  0.2049 -0.2827
20184TIP3    H282044   1.635   2.328   5.307 -0.6191 -0.0869 -0.2603
20185TIP3   OH282045   5.279   3.302  13.603  0.1219  0.2153 -0.5260
20185TIP3    H182046   5.201   3.352  13.628  1.3665  2.3511 -0.7978
20185TIP3    H282047   5.252   3.254  13.525 -0.8033  1.3160 -0.9130
20186TIP3   OH282048   3.305   1.893  13.191  0.1183  0.8020 -0.4312
20186TIP3    H182049   3.277   1.810  13.151  0.1454 -1.0249  3.1564
20186TIP3    H282050   3.223   1.935  13.217  0.2431  0.2509  0.8724
20187TIP3   OH282051   5.024   1.724   0.136 -0.1273 -0.5413  0.0522
20187TIP3    H182052   4.984   1.657   0.080  0.9144 -1.6680  0.6380
20187TIP3    H282053   4.955   1.790   0.148 -0.8458 -1.0405 -1.3086
20188TIP3   OH282054   0.486   0.683   3.760 -0.3131 -0.1887 -0.3071
20188TIP3    H182055   0.428   0.609   3.744  0.4666 -0.7954 -0.3316
20188TIP3    H282056   0.573   0.650   3.741  0.2079  0.2735  1.2653
20189TIP3   OH282057   1.588   0.566   0.948 -0.1249 -0.3772 -0.1040
20189TIP3    H182058   1.556   0.538   1.034  0.6073 -2.0842 -0.3679
20189TIP3    H282059   1.683   0.572   0.958 -0.1100  0.3016 -0.5613
20190TIP3   OH282060   0.492   1.334  16.177  0.3558  0.5474 -0.3563
20190TIP3    H182061   0.549   1.404  16.146  0.3389  0.4415 -0.6298
20190TIP3    H282062   0.541   1.254  16.157 -0.2161  0.4207 -1.2833
20191TIP3   OH282063   1.854   0.969   2.717  0.6071  0.5283 -0.2488
20191TIP3    H182064   1.916   1.026   2.763  1.6218 -0.7688  0.0270
20191TIP3    H282065   1.830   1.017   2.639 -0.1746  2.2380  1.0188
20192TIP3   OH282066   1.242   1.286   3.024  0.0754 -0.4482  0.2931
20192TIP3    H182067   1.196   1.334   3.093 -0.3903 -0.6593  0.1321
20192TIP3    H282068   1.191   1.205   3.013  1.5293 -1.5306  1.3959
20193TIP3   OH282069   4.163   3.147   3.960 -0.1704  0.3068 -0.1550
20193TIP3    H182070   4.086   3.154   4.017 -0.6967  1.2763 -0.9660
20193TIP3    H282071   4.133   3.097   3.885  0.5512 -1.0568  0.4422
20194TIP3   OH282072   4.099   4.606   0.450 -0.2148 -0.0466  0.6623
20194TIP3    H182073   4.175   4.645   0.493 -1.1169  1.2109  1.1594
20194TIP3    H282074   4.122   4.604   0.357 -0.3922  2.3144  0.5317
20195TIP3   OH282075   4.923   5.300  15.054 -0.2148  0.5214  0.0320
20195TIP3    H182076   4.889   5.214  15.029 -2.3143  1.6643 -1.1963
20195TIP3    H282077   4.975   5.328  14.979  0.5390  0.2950  0.4673
20196TIP3   OH282078   3.442   0.940  14.880 -0.1686  0.0910  0.1514
20196TIP3    H182079   3.530   0.912  14.904  0.0100  0.0558 -0.5313
20196TIP3    H282080   3.399   0.959  14.963  1.0641  1.8852  0.4002
20197TIP3   OH282081   1.502   2.575  16.882  0.1142  0.1670  0.4599
20197TIP3    H182082   1.451   2.549  16.805 -2.1801  3.1826  0.8617
20197TIP3    H282083   1.583   2.610  16.847  1.5675 -3.6491 -0.2497
20198TIP3   OH282084   1.896   5.261  12.325 -0.3577  0.2700  0.3224
20198TIP3    H182085   1.925   5.329  12.264 -0.2767 -1.2417 -1.3592
20198TIP3    H282086   1.907   5.301  12.411  1.2563  1.8054 -0.5450
20199TIP3   OH282087   0.072   2.530  11.401  0.0735  0.3806 -0.1623
20199TIP3    H182088   0.015   2.587  11.350  0.0540  1.2207  0.7820
20199TIP3    H282089   0.034   2.530  11.489 -0.1650 -1.4238 -0.2404
20200TIP3   OH282090   0.036   3.001  13.041 -0.3804  0.3151  0.4569
20200TIP3    H182091  -0.026   2.981  12.971  0.5450 -1.1316  0.0360
20200TIP3    H282092   0.081   3.080  13.011  1.1073 -1.1851 -1.3213
20201TIP3   OH282093   3.230   2.678   6.751  0.2883  0.2055  0.1906
20201TIP3    H182094   3.269   2.645   6.832 -0.6337 -0.4554  0.3772
20201TIP3    H282095   3.284   2.753   6.727 -0.9640  2.0366  2.8665
20202TIP3   OH282096   1.684   0.516  11.562 -0.3527 -0.0956 -0.1560
20202TIP3    H182097   1.775   0.543  11.577 -0.2532 -1.0185  1.0436
20202TIP3    H282098   1.687   0.420  11.568 -1.3328 -0.1500 -0.5289
20203TIP3   OH282099   1.397   5.433  12.348 -0.0404  0.1852 -0.2398
20203TIP3    H182100   1.484   5.470  12.339  0.4282 -1.2281 -1.8218
20203TIP3    H282101   1.366   5.465  12.432  1.4152  1.8957 -0.3279
20204TIP3   OH282102   5.506   4.757   1.333  0.6728 -0.0353 -0.6723
20204TIP3    H182103   5.419   4.746   1.294 -0.1264  4.3693 -0.4110
20204TIP3    H282104   5.488   4.778   1.424  2.0185  0.5176 -0.5286
20205TIP3   OH282105   5.640   6.675   4.696  0.0497 -0.3488  0.5069
20205TIP3    H182106   5.682   6.741   4.642  0.9139  0.2115  1.8418
20205TIP3    H282107   5.569   6.721   4.740 -0.7300 -0.8337 -0.2112
20206TIP3   OH282108   6.034   4.453   0.631  0.3999  0.3919 -0.5200
20206TIP3    H182109   6.002   4.543   0.629 -0.3962  0.1788  1.2720
20206TIP3    H282110   6.113   4.457   0.684  0.3116  0.0202 -0.3612
20207TIP3   OH282111   6.490   2.868   0.349 -0.0315  0.4037 -0.5437
20207TIP3    H182112   6.489   2.942   0.410  0.3863 -0.9693  1.1566
20207TIP3    H282113   6.398   2.854   0.327 -0.7218 -1.9410  3.3531
20208TIP3   OH282114   2.141   4.157   6.803 -0.9874  0.3517 -0.8720
20208TIP3    H182115   2.062   4.195   6.767  0.4457  1.1890 -3.2498
20208TIP3    H282116   2.149   4.071   6.761 -0.2123  0.6090 -1.2680
20209TIP3   OH282117   0.106   4.793   3.487  0.4063  0.1480  0.2151
20209TIP3    H182118   0.137   4.797   3.578  1.5358  1.2939 -0.1864
20209TIP3    H282119   0.146   4.714   3.452  0.7552  0.2159  0.4502
20210TIP3   OH282120   3.830   5.137   0.678 -0.1984  0.2627 -0.0203
20210TIP3    H182121   3.816   5.057   0.628 -0.8999 -1.0679  2.2919
20210TIP3    H282122   3.906   5.118   0.733 -1.2122  0.7103  1.5394
20211TIP3   OH282123   2.616   4.300  13.040 -0.0380  0.0047  0.4480
20211TIP3    H182124   2.557   4.344  13.101  0.9399  1.7029  0.2096
20211TIP3    H282125   2.692   4.358  13.034  0.2799 -0.5781 -1.6882
20212TIP3   OH282126   0.782   5.279  11.263  0.3830  0.2065  0.1988
20212TIP3    H182127   0.688   5.271  11.282  0.7033 -0.7135  1.4359
20212TIP3    H282128   0.800   5.372  11.272 -0.0923  0.1810  1.5008
20213TIP3   OH282129   4.310   5.197   6.077 -0.1759 -0.1185 -0.3431
20213TIP3    H182130   4.292   5.233   6.164 -0.7243  0.8872 -0.8556
20213TIP3    H282131   4.393   5.150   6.086 -0.7768 -0.9392  0.9777
20214TIP3   OH282132   0.547   0.955  10.757  0.0634 -0.3007 -0.3084
20214TIP3    H182133   0.595   0.878  10.785  1.1669  0.5304  0.1475
20214TIP3    H282134   0.474   0.962  10.818  2.7668  1.8185  2.8240
20215TIP3   OH282135   3.217   1.561   0.525 -0.3453  0.6896 -0.2347
20215TIP3    H182136   3.285   1.510   0.480  0.1030  1.9565 -0.9949
20215TIP3    H282137   3.230   1.540   0.618  1.4197  1.2985 -0.3208
20216TIP3   OH282138   6.774   1.306  12.345  0.0331 -0.0977 -0.1246
20216TIP3    H182139   6.774   1.264  12.431  0.7322 -0.9321 -0.5217
20216TIP3    H282140   6.729   1.389  12.359 -0.4659 -0.5263  0.8976
20217TIP3   OH282141   5.931   1.727   3.566  0.0456 -0.3004 -0.0491
20217TIP3    H182142   5.990   1.683   3.628  0.1235 -1.8809 -1.2465
20217TIP3    H282143   5.884   1.790   3.621 -0.1054 -1.8746  1.6995
20218TIP3   OH282144   2.285   5.187   1.078  0.7443  0.0697 -0.4521
20218TIP3    H182145   2.250   5.242   1.008 -0.5975 -0.2153 -0.0198
20218TIP3    H282146   2.369   5.156   1.044 -0.3770 -0.9296 -2.3771
20219TIP3   OH282147   3.693   2.683  11.486 -0.0862 -0.2168 -0.1345
20219TIP3    H182148   3.699   2.754  11.550  0.5942  0.8077 -1.3254
20219TIP3    H282149   3.755   2.617  11.517 -0.9212 -0.4287  1.1285
20220TIP3   OH282150   3.001   0.710  17.021 -0.1991  0.2255  0.0911
20220TIP3    H182151   3.020   0.687  17.112 -0.5577 -0.8998 -0.1097
20220TIP3    H282152   3.051   0.790  17.005  1.0134 -0.3685  0.8465
20221TIP3   OH282153   3.204   5.096  11.247 -0.6043  0.2571 -0.4868
20221TIP3    H182154   3.208   5.182  11.205  0.5150  1.0280  1.1596
20221TIP3    H282155   3.186   5.035  11.175 -0.2614  1.7180 -1.8445
20222TIP3   OH282156   6.463   6.210   1.499 -0.0680 -0.3132  0.2390
20222TIP3    H182157   6.368   6.201   1.501 -0.1543  0.4839 -0.1881
20222TIP3    H282158   6.486   6.200   1.406  0.0935  1.2004  0.1049
20223TIP3   OH282159   6.682   0.405   4.262 -0.5749 -0.5388 -0.8230
20223TIP3    H182160   6.731   0.344   4.206  0.1101  1.0876 -2.0327
20223TIP3    H282161   6.747   0.438   4.324 -1.0917 -1.4889  0.2569
20224TIP3   OH282162   5.002   2.744   4.687  0.1684 -0.2296 -0.0460
20224TIP3    H182163   4.952   2.675   4.730 -0.0157 -0.0418  0.0447
20224TIP3    H282164   5.055   2.783   4.758  0.3685 -0.3610 -0.1223
20225TIP3   OH282165   0.368   2.563  15.831 -0.5234 -0.2456 -0.0769
20225TIP3    H182166   0.444   2.619  15.851 -0.8744  0.1182  0.2499
20225TIP3    H282167   0.301   2.624  15.801 -1.7684 -0.1638  2.7332
20226TIP3   OH282168   0.974   5.521  17.178 -0.8121  0.2312 -0.8021
20226TIP3    H182169   0.957   5.474  17.260 -1.9249  0.7432 -0.7265
20226TIP3    H282170   0.998   5.452  17.116 -0.5015 -0.2202 -0.1933
20227TIP3   OH282171   6.783   1.281  13.228 -0.0289  0.4428 -0.0380
20227TIP3    H182172   6.835   1.307  13.304 -0.8236 -2.0066  1.3821
20227TIP3    H282173   6.846   1.276  13.156  1.9233 -3.1115  1.7748
20228TIP3   OH282174   4.845   0.603  13.204  0.0087 -0.2459  0.1303
20228TIP3    H182175   4.772   0.543  13.192 -0.7101  1.0967 -2.7213
20228TIP3    H282176   4.921   0.555  13.170 -0.7812  0.8453 -3.3269
20229TIP3   OH282177   3.847   4.896   4.117 -0.4135  0.3760 -0.6058
20229TIP3    H182178   3.921   4.838   4.135 -1.7574 -0.6858  1.7096
20229TIP3    H282179   3.888   4.980   4.094  1.5370 -0.2026  0.5744
20230TIP3   OH282180   5.498   2.714  15.457 -0.3763 -0.4192  0.4640
20230TIP3    H182181   5.589   2.690  15.469  0.1642  1.4146  0.2509
20230TIP3    H282182   5.471   2.666  15.378  0.4954 -0.7290  0.3490
20231TIP3   OH282183   5.381   1.359  14.440  0.1181  0.1945 -0.1021
20231TIP3    H182184   5.450   1.424  14.453  1.0092 -0.7988  0.2237
20231TIP3    H282185   5.414   1.280  14.484 -2.0534  0.2447  1.6609
20232TIP3   OH282186   5.089   0.550   4.430 -0.1201  0.0287 -0.5191
20232TIP3    H182187   5.134   0.488   4.372  0.2377  0.2062 -0.4338
20232TIP3    H282188   4.996   0.527   4.423  0.0106 -0.5283 -0.4789
20233TIP3   OH282189   5.681   6.820  12.730 -0.0199 -0.1756 -0.2607
20233TIP3    H182190   5.662   6.906  12.695 -0.6565  0.1289  0.8125
20233TIP3    H282191   5.598   6.772  12.724 -0.6746  0.4932  2.5272
20234TIP3   OH282192   3.085   0.728  12.325 -0.0968  0.3151 -0.0035
20234TIP3    H182193   3.166   0.692  12.290  0.1502  1.2091 -0.3765
20234TIP3    H282194   3.031   0.746  12.248 -0.0090  1.2117  0.1293
20235TIP3   OH282195   1.882   5.476  11.142  0.6146 -0.1399  0.4616
20235TIP3    H182196   1.955   5.469  11.080 -0.6433  0.2863 -1.0824
20235TIP3    H282197   1.847   5.564  11.129 -0.0390 -0.2614  1.3601
20236TIP3   OH282198   0.361   2.892   0.227 -0.1255 -0.2174 -0.5601
20236TIP3    H182199   0.404   2.822   0.276  0.4378  0.7260  0.3060
20236TIP3    H282200   0.350   2.856   0.139 -0.5773 -1.6888  0.0914
20237TIP3   OH282201   0.566   6.265  15.785 -0.3370  0.5891 -0.2146
20237TIP3    H182202   0.659   6.288  15.792 -0.3671  1.0829 -1.3621
20237TIP3    H282203   0.539   6.248  15.875  0.8204  0.6239  0.1512
20238TIP3   OH282204   1.617   4.725   4.369  0.0234 -0.7719  0.0805
20238TIP3    H182205   1.610   4.681   4.285  0.3915 -1.7494  0.5479
20238TIP3    H282206   1.527   4.745   4.394 -0.1372 -1.1294 -0.2132
20239TIP3   OH282207   1.160   4.331  13.937 -0.1368  0.2444 -0.6887
20239TIP3    H182208   1.067   4.318  13.959 -0.1494 -1.4567 -1.6137
20239TIP3    H282209   1.197   4.377  14.013 -1.4898 -0.0646  0.1769
20240TIP3   OH282210   4.709   4.709   2.680  0.1536  0.0460  0.4025
20240TIP3    H182211   4.640   4.763   2.718  0.6117 -0.8652  2.5769
20240TIP3    H282212   4.665   4.660   2.610 -0.9105  1.0191  0.3695
20241TIP3   OH282213   4.866   0.317  11.044 -0.2726  0.1976  0.4378
20241TIP3    H182214   4.889   0.410  11.033  3.8354 -0.6349  1.0178
20241TIP3    H282215   4.844   0.287  10.955  0.4824  1.2517 -0.1203
20242TIP3   OH282216   3.038   2.324  16.590 -0.8233  0.2171 -0.5617
20242TIP3    H182217   3.058   2.311  16.683 -0.4054 -0.8772 -0.8018
20242TIP3    H282218   3.103   2.272  16.544 -1.5169  0.1317 -1.4513
20243TIP3   OH282219   5.171   2.797  13.454 -0.3038 -0.2773 -0.7655
20243TIP3    H182220   5.152   2.818  13.545 -0.1020 -1.1200 -0.5230
20243TIP3    H282221   5.256   2.753  13.457 -0.2759 -0.2688 -1.3667
20244TIP3   OH282222   5.673   2.172   1.164 -0.1700  0.0529  0.2209
20244TIP3    H182223   5.729   2.114   1.113 -1.3949 -0.7716 -0.2215
20244TIP3    H282224   5.636   2.116   1.232 -1.4942  0.2598 -0.3129
20245TIP3   OH282225   0.183   1.733   2.805  0.2992 -0.3278  0.1081
20245TIP3    H182226   0.189   1.798   2.734  0.4420 -2.3047 -1.7576
20245TIP3    H282227   0.101   1.753   2.850 -0.1426  0.5334 -1.0532
20246TIP3   OH282228   5.079   5.433  11.531  0.0850 -0.2848 -0.1160
20246TIP3    H182229   5.059   5.383  11.452 -0.6567 -0.4962  0.2034
20246TIP3    H282230   5.004   5.491  11.543  0.8416  0.7773 -0.3657
20247TIP3   OH282231   4.928   1.531   1.327  0.0600  0.6223  0.1124
20247TIP3    H182232   4.845   1.517   1.374 -0.0599  0.2288 -0.2110
20247TIP3    H282233   4.903   1.531   1.234  0.6400 -1.1626 -0.0685
20248TIP3   OH282234   4.870   6.127   1.998  0.2900  0.4107  0.1670
20248TIP3    H182235   4.901   6.121   2.088  1.1635  0.4507 -0.1304
20248TIP3    H282236   4.909   6.052   1.954 -0.5881  0.0739 -0.0534
20249TIP3   OH282237   3.336   1.712  16.987 -0.9785  0.6739 -0.1029
20249TIP3    H182238   3.393   1.782  17.021 -0.7086  0.6037 -0.4158
20249TIP3    H282239   3.322   1.734  16.895  0.0218 -0.2973 -0.4943
20250TIP3   OH282240   6.113   3.597   2.353  0.3041  0.4032  0.1702
20250TIP3    H182241   6.159   3.518   2.324 -1.4688 -1.0367  1.1773
20250TIP3    H282242   6.093   3.580   2.445  0.1059  2.1475  0.4602
20251TIP3   OH282243   6.364   3.877   4.958 -0.6708  0.0380 -0.3057
20251TIP3    H182244   6.427   3.805   4.956  0.3505  0.9416 -1.4117
20251TIP3    H282245   6.403   3.944   4.902 -1.4344  1.5990  1.0047
20252TIP3   OH282246   2.541   3.256   1.511 -0.4360  0.6242 -0.1456
20252TIP3    H182247   2.558   3.183   1.451  2.8068  1.2457 -0.0799
20252TIP3    H282248   2.561   3.221   1.597  0.8500  1.4592 -0.0835
20253TIP3   OH282249   4.753   3.311   4.572 -0.3631  0.6023  0.2087
20253TIP3    H182250   4.743   3.365   4.650 -0.8806  0.6816  0.0850
20253TIP3    H282251   4.690   3.240   4.584  2.7333 -1.9996  2.0965
20254TIP3   OH282252   6.033   1.872   0.817  0.3930  0.0455 -0.6335
20254TIP3    H182253   6.116   1.848   0.776  0.3376 -1.4295  0.0997
20254TIP3    H282254   5.969   1.812   0.777  0.0893 -0.4091  0.5184
20255TIP3   OH282255   2.793   3.869  14.478  0.3791 -0.1176  0.5221
20255TIP3    H182256   2.760   3.947  14.523  2.3285 -0.4685  2.6548
20255TIP3    H282257   2.718   3.835  14.430 -0.5410  3.0566 -0.4702
20256TIP3   OH282258   6.304   4.720  16.532  0.0977  0.1432 -0.2185
20256TIP3    H182259   6.352   4.653  16.580 -1.0606 -0.7591 -0.2845
20256TIP3    H282260   6.366   4.792  16.522  0.9818 -0.4437  0.8932
20257TIP3   OH282261   4.358   4.676  13.105  0.0527 -0.1495 -0.1236
20257TIP3    H182262   4.380   4.584  13.087 -1.2233 -0.5012  0.1077
20257TIP3    H282263   4.279   4.672  13.158  0.9902  1.0406  1.3781
20258TIP3   OH282264   0.722   2.069  15.954  0.4682  0.5430 -0.2124
20258TIP3    H182265   0.727   1.996  16.017  0.8272 -0.0716 -0.9424
20258TIP3    H282266   0.713   2.026  15.869  1.3784  1.3457 -0.7197
20259TIP3   OH282267   0.973   5.428   5.217 -0.3596  0.5356 -0.3460
20259TIP3    H182268   0.994   5.466   5.302 -1.2389  2.8514 -1.1204
20259TIP3    H282269   0.882   5.399   5.225  0.6279 -2.5655  0.5933
20260TIP3   OH282270   1.359   2.584  14.309 -1.3643  0.4612  0.7447
20260TIP3    H182271   1.287   2.613  14.252 -1.4074 -1.5246 -0.2369
20260TIP3    H282272   1.316   2.538  14.381 -1.0179 -3.2693 -1.3186
20261TIP3   OH282273   2.641   4.302  15.291  0.2138 -0.2416  0.4982
20261TIP3    H182274   2.728   4.341  15.291 -0.0928  0.4446  0.5448
20261TIP3    H282275   2.607   4.317  15.202 -0.0894  0.0213  0.6553
20262TIP3   OH282276   0.178   0.226   4.396  0.0580 -0.0972  0.4988
20262TIP3    H182277   0.156   0.319   4.405  0.4222 -0.2224  2.9027
20262TIP3    H282278   0.272   0.221   4.414 -0.3398 -1.1824  2.3407
20263TIP3   OH282279   5.777   2.691  15.549 -0.2672 -0.2083 -0.1958
20263TIP3    H182280   5.809   2.617  15.600 -0.2038 -1.1190 -1.5476
20263TIP3    H282281   5.711   2.732  15.605 -1.4708 -2.2451 -0.0722
20264TIP3   OH282282   4.864   3.638  12.939 -0.6406  1.0925 -0.0139
20264TIP3    H182283   4.918   3.674  12.868  0.0571  1.3405  0.6434
20264TIP3    H282284   4.775   3.639  12.904 -0.0175 -0.9510 -1.7872
20265TIP3   OH282285   5.327   1.356   2.905  0.9275 -0.3172 -0.7926
20265TIP3    H182286   5.406   1.328   2.859  1.2741  0.7666 -0.8748
20265TIP3    H282287   5.312   1.287   2.970  2.2571 -0.2639 -0.4090
20266TIP3   OH282288   4.505   6.264  14.998  0.0394  0.4934  0.0922
20266TIP3    H182289   4.463   6.178  15.004  3.3787 -1.1387  1.2702
20266TIP3    H282290   4.567   6.256  14.925  0.1138  2.0426 -0.0425
20267TIP3   OH282291   1.615   3.677   6.398 -0.0325  0.0164 -0.0618
20267TIP3    H182292   1.630   3.747   6.462 -0.4619  0.2386 -0.2044
20267TIP3    H282293   1.703   3.647   6.374  0.1142 -1.3527  2.0603
20268TIP3   OH282294   2.698   2.487  11.955  0.3773  0.1623 -0.0131
20268TIP3    H182295   2.712   2.474  12.049 -0.7969 -0.6656  0.0673
20268TIP3    H282296   2.718   2.402  11.916 -0.7207  0.0171 -0.2990
20269TIP3   OH282297   1.492   5.987   1.205  0.2449 -0.4747  0.9563
20269TIP3    H182298   1.466   6.011   1.116  0.7514 -0.2114  0.8800
20269TIP3    H282299   1.450   5.901   1.219  0.7852 -0.8741  0.1870
20270TIP3   OH282300   0.715   0.083   4.459 -0.5380 -0.2279  0.7385
20270TIP3    H182301   0.730   0.014   4.524 -2.7590  0.3523  1.9215
20270TIP3    H282302   0.798   0.130   4.456  0.1558 -1.3105  1.8999
20271TIP3   OH282303   6.575   1.893  10.631 -0.3165  0.0825 -0.6046
20271TIP3    H182304   6.510   1.958  10.605 -0.8445 -0.6640 -1.1723
20271TIP3    H282305   6.537   1.852  10.709 -0.1748  0.1789 -0.4852
20272TIP3   OH282306   5.905   5.018   5.128  0.0107 -0.2261 -0.4845
20272TIP3    H182307   5.859   5.078   5.070 -1.0836 -1.0706 -0.5136
20272TIP3    H282308   5.987   4.999   5.084 -1.2339 -1.6367 -2.2374
20273TIP3   OH282309   4.164   0.902   5.436 -0.0977 -0.2683  0.2219
20273TIP3    H182310   4.152   0.945   5.521 -0.4890  0.9673 -0.4278
20273TIP3    H282311   4.128   0.966   5.373 -0.8676 -1.6499 -0.7611
20274TIP3   OH282312   4.613   0.456  13.170  0.3390 -0.1234  0.3063
20274TIP3    H182313   4.578   0.493  13.252 -1.0746 -2.4787  0.7996
20274TIP3    H282314   4.640   0.368  13.193 -1.1457 -1.2445 -2.0058
20275TIP3   OH282315   2.820   4.189  17.267  0.2508 -0.3218 -0.2191
20275TIP3    H182316   2.775   4.136  17.333  1.3871 -0.8380  0.1575
20275TIP3    H282317   2.751   4.243  17.229 -0.1058  1.4348  2.7644
20276TIP3   OH282318   0.528   6.606  12.347  0.6508 -0.3458  0.2419
20276TIP3    H182319   0.515   6.642  12.435 -0.1720 -0.1838  0.0606
20276TIP3    H282320   0.615   6.566  12.350  1.5628  1.6295  0.4551
20277LIG      O82321   4.999   5.048  16.469  0.1206 -0.1006 -0.0489
20277LIG     C182322   4.862   5.060  16.504 -0.9802  0.2572  0.4806
20277LIG     C282323   4.787   4.969  16.408  0.2451  0.0738 -0.1624
20277LIG     C382324   4.858   5.021  16.651 -0.1684  0.9795  0.0790
20277LIG     H182325   4.833   5.166  16.488 -1.8730  0.0955  0.9988
20277LIG     H282326   4.679   4.988  16.427  0.2781  1.9973 -1.8239
20277LIG     H382327   4.808   4.863  16.435  0.1364  0.0759 -0.0695
20277LIG     H482328   4.808   4.992  16.302  2.4294 -1.3778 -0.0703
20277LIG     H582329   4.759   5.052  16.693 -0.5898 -0.8731  0.4757
20277LIG     H682330   4.939   5.077  16.703  1.9412 -1.0488 -1.0045
20277LIG     H782331   4.870   4.915  16.679 -0.2848  0.8348 -0.4229
20277LIG     H882332   4.998   5.088  16.382 -0.2351 -0.0172 -0.0055
   6.82013   6.82013  17.29240
